Title
81392
    1CHL1    C3    1   1.892   0.928  10.064  0.4952 -0.4628 -0.5250
    1CHL1    H3    2   1.897   1.033  10.027  0.0122  0.6000  2.1866
    1CHL1    O3    3   1.880   0.909  10.201  0.5340 -0.5756 -0.1304
    1CHL1   H3'    4   1.955   0.951  10.244  1.5243 -1.5905 -0.8093
    1CHL1    C4    5   1.792   0.842   9.986  0.3186  0.1124  0.8445
    1CHL1   H4A    6   1.796   0.735  10.017 -2.3357  0.0066  1.0975
    1CHL1   H4B    7   1.692   0.882  10.012  0.5657  1.6006 -0.3916
    1CHL1    C5    8   1.815   0.853   9.836 -0.0554  1.5370  0.1550
    1CHL1    C6    9   1.723   0.911   9.762  0.0623  0.0107  0.0250
    1CHL1    H6   10   1.629   0.945   9.809  0.3072 -1.6950  1.9053
    1CHL1    C7   11   1.734   0.933   9.612 -0.4508  0.1028  0.3130
    1CHL1   H7A   12   1.637   0.914   9.562 -0.1005 -2.9488  0.5833
    1CHL1   H7B   13   1.758   1.039   9.592  1.4195 -0.2740  0.3890
    1CHL1    C8   14   1.846   0.838   9.548  0.3160  0.1895 -0.9293
    1CHL1    H8   15   1.805   0.736   9.559  1.6640 -0.2361  0.4428
    1CHL1   C14   16   1.886   0.883   9.406 -0.8759  0.4639  0.3593
    1CHL1   H14   17   1.944   0.976   9.426 -0.0938 -0.5705  3.6068
    1CHL1   C15   18   1.772   0.913   9.313  0.8245  0.4054  0.4834
    1CHL1  H15A   19   1.691   0.843   9.344  0.5164  0.7820  0.5285
    1CHL1  H15B   20   1.738   1.018   9.321 -1.3759 -0.3645  2.4127
    1CHL1   C16   21   1.828   0.888   9.173 -0.0757 -0.6935  0.2539
    1CHL1  H16A   22   1.782   0.798   9.126  2.1601 -1.4482 -0.6540
    1CHL1  H16B   23   1.835   0.974   9.103  1.8972  1.1800  2.6165
    1CHL1   C17   24   1.978   0.853   9.201 -0.5291 -0.1214 -0.1073
    1CHL1   H17   25   2.027   0.953   9.205 -0.3872 -0.1779 -0.4456
    1CHL1   C13   26   1.986   0.791   9.340 -0.0028 -0.0155 -0.5474
    1CHL1   C18   27   1.924   0.647   9.327 -0.2502 -0.0874 -0.2524
    1CHL1  H18A   28   1.983   0.565   9.282 -0.7925 -0.4162 -0.3733
    1CHL1  H18B   29   1.881   0.609   9.423 -0.5917 -0.5145 -0.5747
    1CHL1  H18C   30   1.831   0.645   9.267  0.4024 -0.2609 -1.2760
    1CHL1   C12   31   2.114   0.789   9.424  0.0296 -0.2073 -0.1055
    1CHL1  H12A   32   2.191   0.720   9.383 -1.5515 -2.6391  0.8056
    1CHL1  H12B   33   2.155   0.893   9.429 -0.3063 -0.1054  0.7296
    1CHL1   C11   34   2.082   0.747   9.567  0.4172 -0.3872 -0.2169
    1CHL1  H11A   35   2.063   0.637   9.569 -0.0378 -0.4359 -3.1719
    1CHL1  H11B   36   2.175   0.782   9.616 -0.4994  2.6321 -0.4446
    1CHL1    C9   37   1.973   0.839   9.634 -0.0951  0.0944 -0.6491
    1CHL1    H9   38   2.006   0.945   9.639  1.3608 -0.3647 -0.2270
    1CHL1   C10   39   1.949   0.796   9.784 -0.2555 -0.3147 -0.3458
    1CHL1   C19   40   1.940   0.641   9.807 -0.1994 -0.1595 -0.2276
    1CHL1  H19A   41   2.037   0.592   9.784  0.6692  0.7528  1.3246
    1CHL1  H19B   42   1.925   0.616   9.915 -1.8093  2.3544  0.1916
    1CHL1  H19C   43   1.868   0.604   9.731 -0.2965  0.6999 -0.5535
    1CHL1    C1   44   2.062   0.861   9.871  0.1571 -0.5932 -0.5994
    1CHL1   H1A   45   2.158   0.812   9.844 -0.9584 -2.7508 -0.9196
    1CHL1   H1B   46   2.072   0.968   9.844  1.6744 -0.4851  0.2875
    1CHL1    C2   47   2.036   0.870  10.021  0.0053  0.7513 -0.5655
    1CHL1   H2A   48   2.120   0.930  10.062  2.2225 -1.4676 -1.5779
    1CHL1   H2B   49   2.039   0.774  10.078  2.3412  2.6959  2.9878
    1CHL1   C20   50   2.044   0.776   9.079 -0.1678 -0.6140 -0.5901
    1CHL1   H20   51   1.999   0.675   9.066 -0.1944 -0.4605 -1.7912
    1CHL1   C21   52   2.196   0.768   9.096 -0.1475  0.4044 -0.4787
    1CHL1  H21A   53   2.250   0.734   9.005 -1.0677  2.7663 -2.0280
    1CHL1  H21B   54   2.217   0.701   9.182 -0.3733  1.2192  0.2218
    1CHL1  H21C   55   2.227   0.870   9.129 -0.9113 -0.1164  2.1043
    1CHL1   C22   56   2.004   0.846   8.948 -0.0672 -0.0953  0.7449
    1CHL1  H22A   57   1.896   0.873   8.941  0.5962  2.1850 -3.2345
    1CHL1  H22B   58   2.061   0.941   8.955  1.2104 -0.8307  0.4592
    1CHL1   C23   59   2.044   0.773   8.812  1.1813 -0.5383  0.2489
    1CHL1  H23A   60   2.151   0.744   8.818  1.2657 -0.5410 -1.1370
    1CHL1  H23B   61   1.987   0.678   8.811 -0.3524  0.3496  0.7343
    1CHL1   C24   62   1.994   0.859   8.692 -0.5505  0.0925 -0.3178
    1CHL1  H24A   63   1.883   0.864   8.688 -0.4912  0.8073 -1.3056
    1CHL1  H24B   64   2.026   0.964   8.705 -0.2234 -0.2207  1.7114
    1CHL1   C25   65   2.045   0.800   8.554  0.1948  0.3001 -0.1023
    1CHL1   H25   66   2.004   0.697   8.542  0.3955 -0.0913  2.1646
    1CHL1   C26   67   1.999   0.871   8.431  0.5305 -0.4531  0.0349
    1CHL1  H26A   68   2.047   0.840   8.336 -0.2316  1.0607 -0.8731
    1CHL1  H26B   69   1.888   0.864   8.428  0.4738  0.5758 -1.0681
    1CHL1  H26C   70   2.022   0.977   8.456 -0.8180 -0.5170  1.7626
    1CHL1   C27   71   2.195   0.786   8.563  0.4385 -0.6745  0.0775
    1CHL1  H27A   72   2.244   0.874   8.609  1.2577 -1.3650  0.5657
    1CHL1  H27B   73   2.227   0.701   8.626  1.7147  0.0501  0.4399
    1CHL1  H27C   74   2.241   0.773   8.462 -1.8322  1.9342 -1.4354
    2CHL1    C3   75   4.629   2.512  10.167 -0.1125  0.3121 -0.0429
    2CHL1    H3   76   4.547   2.554  10.105 -0.6243 -0.2077  0.2750
    2CHL1    O3   77   4.607   2.538  10.308 -0.7269 -0.1812  0.2624
    2CHL1   H3'   78   4.634   2.627  10.330  1.6293 -0.7338 -0.1333
    2CHL1    C4   79   4.630   2.357  10.154  0.2705 -0.6481  0.4232
    2CHL1   H4A   80   4.712   2.321  10.220  0.3427  2.1214  1.9933
    2CHL1   H4B   81   4.539   2.320  10.205  0.5298 -0.5384  0.9720
    2CHL1    C5   82   4.655   2.318  10.006  0.5578  0.3710  0.5198
    2CHL1    C6   83   4.567   2.235   9.945 -0.6015 -0.2468  0.1948
    2CHL1    H6   84   4.481   2.207  10.009  0.5260 -0.8650  1.4939
    2CHL1    C7   85   4.599   2.169   9.814 -0.1951 -0.3735  0.1629
    2CHL1   H7A   86   4.597   2.058   9.818 -0.0246 -0.3794  0.0952
    2CHL1   H7B   87   4.524   2.189   9.735  0.9269 -0.1280 -0.8642
    2CHL1    C8   88   4.732   2.201   9.749 -0.2972 -0.0914  0.1511
    2CHL1    H8   89   4.810   2.132   9.788  0.4026  0.5514 -0.0711
    2CHL1   C14   90   4.726   2.188   9.594 -0.2241  0.5066  0.0815
    2CHL1   H14   91   4.646   2.253   9.551 -1.1584 -1.0803 -0.6896
    2CHL1   C15   92   4.689   2.046   9.543 -0.1142  0.5175  0.1768
    2CHL1  H15A   93   4.730   1.970   9.613 -0.2903  1.7567  1.6726
    2CHL1  H15B   94   4.578   2.043   9.536 -0.3499  1.8012  2.6384
    2CHL1   C16   95   4.737   2.037   9.393 -0.0738  0.2186 -0.3779
    2CHL1  H16A   96   4.809   1.955   9.370  0.9847  1.3761 -1.2870
    2CHL1  H16B   97   4.656   2.034   9.316  0.3699 -1.7716 -0.8457
    2CHL1   C17   98   4.827   2.174   9.382  0.4741  0.5281 -0.0763
    2CHL1   H17   99   4.763   2.255   9.340 -1.2236 -0.3519  0.7150
    2CHL1   C13  100   4.861   2.213   9.527  0.4129 -0.4743  0.7067
    2CHL1   C18  101   4.973   2.123   9.576 -0.1998 -0.5370  0.2467
    2CHL1  H18A  102   5.068   2.138   9.519 -0.4048 -2.7854 -0.8110
    2CHL1  H18B  103   4.984   2.139   9.685 -0.1228  2.1367 -0.1007
    2CHL1  H18C  104   4.949   2.018   9.547 -0.1305 -0.8973  1.4533
    2CHL1   C12  105   4.898   2.363   9.549 -0.3846 -0.5478 -0.0341
    2CHL1  H12A  106   4.986   2.387   9.486  0.9828 -1.2272  1.5401
    2CHL1  H12B  107   4.813   2.423   9.511  1.4136  2.2420  0.0927
    2CHL1   C11  108   4.905   2.393   9.704 -0.0422 -0.2730  0.3042
    2CHL1  H11A  109   4.999   2.353   9.748 -0.4825 -0.1228  1.4176
    2CHL1  H11B  110   4.909   2.504   9.714 -2.1647  0.1450 -2.2484
    2CHL1    C9  111   4.776   2.344   9.781  0.4774 -0.9791  0.7676
    2CHL1    H9  112   4.691   2.402   9.740  0.8581 -0.5110  0.6249
    2CHL1   C10  113   4.780   2.377   9.933  0.2244 -0.6901 -0.7268
    2CHL1   C19  114   4.911   2.310   9.996 -0.0271 -0.1331 -0.5694
    2CHL1  H19A  115   4.920   2.202   9.971  1.4293 -0.2067  0.1916
    2CHL1  H19B  116   5.001   2.365   9.960  1.4851 -1.3861  1.1209
    2CHL1  H19C  117   4.915   2.343  10.101 -2.6888  4.3627 -1.6390
    2CHL1    C1  118   4.779   2.528   9.959 -0.0062 -0.5767 -0.7868
    2CHL1   H1A  119   4.878   2.574   9.940  0.5732 -0.8664  1.2898
    2CHL1   H1B  120   4.705   2.575   9.890 -0.4430  0.7465  0.5442
    2CHL1    C2  121   4.753   2.574  10.103 -0.0007 -0.0535 -1.2131
    2CHL1   H2A  122   4.762   2.683  10.121  2.3381 -0.4945  0.7874
    2CHL1   H2B  123   4.842   2.553  10.166 -1.4355  0.5084  1.1364
    2CHL1   C20  124   4.930   2.160   9.261  0.6332  0.1958 -0.6136
    2CHL1   H20  125   4.990   2.068   9.275 -0.0874 -0.1354  0.4726
    2CHL1   C21  126   5.045   2.270   9.257  0.7088 -0.3171  0.1668
    2CHL1  H21A  127   5.112   2.268   9.345 -0.1967 -0.4249  0.8736
    2CHL1  H21B  128   5.001   2.372   9.245  2.5734  0.5288  0.2374
    2CHL1  H21C  129   5.107   2.262   9.165 -1.6515 -1.8002 -1.4210
    2CHL1   C22  130   4.847   2.137   9.131 -0.7590 -0.6320  0.4651
    2CHL1  H22A  131   4.908   2.086   9.054 -0.8712  1.0676 -0.7944
    2CHL1  H22B  132   4.756   2.074   9.137 -1.8506  0.8996  0.7769
    2CHL1   C23  133   4.809   2.266   9.052  0.9245  0.0539  0.0637
    2CHL1  H23A  134   4.786   2.332   9.138  2.3191  0.5891  0.0526
    2CHL1  H23B  135   4.904   2.299   9.006  0.7240 -0.6579 -0.8874
    2CHL1   C24  136   4.699   2.282   8.951  0.2467 -0.3882  0.3712
    2CHL1  H24A  137   4.670   2.185   8.905 -1.3344  1.1925 -2.2188
    2CHL1  H24B  138   4.611   2.325   9.003  0.8239 -0.3630  1.3491
    2CHL1   C25  139   4.751   2.363   8.836  0.1767 -0.0523  0.5963
    2CHL1   H25  140   4.854   2.328   8.815  1.6378  2.6713  2.5694
    2CHL1   C26  141   4.663   2.331   8.709 -0.5168  0.3121  0.3269
    2CHL1  H26A  142   4.708   2.387   8.624 -1.2741  1.5608  0.7345
    2CHL1  H26B  143   4.657   2.220   8.699 -0.8255  0.2938  0.7065
    2CHL1  H26C  144   4.559   2.365   8.725 -0.8677  0.2822 -1.5701
    2CHL1   C27  145   4.759   2.510   8.861 -0.1025 -0.3000 -0.2875
    2CHL1  H27A  146   4.843   2.516   8.934 -1.4184 -2.5052  1.5362
    2CHL1  H27B  147   4.808   2.560   8.775  0.7057 -0.8533 -0.1612
    2CHL1  H27C  148   4.676   2.573   8.897 -0.3808 -1.4184  1.1320
    3CHL1    C3  149   5.065   5.959   9.981  0.2803  0.0198 -0.1864
    3CHL1    H3  150   5.069   5.849   9.999  0.5795  0.0590 -0.0056
    3CHL1    O3  151   5.133   6.034  10.078  0.1015 -0.0505  0.0610
    3CHL1   H3'  152   5.139   6.125  10.050  0.5367  0.0114  0.3407
    3CHL1    C4  153   5.127   5.987   9.852 -0.1276  0.1922  0.6547
    3CHL1   H4A  154   5.154   6.095   9.848  1.0898 -0.1341 -0.8295
    3CHL1   H4B  155   5.221   5.928   9.855 -0.5733 -0.5491  0.2741
    3CHL1    C5  156   5.058   5.948   9.727 -0.0095  0.3200 -0.6574
    3CHL1    C6  157   5.113   5.884   9.621  0.1133 -0.3262  0.1397
    3CHL1    H6  158   5.223   5.879   9.618  0.0554 -0.9472 -2.4300
    3CHL1    C7  159   5.044   5.858   9.496  0.0545 -0.5524 -0.4352
    3CHL1   H7A  160   5.114   5.870   9.410  0.3059  0.7403 -0.0776
    3CHL1   H7B  161   5.016   5.752   9.512 -0.4381 -0.0007  3.2922
    3CHL1    C8  162   4.908   5.930   9.486 -0.3387  0.0755 -0.8131
    3CHL1    H8  163   4.926   6.036   9.459 -0.8949  0.0750 -1.1829
    3CHL1   C14  164   4.826   5.875   9.364 -0.3497  0.3496 -1.0019
    3CHL1   H14  165   4.808   5.768   9.386  0.1246  0.0020 -2.2393
    3CHL1   C15  166   4.900   5.878   9.230  0.4055 -0.2545  0.3200
    3CHL1  H15A  167   4.945   5.980   9.225 -0.9563  0.3386 -0.6434
    3CHL1  H15B  168   4.986   5.810   9.212 -0.8154 -1.5670 -0.7692
    3CHL1   C16  169   4.789   5.863   9.127 -0.3956  0.2271  0.3818
    3CHL1  H16A  170   4.820   5.940   9.053  0.4303  0.2049  0.6935
    3CHL1  H16B  171   4.793   5.762   9.081  0.4933  0.5258 -0.2307
    3CHL1   C17  172   4.659   5.883   9.203 -0.1709  0.4711 -0.6313
    3CHL1   H17  173   4.615   5.785   9.231 -0.2464  0.4869 -0.6919
    3CHL1   C13  174   4.691   5.945   9.347 -0.1730 -0.3750  0.5005
    3CHL1   C18  175   4.705   6.100   9.328 -0.3606 -0.0714 -0.8457
    3CHL1  H18A  176   4.779   6.127   9.250  0.1329  0.9091 -0.0701
    3CHL1  H18B  177   4.613   6.145   9.285 -1.6943 -0.8998  0.9831
    3CHL1  H18C  178   4.734   6.148   9.425 -2.3498 -2.0908  0.8616
    3CHL1   C12  179   4.600   5.922   9.470  0.0976 -0.3052  0.1476
    3CHL1  H12A  180   4.506   5.979   9.457  0.3688  0.3126  0.7585
    3CHL1  H12B  181   4.574   5.814   9.477  1.8919 -0.8006 -0.2495
    3CHL1   C11  182   4.677   5.976   9.605  0.1440  0.4894  0.3232
    3CHL1  H11A  183   4.674   6.087   9.610 -1.2488  0.5292 -0.5708
    3CHL1  H11B  184   4.611   5.934   9.684  0.0289  0.3304  0.1459
    3CHL1    C9  185   4.830   5.927   9.618  0.4278 -0.7217 -0.6828
    3CHL1    H9  186   4.817   5.819   9.636  0.2531 -0.7684 -1.0687
    3CHL1   C10  187   4.905   5.991   9.735 -0.2307  0.1282 -0.2451
    3CHL1   C19  188   4.914   6.143   9.725  0.1168 -0.1975 -0.3223
    3CHL1  H19A  189   4.961   6.172   9.629 -1.8896  1.9651 -0.7658
    3CHL1  H19B  190   4.809   6.180   9.719 -0.5141 -1.6592  1.0473
    3CHL1  H19C  191   4.948   6.200   9.814  2.3538 -0.2038 -1.1128
    3CHL1    C1  192   4.839   5.951   9.866  1.0292 -0.0100 -0.7010
    3CHL1   H1A  193   4.735   5.991   9.858 -0.0069 -2.0048  1.5585
    3CHL1   H1B  194   4.824   5.840   9.866  0.9126  0.0026 -0.0474
    3CHL1    C2  195   4.915   5.996   9.988  0.4737  0.1050  0.2297
    3CHL1   H2A  196   4.871   5.956  10.082 -0.5756  0.3393 -0.1491
    3CHL1   H2B  197   4.904   6.106  10.001  0.3821  0.2867 -1.2274
    3CHL1   C20  198   4.555   5.953   9.116  0.6370  0.4332  0.1873
    3CHL1   H20  199   4.597   6.055   9.098  0.0698  0.7211  0.4830
    3CHL1   C21  200   4.415   5.964   9.186  0.4010  0.0671 -0.3811
    3CHL1  H21A  201   4.345   6.019   9.120 -0.4700 -1.3598 -0.7050
    3CHL1  H21B  202   4.410   6.028   9.276 -1.7788  0.5657 -0.8141
    3CHL1  H21C  203   4.368   5.867   9.213  1.5769 -0.6500 -0.8018
    3CHL1   C22  204   4.528   5.877   8.977 -1.2536 -0.1425 -0.8787
    3CHL1  H22A  205   4.625   5.826   8.957 -2.0056 -1.6880 -0.6687
    3CHL1  H22B  206   4.454   5.798   9.000  2.2687 -4.0184 -1.5638
    3CHL1   C23  207   4.474   5.966   8.868 -0.1397 -0.3209 -0.0607
    3CHL1  H23A  208   4.371   5.997   8.894  0.0980 -0.2689  0.8643
    3CHL1  H23B  209   4.530   6.061   8.875 -0.3145 -0.0518 -1.7641
    3CHL1   C24  210   4.478   5.912   8.722 -0.4563  1.0559  0.3361
    3CHL1  H24A  211   4.579   5.886   8.685 -0.6975  1.7577 -0.8672
    3CHL1  H24B  212   4.424   5.816   8.736  0.0311  0.8982  1.2300
    3CHL1   C25  213   4.424   6.001   8.613  1.0731  0.6824  0.1657
    3CHL1   H25  214   4.333   6.058   8.642 -0.2232  0.0276 -2.3623
    3CHL1   C26  215   4.536   6.098   8.581 -0.6976 -0.4315  0.0916
    3CHL1  H26A  216   4.541   6.171   8.664 -2.8131 -0.9388  0.7197
    3CHL1  H26B  217   4.635   6.048   8.567  0.0791 -0.5460  4.5290
    3CHL1  H26C  218   4.500   6.151   8.491 -1.0289 -0.4795  0.1969
    3CHL1   C27  219   4.377   5.910   8.500 -0.6367  0.0727 -0.1892
    3CHL1  H27A  220   4.319   5.836   8.558  1.2599 -0.6270  0.8781
    3CHL1  H27B  221   4.314   5.968   8.429  1.6501 -0.1873 -2.5717
    3CHL1  H27C  222   4.460   5.859   8.447  0.0998 -1.4052  2.2479
    4CHL1    C3  223   3.359   2.087  10.402  0.5357 -0.1611  0.4423
    4CHL1    H3  224   3.456   2.141  10.398  0.1659  0.5197  0.5637
    4CHL1    O3  225   3.321   2.116  10.535  0.1266 -0.1626 -0.4446
    4CHL1   H3'  226   3.229   2.088  10.543  0.4486 -1.0534  0.2834
    4CHL1    C4  227   3.254   2.137  10.304  0.5578  0.1765 -0.1171
    4CHL1   H4A  228   3.153   2.114  10.343  0.7526 -1.1286 -0.3062
    4CHL1   H4B  229   3.254   2.248  10.309  0.8769  0.2219 -0.9685
    4CHL1    C5  230   3.262   2.085  10.169  0.1554 -0.2576  0.5652
    4CHL1    C6  231   3.246   2.173  10.065  0.4029  0.2978 -0.0886
    4CHL1    H6  232   3.238   2.281  10.087 -1.2681  0.8175 -2.7486
    4CHL1    C7  233   3.260   2.133   9.916 -0.1563  1.0227  0.1131
    4CHL1   H7A  234   3.173   2.176   9.862 -0.5243  1.2549  0.8777
    4CHL1   H7B  235   3.356   2.175   9.879 -0.2630  0.2734 -1.0862
    4CHL1    C8  236   3.266   1.984   9.891 -0.7767  0.4962  0.2393
    4CHL1    H8  237   3.164   1.939   9.897 -0.8143  0.0720 -2.2899
    4CHL1   C14  238   3.322   1.949   9.754  0.0036  0.3781 -0.1782
    4CHL1   H14  239   3.422   1.995   9.746 -0.9515  2.2727 -2.2777
    4CHL1   C15  240   3.254   2.020   9.628 -0.7877 -0.0676 -0.3359
    4CHL1  H15A  241   3.144   2.003   9.635 -0.8915  0.1595 -1.2530
    4CHL1  H15B  242   3.281   2.128   9.636  0.2081 -0.2750 -0.7971
    4CHL1   C16  243   3.309   1.940   9.510 -0.5468  0.0139  0.1004
    4CHL1  H16A  244   3.215   1.894   9.473 -0.9555 -0.0949  1.2405
    4CHL1  H16B  245   3.356   1.997   9.427  2.0103 -0.3092  1.2192
    4CHL1   C17  246   3.395   1.825   9.568  0.0128 -0.3157 -0.1246
    4CHL1   H17  247   3.500   1.863   9.577  0.1790 -0.8417  0.1911
    4CHL1   C13  248   3.339   1.805   9.715  0.4908  0.1427  0.4106
    4CHL1   C18  249   3.213   1.721   9.711 -0.8204  0.0228  0.0387
    4CHL1  H18A  250   3.236   1.615   9.691 -0.9372 -0.4287  2.0661
    4CHL1  H18B  251   3.150   1.716   9.802 -0.3351  0.5731  0.4156
    4CHL1  H18C  252   3.148   1.751   9.626 -1.6644  3.5775  1.7104
    4CHL1   C12  253   3.435   1.744   9.817 -0.4005 -0.1270 -0.1843
    4CHL1  H12A  254   3.433   1.634   9.801 -2.8609 -0.2514  0.6413
    4CHL1  H12B  255   3.536   1.787   9.798  0.5755 -1.2379  2.1007
    4CHL1   C11  256   3.386   1.769   9.959 -0.3453  0.5374 -0.6457
    4CHL1  H11A  257   3.295   1.712   9.988 -1.3428  1.8538 -1.1158
    4CHL1  H11B  258   3.473   1.740  10.022  0.9485  0.0882 -2.5600
    4CHL1    C9  259   3.352   1.919   9.997  0.7638  0.1619 -0.0664
    4CHL1    H9  260   3.447   1.977   9.993 -0.5105  2.3951  0.6210
    4CHL1   C10  261   3.304   1.942  10.144 -0.3309  0.8001 -0.4255
    4CHL1   C19  262   3.180   1.856  10.165  0.0262 -1.2093 -0.1917
    4CHL1  H19A  263   3.197   1.747  10.166  3.2237 -0.8230 -0.9723
    4CHL1  H19B  264   3.143   1.869  10.269  0.7082 -0.0293 -0.0694
    4CHL1  H19C  265   3.105   1.883  10.087  0.1750  0.2115  0.1244
    4CHL1    C1  266   3.422   1.893  10.233 -0.2444  0.4047  0.8868
    4CHL1   H1A  267   3.442   1.784  10.219  0.2753  0.7504 -1.4396
    4CHL1   H1B  268   3.519   1.939  10.203 -0.4378 -1.1885 -2.6120
    4CHL1    C2  269   3.389   1.930  10.378 -0.2743 -0.7413  0.2428
    4CHL1   H2A  270   3.479   1.906  10.439  0.6459  0.8452 -0.4039
    4CHL1   H2B  271   3.296   1.874  10.403 -1.0869  0.3037 -0.3541
    4CHL1   C20  272   3.407   1.709   9.470  0.4762  0.9648 -0.3744
    4CHL1   H20  273   3.303   1.677   9.450 -0.0139  2.9113 -1.1545
    4CHL1   C21  274   3.483   1.593   9.527  0.2016  0.4865 -0.3798
    4CHL1  H21A  275   3.429   1.542   9.610  1.3597 -1.1166 -0.5560
    4CHL1  H21B  276   3.575   1.619   9.583  0.3299 -0.8723  0.0915
    4CHL1  H21C  277   3.497   1.507   9.458  0.0567 -2.2815  2.7774
    4CHL1   C22  278   3.459   1.753   9.336 -0.6100  0.1394 -0.3406
    4CHL1  H22A  279   3.402   1.839   9.297 -1.2920 -0.5749 -0.9618
    4CHL1  H22B  280   3.559   1.801   9.336 -0.9811  1.0184 -2.5724
    4CHL1   C23  281   3.448   1.654   9.220 -0.1053  0.1136  0.1937
    4CHL1  H23A  282   3.513   1.566   9.241  0.5018  0.4837 -0.0848
    4CHL1  H23B  283   3.340   1.629   9.216 -0.5253  1.8952 -2.4661
    4CHL1   C24  284   3.503   1.712   9.084  0.4040  0.2545 -0.4088
    4CHL1  H24A  285   3.458   1.810   9.057 -0.1521 -0.2320 -1.2456
    4CHL1  H24B  286   3.613   1.728   9.081  0.3681  0.3566 -1.4479
    4CHL1   C25  287   3.479   1.626   8.957 -0.2120  0.3921 -0.3030
    4CHL1   H25  288   3.522   1.524   8.965  0.4146  0.5172 -1.8383
    4CHL1   C26  289   3.333   1.589   8.939  0.3650  0.3324  0.1570
    4CHL1  H26A  290   3.278   1.685   8.937  0.3044  0.3395 -3.3535
    4CHL1  H26B  291   3.310   1.530   8.848  1.0460  1.3602 -0.7010
    4CHL1  H26C  292   3.292   1.530   9.024  1.0250  0.1223  0.3427
    4CHL1   C27  293   3.536   1.680   8.827  1.2440 -0.1340 -0.4082
    4CHL1  H27A  294   3.645   1.697   8.833  1.2568 -0.6335  2.9198
    4CHL1  H27B  295   3.514   1.606   8.747 -0.4578  1.2549 -1.3110
    4CHL1  H27C  296   3.484   1.776   8.804  0.9747 -0.1740  0.0090
    5CHL1    C3  297   5.964   3.986  10.068 -0.1110  0.3488  0.0643
    5CHL1    H3  298   5.975   3.876  10.082 -1.7771  0.1956  0.3971
    5CHL1    O3  299   5.971   4.047  10.194 -0.8234  0.9564 -0.4257
    5CHL1   H3'  300   5.958   4.138  10.166 -0.2242  1.5567  1.1352
    5CHL1    C4  301   6.083   4.042   9.985 -0.4043 -0.8445 -0.5378
    5CHL1   H4A  302   6.093   4.152   9.982  0.8664 -0.9508 -1.1661
    5CHL1   H4B  303   6.169   3.994  10.037 -0.9137 -0.0598  1.0615
    5CHL1    C5  304   6.075   4.006   9.841  0.1351 -0.0207 -0.9376
    5CHL1    C6  305   6.177   3.937   9.787  0.0713  0.6504 -0.7615
    5CHL1    H6  306   6.271   3.913   9.840  0.1995 -0.9735 -1.6631
    5CHL1    C7  307   6.170   3.877   9.652 -0.0458 -0.8332 -0.0664
    5CHL1   H7A  308   6.267   3.876   9.598  0.3378 -2.3210  0.6101
    5CHL1   H7B  309   6.141   3.770   9.642 -2.5027 -0.0928 -1.8709
    5CHL1    C8  310   6.064   3.960   9.570  0.0024  0.2112 -0.0514
    5CHL1    H8  311   6.090   4.066   9.548 -0.7324  0.5616  0.7113
    5CHL1   C14  312   6.045   3.892   9.435  0.6474  0.2864  0.2910
    5CHL1   H14  313   6.016   3.786   9.451  1.9027  0.2974  3.3134
    5CHL1   C15  314   6.177   3.866   9.351  0.3557  0.4517 -0.3873
    5CHL1  H15A  315   6.250   3.948   9.364 -1.1608  1.7649  0.2007
    5CHL1  H15B  316   6.228   3.773   9.384  0.9194 -0.0308 -2.4837
    5CHL1   C16  317   6.132   3.845   9.213  0.9816  0.8020  0.4189
    5CHL1  H16A  318   6.177   3.908   9.134  1.8709 -0.8193 -0.4156
    5CHL1  H16B  319   6.153   3.741   9.180  2.1236  1.5608 -1.4059
    5CHL1   C17  320   5.979   3.868   9.216  0.0065 -0.1204  0.0697
    5CHL1   H17  321   5.930   3.771   9.236 -0.1508 -0.0896 -0.1642
    5CHL1   C13  322   5.949   3.955   9.335 -0.3407 -0.1726  0.7407
    5CHL1   C18  323   5.979   4.103   9.310  0.6049  0.2672  0.2986
    5CHL1  H18A  324   5.893   4.151   9.259  1.8726  1.2923 -0.9251
    5CHL1  H18B  325   5.991   4.160   9.405  3.4886 -1.3428  1.0206
    5CHL1  H18C  326   6.068   4.124   9.247  0.3924 -0.2971 -0.1996
    5CHL1   C12  327   5.812   3.938   9.409 -0.6530  0.4953  0.7255
    5CHL1  H12A  328   5.732   3.988   9.350 -2.1740 -0.9082  1.5091
    5CHL1  H12B  329   5.783   3.831   9.414  1.2929 -0.1418 -0.4482
    5CHL1   C11  330   5.811   3.998   9.553  0.5556 -0.3558  0.1940
    5CHL1  H11A  331   5.824   4.105   9.527 -0.1254 -0.7326 -1.9601
    5CHL1  H11B  332   5.712   3.957   9.585  0.4087  0.2378  0.4988
    5CHL1    C9  333   5.932   3.955   9.643  0.2705  0.2357  0.2110
    5CHL1    H9  334   5.915   3.849   9.673  0.7008  0.7045  2.2720
    5CHL1   C10  335   5.937   4.036   9.774 -0.0476  0.3205 -0.1445
    5CHL1   C19  336   5.926   4.190   9.766  0.5866  0.1152  0.4618
    5CHL1  H19A  337   6.009   4.228   9.702 -1.6713  0.6469 -2.3525
    5CHL1  H19B  338   5.832   4.228   9.722  0.2366 -0.6908  0.4951
    5CHL1  H19C  339   5.946   4.239   9.864 -0.5900 -1.3853  1.4868
    5CHL1    C1  340   5.816   3.986   9.857  0.4142 -0.1596 -0.5094
    5CHL1   H1A  341   5.724   4.043   9.831  0.3649  1.1906  2.2252
    5CHL1   H1B  342   5.798   3.877   9.848 -2.8761 -0.0226  2.3635
    5CHL1    C2  343   5.827   4.010  10.015 -0.4406  0.1581 -0.6980
    5CHL1   H2A  344   5.737   3.966  10.063  0.5255 -0.2746  0.7941
    5CHL1   H2B  345   5.811   4.120  10.015  0.7028  0.3359  0.0761
    5CHL1   C20  346   5.929   3.915   9.074  1.1087 -0.1669  0.7373
    5CHL1   H20  347   5.964   4.017   9.047 -1.0894  0.3729 -0.2933
    5CHL1   C21  348   5.773   3.917   9.085  0.5385  0.1014  1.0229
    5CHL1  H21A  349   5.718   3.940   8.991 -2.3089  2.5208  3.0645
    5CHL1  H21B  350   5.747   4.002   9.152  2.2700 -0.2342  2.1715
    5CHL1  H21C  351   5.726   3.824   9.123  0.7870 -0.8271 -0.8598
    5CHL1   C22  352   5.969   3.828   8.956 -0.5814  0.3713 -0.2996
    5CHL1  H22A  353   6.078   3.816   8.943 -0.8603 -1.0432 -1.6446
    5CHL1  H22B  354   5.918   3.730   8.967 -0.6680  0.5314  0.9495
    5CHL1   C23  355   5.923   3.874   8.815  0.0037 -0.2283  0.2768
    5CHL1  H23A  356   5.814   3.859   8.801  0.1472  0.1529 -1.5751
    5CHL1  H23B  357   5.949   3.982   8.815  2.2686 -0.7174  1.0213
    5CHL1   C24  358   5.997   3.792   8.709 -0.0250  0.1016 -0.2435
    5CHL1  H24A  359   6.103   3.825   8.713 -0.3253  1.1856 -0.8095
    5CHL1  H24B  360   5.983   3.684   8.730  0.0440  0.6692  3.4461
    5CHL1   C25  361   5.951   3.820   8.564  0.3314 -0.0644  0.5408
    5CHL1   H25  362   5.841   3.813   8.559  0.4252 -0.6645 -2.0373
    5CHL1   C26  363   5.999   3.959   8.518  0.3060  0.5499 -0.3176
    5CHL1  H26A  364   5.962   3.981   8.416 -0.4564  0.0257 -0.1679
    5CHL1  H26B  365   5.952   4.038   8.581 -0.0317  0.1064 -0.0001
    5CHL1  H26C  366   6.109   3.968   8.522  0.2891  1.9089 -1.9602
    5CHL1   C27  367   6.008   3.708   8.468  0.3786 -0.5743  0.0045
    5CHL1  H27A  368   6.118   3.720   8.480  0.4173  2.0947 -2.0680
    5CHL1  H27B  369   5.968   3.606   8.484  2.7267 -1.3385  1.4920
    5CHL1  H27C  370   5.981   3.733   8.363  0.6246 -1.5148 -0.2881
    6CHL1    C3  371   2.048   2.844  10.150 -0.1414 -0.1888  0.1873
    6CHL1    H3  372   2.017   2.740  10.127  1.3994 -0.2907 -1.7605
    6CHL1    O3  373   1.998   2.885  10.278 -0.5990 -0.0285 -0.1749
    6CHL1   H3'  374   2.032   2.973  10.292 -1.4308  0.2444  0.1156
    6CHL1    C4  375   2.199   2.852  10.154 -0.7494 -0.1634 -0.2370
    6CHL1   H4A  376   2.230   2.955  10.182 -1.0980 -0.8190  2.8701
    6CHL1   H4B  377   2.237   2.791  10.239  2.3427  1.8945 -0.0078
    6CHL1    C5  378   2.268   2.813  10.025  0.1111 -0.3456 -0.3365
    6CHL1    C6  379   2.351   2.712  10.021 -0.1286  0.9018 -0.4050
    6CHL1    H6  380   2.366   2.653  10.112 -3.3469 -1.0245 -0.9728
    6CHL1    C7  381   2.405   2.657   9.887  0.5144  0.1987 -0.2041
    6CHL1   H7A  382   2.503   2.608   9.909  0.1462  0.3030  1.8644
    6CHL1   H7B  383   2.352   2.565   9.854  1.7535  0.1448 -2.2197
    6CHL1    C8  384   2.402   2.754   9.773 -0.4889 -0.2799  0.1950
    6CHL1    H8  385   2.482   2.828   9.795  0.1045 -0.9523  0.3178
    6CHL1   C14  386   2.429   2.674   9.645 -0.0780  0.4230  0.0207
    6CHL1   H14  387   2.343   2.604   9.635  0.2885 -0.3097  1.6370
    6CHL1   C15  388   2.546   2.578   9.639  0.1917  0.4013 -0.0983
    6CHL1  H15A  389   2.631   2.590   9.710  1.0093 -2.2830 -0.4896
    6CHL1  H15B  390   2.510   2.478   9.672 -0.6522  0.8857  0.4921
    6CHL1   C16  391   2.588   2.576   9.490 -0.6641 -0.0594  0.4641
    6CHL1  H16A  392   2.679   2.640   9.485 -1.6022  1.6887  3.2271
    6CHL1  H16B  393   2.621   2.477   9.452  2.6335  1.8749 -2.2567
    6CHL1   C17  394   2.477   2.659   9.414  0.7905 -0.0696 -0.5995
    6CHL1   H17  395   2.401   2.579   9.402 -1.5692  1.9518 -0.0303
    6CHL1   C13  396   2.429   2.755   9.520  0.3661 -0.2107  0.0039
    6CHL1   C18  397   2.518   2.878   9.537 -0.2160  0.3149 -0.2636
    6CHL1  H18A  398   2.624   2.854   9.560  0.4626  2.1338 -1.2923
    6CHL1  H18B  399   2.515   2.947   9.450  1.2815 -0.8917 -1.3190
    6CHL1  H18C  400   2.484   2.941   9.622  0.5714  0.6155 -0.1663
    6CHL1   C12  401   2.279   2.809   9.501 -0.5533 -0.7659 -0.4142
    6CHL1  H12A  402   2.284   2.887   9.422  1.0675  0.5353  0.8868
    6CHL1  H12B  403   2.215   2.723   9.474  0.7984 -1.7864 -0.5035
    6CHL1   C11  404   2.226   2.883   9.628 -0.1241 -0.0571 -0.2087
    6CHL1  H11A  405   2.277   2.982   9.627 -0.8847  0.5729  4.0148
    6CHL1  H11B  406   2.120   2.916   9.632  0.4578  1.8753  3.6613
    6CHL1    C9  407   2.257   2.814   9.766  0.1842  0.6487 -0.6924
    6CHL1    H9  408   2.192   2.724   9.759  1.8393 -0.5292 -1.6366
    6CHL1   C10  409   2.214   2.892   9.895 -0.2552 -0.3500 -0.0990
    6CHL1   C19  410   2.285   3.033   9.902  0.3568  0.6783  0.2193
    6CHL1  H19A  411   2.253   3.091   9.813 -1.2418 -0.8333 -0.2466
    6CHL1  H19B  412   2.280   3.096   9.993  0.4388  0.6019  0.2773
    6CHL1  H19C  413   2.394   3.022   9.883  0.5122 -1.0500  1.8137
    6CHL1    C1  414   2.052   2.910   9.900 -1.0492  0.5610  0.1121
    6CHL1   H1A  415   2.022   2.990   9.830  0.5287  0.4014 -0.7922
    6CHL1   H1B  416   2.004   2.815   9.869  0.8479  0.1050 -1.6689
    6CHL1    C2  417   1.998   2.949  10.040  0.6759 -0.2516 -0.0285
    6CHL1   H2A  418   1.888   2.961  10.031  0.9597  2.1294 -0.8168
    6CHL1   H2B  419   2.042   3.048  10.061 -2.3958  1.3691 -0.6582
    6CHL1   C20  420   2.531   2.719   9.282 -0.6519 -0.4099  1.1266
    6CHL1   H20  421   2.606   2.799   9.300 -0.7715 -0.4732  1.9326
    6CHL1   C21  422   2.410   2.767   9.198 -0.5292  0.5177 -0.0549
    6CHL1  H21A  423   2.370   2.856   9.250  1.9802  0.7236  1.6932
    6CHL1  H21B  424   2.331   2.688   9.195  0.6023 -0.7258  1.6351
    6CHL1  H21C  425   2.441   2.809   9.100  0.8240  1.1868  0.6434
    6CHL1   C22  426   2.603   2.604   9.194 -0.1069 -0.0351  0.0330
    6CHL1  H22A  427   2.670   2.546   9.260  1.6066 -0.1293 -1.7197
    6CHL1  H22B  428   2.515   2.545   9.160 -2.0577  2.4442  0.4114
    6CHL1   C23  429   2.685   2.660   9.077  0.3521 -0.3682 -0.4165
    6CHL1  H23A  430   2.618   2.731   9.024  1.2561  1.0396  0.2699
    6CHL1  H23B  431   2.760   2.729   9.122 -0.8291  1.3408 -0.9718
    6CHL1   C24  432   2.740   2.560   8.975  0.5769  0.0310 -0.4046
    6CHL1  H24A  433   2.824   2.509   9.028  1.2700 -0.0011 -1.4924
    6CHL1  H24B  434   2.663   2.485   8.948 -1.1109  1.3287  0.5842
    6CHL1   C25  435   2.810   2.619   8.852 -0.3213 -0.5048 -0.5797
    6CHL1   H25  436   2.877   2.706   8.871  1.3446 -1.5781 -1.3753
    6CHL1   C26  437   2.896   2.506   8.784  0.0066  0.3322 -0.3744
    6CHL1  H26A  438   2.948   2.538   8.691  3.0329 -0.6447  0.8700
    6CHL1  H26B  439   2.985   2.477   8.844  0.3266  0.5195 -0.7527
    6CHL1  H26C  440   2.840   2.412   8.764  2.3278 -1.6745  1.8670
    6CHL1   C27  441   2.714   2.666   8.753  0.5283 -0.2429  0.1308
    6CHL1  H27A  442   2.657   2.752   8.792  0.8017  0.8417 -1.7203
    6CHL1  H27B  443   2.757   2.693   8.654  1.5892 -1.5156  0.2110
    6CHL1  H27C  444   2.642   2.584   8.729 -1.1731  1.8058 -2.3038
    7CHL1    C3  445   0.810   4.387  10.311 -0.2162  0.0661 -0.3973
    7CHL1    H3  446   0.919   4.370  10.305 -0.4282 -2.0807  0.8966
    7CHL1    O3  447   0.770   4.399  10.448 -0.1006 -0.1448  0.1706
    7CHL1   H3'  448   0.815   4.477  10.482 -1.8333 -0.2268  2.9933
    7CHL1    C4  449   0.753   4.518  10.257 -0.5211 -0.0795  0.6079
    7CHL1   H4A  450   0.645   4.534  10.277 -0.5180 -0.1274  0.6629
    7CHL1   H4B  451   0.824   4.597  10.289 -1.3807  0.5792  0.9307
    7CHL1    C5  452   0.774   4.513  10.107  0.5722  0.2127 -0.3563
    7CHL1    C6  453   0.841   4.605  10.040 -0.9576 -0.4029 -0.3522
    7CHL1    H6  454   0.895   4.679  10.100 -2.3383 -0.4211  0.9632
    7CHL1    C7  455   0.860   4.613   9.894 -0.2331  0.7931 -0.9804
    7CHL1   H7A  456   0.844   4.717   9.858  2.7861  1.0270 -1.9075
    7CHL1   H7B  457   0.965   4.589   9.869 -0.3470 -1.1870  0.2007
    7CHL1    C8  458   0.766   4.521   9.815  0.2853 -0.3426  0.2748
    7CHL1    H8  459   0.668   4.573   9.816  0.1344 -0.6241  1.0398
    7CHL1   C14  460   0.812   4.495   9.668 -0.1112  0.1707 -0.1685
    7CHL1   H14  461   0.902   4.431   9.675 -0.9403 -1.0781 -0.5607
    7CHL1   C15  462   0.855   4.617   9.583  0.0186 -0.0029  0.8423
    7CHL1  H15A  463   0.776   4.696   9.588 -2.3103 -2.1420 -0.1373
    7CHL1  H15B  464   0.953   4.664   9.606  0.7136 -2.2870  2.9635
    7CHL1   C16  465   0.842   4.561   9.436  0.0731 -0.1558  0.8546
    7CHL1  H16A  466   0.754   4.619   9.400  0.8163  1.6737  1.8104
    7CHL1  H16B  467   0.927   4.592   9.371 -1.1462  0.3019 -0.5648
    7CHL1   C17  468   0.802   4.407   9.445 -0.6729 -0.3758 -0.4331
    7CHL1   H17  469   0.892   4.344   9.456 -0.7980 -0.5061 -0.1313
    7CHL1   C13  470   0.728   4.407   9.581 -0.4426 -0.2389  0.5780
    7CHL1   C18  471   0.579   4.463   9.567  0.1378  0.5991 -0.2948
    7CHL1  H18A  472   0.513   4.377   9.541 -1.0371  1.0277  1.1766
    7CHL1  H18B  473   0.553   4.516   9.661  1.0936 -0.0320  0.3555
    7CHL1  H18C  474   0.568   4.539   9.487 -1.0170 -2.0685 -2.9042
    7CHL1   C12  475   0.716   4.267   9.652  0.4025  0.4348 -0.4697
    7CHL1  H12A  476   0.650   4.197   9.597 -0.3573  0.1732  0.7551
    7CHL1  H12B  477   0.815   4.215   9.654 -0.0122 -0.3313  1.0719
    7CHL1   C11  478   0.671   4.271   9.800 -0.1775 -0.1147 -0.8067
    7CHL1  H11A  479   0.565   4.305   9.792  0.3758  1.9964  0.1075
    7CHL1  H11B  480   0.683   4.171   9.846  0.7383  1.1274  1.9078
    7CHL1    C9  481   0.753   4.383   9.881  0.5197 -0.2258  0.4803
    7CHL1    H9  482   0.859   4.350   9.877  0.9060  1.0466 -0.3258
    7CHL1   C10  483   0.709   4.387  10.033 -0.0814 -0.1707 -0.6179
    7CHL1   C19  484   0.551   4.401  10.033  1.1649  0.8481  0.9361
    7CHL1  H19A  485   0.510   4.415  10.135 -0.9172 -0.0804  0.2835
    7CHL1  H19B  486   0.519   4.491   9.976  0.3692  0.8431  1.3664
    7CHL1  H19C  487   0.494   4.315   9.992  1.1206  1.1184  0.4175
    7CHL1    C1  488   0.742   4.255  10.106 -0.3136  0.2740 -0.9031
    7CHL1   H1A  489   0.685   4.167  10.070 -0.5933  0.0957 -0.0321
    7CHL1   H1B  490   0.848   4.234  10.081  0.6397  0.5365  2.5340
    7CHL1    C2  491   0.736   4.262  10.257  0.1236 -0.3168  0.1025
    7CHL1   H2A  492   0.781   4.179  10.316 -0.9443 -0.5296  0.6389
    7CHL1   H2B  493   0.629   4.274  10.281  0.2439  1.1874 -0.0660
    7CHL1   C20  494   0.722   4.355   9.327 -0.6350  1.0404  0.1972
    7CHL1   H20  495   0.621   4.402   9.331 -1.4113 -0.5299  0.0515
    7CHL1   C21  496   0.718   4.196   9.333  0.6910 -0.0111  0.0770
    7CHL1  H21A  497   0.817   4.155   9.363  0.1361  0.1166  2.2166
    7CHL1  H21B  498   0.688   4.161   9.232  0.7009 -0.7416  0.3168
    7CHL1  H21C  499   0.634   4.163   9.397  0.1335 -1.9071 -1.5248
    7CHL1   C22  500   0.788   4.387   9.195  0.8145 -0.5181 -0.2948
    7CHL1  H22A  501   0.721   4.334   9.123 -1.6834  0.0761  1.4535
    7CHL1  H22B  502   0.774   4.496   9.176 -0.0472 -0.4265  0.7443
    7CHL1   C23  503   0.942   4.351   9.182 -0.3280 -0.2685  0.5237
    7CHL1  H23A  504   1.004   4.398   9.261  0.0074 -0.6685  0.5004
    7CHL1  H23B  505   0.953   4.241   9.193  1.2720 -0.0291  1.6463
    7CHL1   C24  506   0.999   4.391   9.041 -0.1430 -0.0137  0.0311
    7CHL1  H24A  507   0.953   4.492   9.031 -1.0604 -0.4671 -0.4637
    7CHL1  H24B  508   1.109   4.407   9.038  0.0520 -0.6100  2.1652
    7CHL1   C25  509   0.950   4.306   8.913 -0.1566  0.4580 -0.0102
    7CHL1   H25  510   0.849   4.268   8.941 -0.4547  1.1361 -0.1547
    7CHL1   C26  511   0.955   4.408   8.800 -0.4257 -0.7512  0.8584
    7CHL1  H26A  512   0.880   4.488   8.817 -0.9045 -0.8543 -0.6063
    7CHL1  H26B  513   1.049   4.459   8.770 -0.8646  0.9649  2.2435
    7CHL1  H26C  514   0.921   4.355   8.709  0.2659 -0.6417  0.5217
    7CHL1   C27  515   1.042   4.188   8.878  0.3218 -0.1932  0.2656
    7CHL1  H27A  516   1.051   4.128   8.971  1.0156 -1.6281 -0.6910
    7CHL1  H27B  517   0.997   4.118   8.805  2.3779 -1.3431  0.0330
    7CHL1  H27C  518   1.142   4.225   8.849  0.6507 -1.5630 -0.4130
    8CHL1    C3  519   6.272   5.580  10.255 -0.8403 -0.2227 -0.1817
    8CHL1    H3  520   6.328   5.667  10.215 -0.2000 -0.4714  0.1523
    8CHL1    O3  521   6.305   5.556  10.393 -0.0518 -0.4753 -0.1011
    8CHL1   H3'  522   6.271   5.469  10.414 -2.1562  0.7818  2.4444
    8CHL1    C4  523   6.122   5.610  10.245  0.4398 -0.0601  0.1614
    8CHL1   H4A  524   6.060   5.525  10.279 -2.0931  1.6220 -0.0137
    8CHL1   H4B  525   6.113   5.696  10.314 -1.2040 -0.6567  0.7247
    8CHL1    C5  526   6.080   5.647  10.105 -0.1873 -0.3141  0.0342
    8CHL1    C6  527   6.015   5.761  10.072 -0.0153  0.8846  0.4211
    8CHL1    H6  528   5.983   5.820  10.159  1.4950  1.4708  0.6075
    8CHL1    C7  529   5.981   5.794   9.932 -0.5512 -0.1435 -0.2289
    8CHL1   H7A  530   5.881   5.841   9.935 -2.4387 -3.8149  0.2363
    8CHL1   H7B  531   6.051   5.870   9.890  2.2541 -1.4954  1.7168
    8CHL1    C8  532   5.982   5.669   9.832  0.0739 -0.2619  0.1263
    8CHL1    H8  533   5.897   5.603   9.857 -0.5524  0.6660  0.5336
    8CHL1   C14  534   5.966   5.720   9.691  0.1293  0.3213  0.2788
    8CHL1   H14  535   6.039   5.803   9.678  1.7162 -1.1927 -0.9450
    8CHL1   C15  536   5.830   5.783   9.655  0.5620  0.5524 -0.1695
    8CHL1  H15A  537   5.751   5.726   9.709  1.1370 -0.6549 -0.5465
    8CHL1  H15B  538   5.839   5.890   9.682  0.9306 -0.2782  3.5339
    8CHL1   C16  539   5.819   5.758   9.505  0.0874  0.0824  0.0065
    8CHL1  H16A  540   5.731   5.690   9.494  0.6753 -0.8612  0.9271
    8CHL1  H16B  541   5.794   5.849   9.447 -1.4046 -0.8059 -0.8232
    8CHL1   C17  542   5.944   5.678   9.457  0.1290  0.0845  0.3813
    8CHL1   H17  543   6.029   5.746   9.437  0.3648 -0.5778 -1.0168
    8CHL1   C13  544   5.990   5.608   9.583  0.3467  0.4096  0.0263
    8CHL1   C18  545   5.912   5.478   9.605 -0.0122 -0.2852  0.3989
    8CHL1  H18A  546   5.943   5.434   9.702 -0.6215  3.4189  2.4300
    8CHL1  H18B  547   5.805   5.509   9.602  0.0335 -0.1844 -0.2595
    8CHL1  H18C  548   5.944   5.408   9.524  0.3616  0.7281 -0.3444
    8CHL1   C12  549   6.135   5.583   9.596 -0.1587 -0.0514  0.6448
    8CHL1  H12A  550   6.175   5.516   9.517  2.0561  1.4213  0.4429
    8CHL1  H12B  551   6.187   5.681   9.592  1.0528 -0.6274  1.5446
    8CHL1   C11  552   6.177   5.517   9.735 -0.0785 -0.0222 -0.2072
    8CHL1  H11A  553   6.143   5.411   9.730 -1.0987  0.3174 -1.0427
    8CHL1  H11B  554   6.288   5.522   9.737  0.0524 -2.2031  0.1917
    8CHL1    C9  555   6.124   5.604   9.849 -0.0778  0.4289 -0.0482
    8CHL1    H9  556   6.185   5.696   9.843 -0.3028  0.8256  2.5887
    8CHL1   C10  557   6.125   5.547   9.999  0.4838 -0.0175 -0.4052
    8CHL1   C19  558   6.042   5.413   9.995 -0.2016  0.0890 -0.2096
    8CHL1  H19A  559   6.040   5.379  10.101  1.1954 -0.4453 -0.3340
    8CHL1  H19B  560   5.936   5.429   9.968 -1.3838 -0.3155  3.5733
    8CHL1  H19C  561   6.093   5.329   9.944  3.3370  1.2424  1.0672
    8CHL1    C1  562   6.274   5.504  10.019 -0.4953 -0.0929 -0.4267
    8CHL1   H1A  563   6.292   5.414   9.957  1.8213  1.5263 -2.3471
    8CHL1   H1B  564   6.348   5.579   9.982  0.8498 -1.6810 -1.0862
    8CHL1    C2  565   6.313   5.466  10.163  0.4775 -0.6731  0.2872
    8CHL1   H2A  566   6.420   5.449  10.185  0.4072  0.8071  1.9867
    8CHL1   H2B  567   6.259   5.369  10.177  0.2111 -0.9085 -2.0375
    8CHL1   C20  568   5.927   5.611   9.320 -0.1625  0.6585 -0.2737
    8CHL1   H20  569   5.841   5.541   9.327 -0.6996  1.2332 -0.9540
    8CHL1   C21  570   6.050   5.532   9.274  0.2010 -0.0671 -0.0459
    8CHL1  H21A  571   6.041   5.514   9.165  0.8230 -0.8725  0.0272
    8CHL1  H21B  572   6.068   5.435   9.324  2.8518  1.4630  2.2928
    8CHL1  H21C  573   6.140   5.594   9.294  0.0069 -0.3706  2.0475
    8CHL1   C22  574   5.891   5.708   9.210 -0.1503 -0.2507 -0.2889
    8CHL1  H22A  575   5.819   5.775   9.264 -0.4738 -1.4689  0.8406
    8CHL1  H22B  576   5.974   5.772   9.175  1.5205 -2.4466 -0.5208
    8CHL1   C23  577   5.826   5.648   9.087  0.5734  0.3573  0.2612
    8CHL1  H23A  578   5.886   5.567   9.040 -1.0527 -2.0728  2.0843
    8CHL1  H23B  579   5.732   5.593   9.110  0.3700  0.5308 -0.1485
    8CHL1   C24  580   5.802   5.760   8.977  0.4292  0.1634  0.1681
    8CHL1  H24A  581   5.723   5.824   9.022  1.2063 -0.6293  2.8471
    8CHL1  H24B  582   5.893   5.824   8.971  0.2895  0.2568 -1.2993
    8CHL1   C25  583   5.771   5.694   8.839 -0.8420  0.1504  0.2542
    8CHL1   H25  584   5.860   5.631   8.818 -1.1772 -0.5456  0.8873
    8CHL1   C26  585   5.636   5.621   8.831  0.0460 -0.2624  0.3514
    8CHL1  H26A  586   5.605   5.596   8.727  2.3133  4.8258 -1.9497
    8CHL1  H26B  587   5.626   5.525   8.885 -2.0596  0.4986  1.4138
    8CHL1  H26C  588   5.556   5.692   8.862 -0.2650 -0.3951 -0.1359
    8CHL1   C27  589   5.751   5.808   8.735 -0.3315 -0.1446 -0.2587
    8CHL1  H27A  590   5.649   5.847   8.750 -0.5374 -1.4796  2.3720
    8CHL1  H27B  591   5.820   5.894   8.750 -0.5698 -0.3016  2.0790
    8CHL1  H27C  592   5.775   5.766   8.635 -0.3003 -0.5125 -0.1003
    9CHL1    C3  593   2.097   1.924   9.945  0.1528 -0.3824 -0.4112
    9CHL1    H3  594   2.145   2.024   9.942  0.3999 -0.5102 -0.6563
    9CHL1    O3  595   2.038   1.901  10.074  0.3190 -0.2893 -0.1827
    9CHL1   H3'  596   1.989   1.819  10.075 -1.1008  0.4913 -1.4290
    9CHL1    C4  597   1.977   1.907   9.844 -0.1858 -0.2260 -0.6958
    9CHL1   H4A  598   1.913   1.824   9.879 -0.6647  0.9360  1.4254
    9CHL1   H4B  599   1.910   1.995   9.854  0.8152  0.5111 -0.1516
    9CHL1    C5  600   2.024   1.897   9.699 -0.0634  0.7485 -0.4492
    9CHL1    C6  601   1.975   1.990   9.609  0.0978 -0.2823 -0.2811
    9CHL1    H6  602   1.892   2.054   9.641 -0.4173 -0.8559 -0.4447
    9CHL1    C7  603   2.016   1.987   9.468  0.1586  0.2016  0.4882
    9CHL1   H7A  604   1.918   1.982   9.415 -1.4019 -1.7602  3.2881
    9CHL1   H7B  605   2.064   2.084   9.443  1.2247  0.3943  3.0271
    9CHL1    C8  606   2.086   1.847   9.435  0.0364 -0.3996  0.6338
    9CHL1    H8  607   2.004   1.772   9.436  0.3486 -0.7442  0.2795
    9CHL1   C14  608   2.161   1.861   9.302  0.6397  0.0602 -0.2544
    9CHL1   H14  609   2.250   1.925   9.317  2.1840 -2.2356  1.0194
    9CHL1   C15  610   2.088   1.921   9.172  0.3147  0.4936  0.3708
    9CHL1  H15A  611   1.992   1.865   9.170 -0.5109  1.8659  0.2836
    9CHL1  H15B  612   2.067   2.030   9.180 -1.3094  0.1680  0.8448
    9CHL1   C16  613   2.181   1.885   9.053  0.8179 -0.4605 -0.7291
    9CHL1  H16A  614   2.114   1.846   8.974 -0.3093  2.8048 -1.5300
    9CHL1  H16B  615   2.230   1.979   9.022 -1.0318  0.7575 -0.1156
    9CHL1   C17  616   2.293   1.791   9.111 -0.7498  0.0489 -0.4911
    9CHL1   H17  617   2.382   1.851   9.138 -1.4400 -0.1898  2.7601
    9CHL1   C13  618   2.244   1.737   9.247 -0.1181  0.0392 -0.5234
    9CHL1   C18  619   2.153   1.618   9.229  0.1915  0.2606  0.1868
    9CHL1  H18A  620   2.214   1.529   9.203  2.7058  2.0048 -0.2229
    9CHL1  H18B  621   2.078   1.596   9.309  0.9094  0.5878  0.9639
    9CHL1  H18C  622   2.099   1.640   9.134  1.1781  2.3283  0.0386
    9CHL1   C12  623   2.342   1.700   9.354 -0.4057 -0.6480  0.6970
    9CHL1  H12A  624   2.404   1.609   9.339  0.5369  0.0340  0.3469
    9CHL1  H12B  625   2.411   1.787   9.353 -1.1760 -0.0220  0.1139
    9CHL1   C11  626   2.277   1.684   9.494 -0.4519  0.1269  0.1624
    9CHL1  H11A  627   2.218   1.590   9.497  1.8404 -1.4307 -0.3988
    9CHL1  H11B  628   2.364   1.682   9.564 -0.2653 -0.2347 -0.0762
    9CHL1    C9  629   2.193   1.805   9.536 -0.1662 -0.5486 -0.3014
    9CHL1    H9  630   2.262   1.892   9.543 -0.6925 -0.0650 -0.9392
    9CHL1   C10  631   2.134   1.796   9.674 -0.1789  0.4254  0.1028
    9CHL1   C19  632   2.072   1.651   9.710  0.0737 -0.0722  0.0571
    9CHL1  H19A  633   2.152   1.575   9.706  0.9568  0.8784 -2.5758
    9CHL1  H19B  634   2.021   1.643   9.808 -2.2942  0.6623 -1.0354
    9CHL1  H19C  635   1.998   1.627   9.631 -0.2433 -2.0151  0.9100
    9CHL1    C1  636   2.250   1.814   9.781 -0.2624 -0.5264  0.5438
    9CHL1   H1A  637   2.323   1.730   9.770 -0.1955 -0.2392 -1.7262
    9CHL1   H1B  638   2.307   1.906   9.758 -0.7534 -0.4911 -0.6016
    9CHL1    C2  639   2.199   1.811   9.927 -0.3239 -0.7594  0.1375
    9CHL1   H2A  640   2.290   1.834   9.987 -0.8043 -0.1118  0.6234
    9CHL1   H2B  641   2.164   1.714   9.969  3.2797 -1.8562  0.9838
    9CHL1   C20  642   2.342   1.686   9.007  0.0124  0.7572 -0.3537
    9CHL1   H20  643   2.264   1.611   8.984  1.3932 -0.3982 -1.5208
    9CHL1   C21  644   2.466   1.606   9.062  0.6032  0.0359  0.2245
    9CHL1  H21A  645   2.504   1.532   8.988  4.4729 -0.3790  2.3436
    9CHL1  H21B  646   2.452   1.555   9.160  0.3833 -0.0060  0.1711
    9CHL1  H21C  647   2.546   1.682   9.074  0.3915  0.1111  1.2857
    9CHL1   C22  648   2.373   1.754   8.871  0.0936 -0.0312  0.3315
    9CHL1  H22A  649   2.283   1.806   8.831 -0.0708  0.2265  1.0315
    9CHL1  H22B  650   2.434   1.844   8.891  1.2797 -1.3224  2.9645
    9CHL1   C23  651   2.426   1.660   8.764  0.5183 -0.1799 -0.4930
    9CHL1  H23A  652   2.530   1.634   8.794  0.9050  1.0792 -0.6971
    9CHL1  H23B  653   2.358   1.573   8.772  0.0974  0.1450 -0.5154
    9CHL1   C24  654   2.414   1.714   8.623 -0.2932  0.9941  1.4984
    9CHL1  H24A  655   2.310   1.751   8.608 -0.0722  1.0665 -0.0776
    9CHL1  H24B  656   2.493   1.791   8.608  0.4425 -0.3510 -2.7493
    9CHL1   C25  657   2.448   1.598   8.519  0.1112 -0.0385 -0.0496
    9CHL1   H25  658   2.381   1.510   8.534  0.3311 -0.4473 -1.3666
    9CHL1   C26  659   2.426   1.648   8.378  0.0512  0.2830  0.2168
    9CHL1  H26A  660   2.323   1.687   8.364 -0.3118 -0.4316  0.7740
    9CHL1  H26B  661   2.500   1.727   8.354  0.9052 -0.5991 -0.1188
    9CHL1  H26C  662   2.440   1.564   8.306  1.6654  0.5942  0.1451
    9CHL1   C27  663   2.592   1.540   8.542  0.4874  0.0744  0.6123
    9CHL1  H27A  664   2.606   1.509   8.647 -0.1861  0.3035  0.7723
    9CHL1  H27B  665   2.593   1.452   8.473 -2.9064  1.6200 -1.6739
    9CHL1  H27C  666   2.660   1.615   8.496  2.2161 -0.6974  1.8078
   10CHL1    C3  667   0.974   0.594  10.035 -0.3518 -0.1924  0.3502
   10CHL1    H3  668   1.075   0.557  10.009 -1.1385 -0.2801 -3.0124
   10CHL1    O3  669   0.956   0.567  10.175  0.1508 -0.2971  0.0092
   10CHL1   H3'  670   0.864   0.588  10.194  0.0972 -0.7019  0.2274
   10CHL1    C4  671   0.959   0.744  10.001 -0.0822 -1.0591 -0.1686
   10CHL1   H4A  672   0.851   0.770  10.014  0.7716  2.2404  1.4990
   10CHL1   H4B  673   1.023   0.810  10.063 -3.0418  0.9807  0.9801
   10CHL1    C5  674   0.991   0.748   9.846 -0.0640  0.3031 -0.4410
   10CHL1    C6  675   1.100   0.813   9.809 -0.3260  0.3770 -0.3307
   10CHL1    H6  676   1.160   0.866   9.885  0.0941  1.4720 -1.4088
   10CHL1    C7  677   1.139   0.840   9.663 -0.1686  0.3798 -0.1736
   10CHL1   H7A  678   1.172   0.946   9.654 -1.9166  0.8649 -1.5411
   10CHL1   H7B  679   1.224   0.774   9.636  1.4739  1.4882  1.9397
   10CHL1    C8  680   1.023   0.793   9.565  0.7003 -0.8113  0.3899
   10CHL1    H8  681   0.952   0.878   9.564 -0.5985 -1.8610 -0.1476
   10CHL1   C14  682   1.079   0.775   9.421  0.6215 -0.1070  0.2728
   10CHL1   H14  683   1.155   0.694   9.426  1.5989  0.8300  1.0090
   10CHL1   C15  684   1.162   0.880   9.356  0.5754 -0.3679  0.0707
   10CHL1  H15A  685   1.126   0.985   9.355  0.7755 -0.1766 -4.0195
   10CHL1  H15B  686   1.262   0.889   9.403  0.5815 -0.7843  0.1415
   10CHL1   C16  687   1.167   0.843   9.204  0.1246  0.1420 -0.5484
   10CHL1  H16A  688   1.144   0.935   9.145 -0.0391  0.6429  0.2833
   10CHL1  H16B  689   1.267   0.801   9.178 -0.5013 -1.9962  0.3292
   10CHL1   C17  690   1.059   0.731   9.183 -0.1633  0.0988  1.0452
   10CHL1   H17  691   1.118   0.638   9.197  0.4879  0.1227 -1.1884
   10CHL1   C13  692   0.981   0.736   9.315 -0.0560  0.3686 -0.0139
   10CHL1   C18  693   0.866   0.843   9.297 -0.3756  0.5073 -0.1011
   10CHL1  H18A  694   0.895   0.933   9.239 -2.3013  2.6938  2.1368
   10CHL1  H18B  695   0.783   0.800   9.236  0.8453  1.2227 -2.3808
   10CHL1  H18C  696   0.821   0.872   9.394 -2.2077  0.8169 -0.9965
   10CHL1   C12  697   0.921   0.601   9.363  0.4268  0.3578  0.0313
   10CHL1  H12A  698   0.850   0.561   9.288 -0.1373  0.7955  0.3202
   10CHL1  H12B  699   1.002   0.529   9.385  0.9335  1.5936  2.7604
   10CHL1   C11  700   0.846   0.606   9.498 -0.0239  0.4837  0.2557
   10CHL1  H11A  701   0.757   0.672   9.486  1.0159  1.6170 -1.8941
   10CHL1  H11B  702   0.800   0.508   9.523 -0.4203  0.6776  0.2922
   10CHL1    C9  703   0.953   0.657   9.604 -0.3942  0.4883  0.6686
   10CHL1    H9  704   1.037   0.585   9.594 -1.1614 -0.2018 -1.1544
   10CHL1   C10  705   0.902   0.665   9.750  0.4994 -1.0090  0.1824
   10CHL1   C19  706   0.758   0.727   9.742 -0.0488  0.5968 -0.1860
   10CHL1  H19A  707   0.719   0.754   9.842 -0.1215  1.0354 -0.3293
   10CHL1  H19B  708   0.770   0.819   9.680  1.7529 -0.6675 -1.8398
   10CHL1  H19C  709   0.678   0.666   9.696  0.5542 -1.0355  0.8447
   10CHL1    C1  710   0.889   0.525   9.802 -0.1582  0.0899  0.6702
   10CHL1   H1A  711   0.812   0.468   9.745 -0.0834  0.2051  0.4513
   10CHL1   H1B  712   0.986   0.480   9.771 -0.3971  0.0976 -0.1196
   10CHL1    C2  713   0.867   0.515   9.957 -0.0013 -0.2976 -0.8636
   10CHL1   H2A  714   0.876   0.408   9.985 -0.8886 -0.1538  0.0496
   10CHL1   H2B  715   0.763   0.546   9.981  0.5002 -0.4164  1.7895
   10CHL1   C20  716   1.000   0.731   9.044  0.1689 -0.2441 -0.6091
   10CHL1   H20  717   0.959   0.834   9.034 -1.8259 -1.0601 -1.2911
   10CHL1   C21  718   0.884   0.630   9.028  0.6420  0.1438 -0.0161
   10CHL1  H21A  719   0.932   0.530   9.036 -3.7991 -2.2227 -0.1319
   10CHL1  H21B  720   0.830   0.650   8.933 -2.4883  0.2725  1.6543
   10CHL1  H21C  721   0.810   0.640   9.110  1.4340  1.8347  0.5330
   10CHL1   C22  722   1.113   0.727   8.940 -0.3033 -0.4271  0.1366
   10CHL1  H22A  723   1.207   0.778   8.972 -0.6009 -1.1186  2.2036
   10CHL1  H22B  724   1.140   0.620   8.928 -2.2212 -1.0790  1.1515
   10CHL1   C23  725   1.082   0.785   8.794 -0.0481  0.4957 -0.0250
   10CHL1  H23A  726   1.001   0.730   8.742  2.1666 -4.3487  0.9960
   10CHL1  H23B  727   1.054   0.892   8.806  2.6356  1.2128  0.6312
   10CHL1   C24  728   1.200   0.788   8.698  0.3223 -0.0027 -0.0880
   10CHL1  H24A  729   1.276   0.853   8.747 -0.3442  1.2229 -0.6285
   10CHL1  H24B  730   1.245   0.687   8.702  1.6764  0.5894  0.5369
   10CHL1   C25  731   1.180   0.836   8.552  0.5848  0.3275 -0.3689
   10CHL1   H25  732   1.281   0.849   8.507  0.1345  0.3328 -1.3983
   10CHL1   C26  733   1.108   0.742   8.456  0.4413 -0.3743  0.0389
   10CHL1  H26A  734   1.114   0.806   8.365 -0.0166  1.5937  1.3339
   10CHL1  H26B  735   1.162   0.649   8.429  0.7577 -0.4068  0.7705
   10CHL1  H26C  736   1.002   0.728   8.488  1.0148 -1.3251  1.6371
   10CHL1   C27  737   1.125   0.976   8.545  0.6701 -0.0881  0.0778
   10CHL1  H27A  738   1.014   0.980   8.559  0.5550  0.8280 -0.9687
   10CHL1  H27B  739   1.163   1.048   8.620  0.5718  0.1069 -0.0602
   10CHL1  H27C  740   1.144   1.023   8.446 -1.6183  2.6315  0.7929
   11CHL1    C3  741   3.893   4.635   9.850 -0.1230  1.0455 -0.4289
   11CHL1    H3  742   3.796   4.688   9.838 -0.9292 -0.4521 -0.7463
   11CHL1    O3  743   3.897   4.599   9.991 -0.4346 -0.8301  0.3657
   11CHL1   H3'  744   3.951   4.521  10.001 -1.1641 -1.4208 -0.2173
   11CHL1    C4  745   3.904   4.508   9.766  0.3460  0.5831 -0.1056
   11CHL1   H4A  746   3.995   4.448   9.785 -0.2193 -0.8291 -1.5744
   11CHL1   H4B  747   3.818   4.444   9.795  2.1611 -1.7648  0.3614
   11CHL1    C5  748   3.886   4.551   9.616  0.1252  0.5452 -0.0803
   11CHL1    C6  749   3.786   4.513   9.540 -0.3523 -0.0868 -0.2296
   11CHL1    H6  750   3.705   4.451   9.581 -0.1669 -0.4560 -0.4194
   11CHL1    C7  751   3.771   4.545   9.393 -0.4440 -0.8958 -0.4674
   11CHL1   H7A  752   3.749   4.451   9.337 -0.3526 -0.9260 -0.4524
   11CHL1   H7B  753   3.688   4.616   9.377 -0.8206 -1.3043 -0.3323
   11CHL1    C8  754   3.906   4.602   9.335 -0.1712  0.2345 -0.4435
   11CHL1    H8  755   3.981   4.520   9.332 -0.9658 -0.6642  1.8353
   11CHL1   C14  756   3.881   4.655   9.194  0.6059  0.9937  0.3583
   11CHL1   H14  757   3.799   4.729   9.199 -0.5636 -0.1665 -1.0332
   11CHL1   C15  758   3.828   4.546   9.093  0.7182 -0.1746 -0.6467
   11CHL1  H15A  759   3.877   4.446   9.091 -0.3366 -0.7240 -3.1318
   11CHL1  H15B  760   3.724   4.514   9.117  0.7374  0.3274  0.1182
   11CHL1   C16  761   3.853   4.607   8.958 -0.2441 -0.4286  0.2985
   11CHL1  H16A  762   3.921   4.540   8.903  0.6159 -0.0747  0.9041
   11CHL1  H16B  763   3.763   4.638   8.901 -0.1581 -2.5454 -1.0717
   11CHL1   C17  764   3.941   4.738   8.984  0.1489  1.0520  0.0497
   11CHL1   H17  765   3.859   4.812   8.994 -0.4217  0.1765  3.0550
   11CHL1   C13  766   4.002   4.718   9.125 -0.3121 -0.7925 -0.6680
   11CHL1   C18  767   4.115   4.612   9.123 -0.2205 -0.0053 -0.5124
   11CHL1  H18A  768   4.094   4.524   9.058 -1.9758  1.8894 -2.6721
   11CHL1  H18B  769   4.198   4.673   9.081 -0.4036  1.4290  1.0997
   11CHL1  H18C  770   4.155   4.593   9.225 -0.0476  1.4474 -0.2980
   11CHL1   C12  771   4.050   4.831   9.213  0.2923 -0.4750  0.2857
   11CHL1  H12A  772   4.142   4.877   9.171 -0.3377  0.5014 -0.0492
   11CHL1  H12B  773   3.976   4.914   9.205 -0.0803 -0.9614 -2.5740
   11CHL1   C11  774   4.073   4.802   9.361  0.2140 -0.0117  0.0277
   11CHL1  H11A  775   4.168   4.744   9.363 -0.2981 -1.0579 -1.9348
   11CHL1  H11B  776   4.085   4.895   9.420 -1.0504  0.4724 -0.4317
   11CHL1    C9  777   3.963   4.709   9.427  0.3553  0.9085 -0.8687
   11CHL1    H9  778   3.877   4.779   9.438 -1.0112 -0.9830  1.3362
   11CHL1   C10  779   3.996   4.648   9.574  0.4501 -0.0860  0.2419
   11CHL1   C19  780   4.138   4.585   9.568 -0.5028  0.3221 -0.6405
   11CHL1  H19A  781   4.218   4.652   9.531  0.0313  0.0355 -0.0036
   11CHL1  H19B  782   4.167   4.547   9.668  0.1011 -1.0140 -1.2997
   11CHL1  H19C  783   4.137   4.489   9.511 -2.0832 -0.4255  0.5467
   11CHL1    C1  784   3.994   4.768   9.671 -0.0372  0.0168  0.5250
   11CHL1   H1A  785   4.073   4.840   9.643 -0.9111  0.1930 -1.7285
   11CHL1   H1B  786   3.906   4.833   9.650  0.5887  0.5006 -0.6291
   11CHL1    C2  787   4.005   4.730   9.817  0.3601  0.2158  0.0345
   11CHL1   H2A  788   4.002   4.814   9.890  0.1803  0.3838 -0.1651
   11CHL1   H2B  789   4.099   4.678   9.845  1.0165  2.0767  1.5166
   11CHL1   C20  790   4.030   4.789   8.864  0.9846 -0.5356  0.6838
   11CHL1   H20  791   4.132   4.745   8.864  0.5387 -1.6155  1.1168
   11CHL1   C21  792   4.041   4.945   8.877 -0.0865 -0.8014 -0.3133
   11CHL1  H21A  793   4.114   4.992   8.808  0.7280  0.8578  1.5724
   11CHL1  H21B  794   4.092   4.962   8.975 -0.3125 -0.3794 -0.2625
   11CHL1  H21C  795   3.941   4.990   8.857  1.2024  1.0286 -3.1299
   11CHL1   C22  796   3.969   4.766   8.729 -0.4033  0.2820 -0.4591
   11CHL1  H22A  797   3.926   4.665   8.710  0.9942 -0.4015 -0.0655
   11CHL1  H22B  798   3.895   4.848   8.720 -0.2626  0.4482 -0.1159
   11CHL1   C23  799   4.060   4.784   8.607 -0.4492  0.3385 -0.3097
   11CHL1  H23A  800   4.100   4.887   8.618 -1.2021  0.5153  1.0129
   11CHL1  H23B  801   4.148   4.717   8.600  0.1083  1.0972 -0.6793
   11CHL1   C24  802   3.973   4.776   8.485 -0.2875 -0.4421  0.8473
   11CHL1  H24A  803   3.953   4.670   8.461  0.3873 -0.4551  0.3297
   11CHL1  H24B  804   3.867   4.804   8.504 -0.5499 -0.9705  0.2086
   11CHL1   C25  805   4.025   4.857   8.364 -0.2138 -0.0734  0.1309
   11CHL1   H25  806   4.042   4.963   8.393  0.7169 -0.5845  1.5772
   11CHL1   C26  807   4.158   4.794   8.319 -0.2072  0.3305 -0.5813
   11CHL1  H26A  808   4.145   4.697   8.266  1.0814  0.8406 -1.9035
   11CHL1  H26B  809   4.210   4.865   8.252  1.9908  0.5463  1.2585
   11CHL1  H26C  810   4.235   4.791   8.399 -0.7263  2.8124  0.0840
   11CHL1   C27  811   3.930   4.864   8.244  0.6037 -0.0481 -0.0071
   11CHL1  H27A  812   3.911   4.769   8.191  0.0201  0.7244 -1.2483
   11CHL1  H27B  813   3.829   4.892   8.280 -0.4597 -2.8583 -0.5546
   11CHL1  H27C  814   3.968   4.942   8.174  0.4262  0.3591  0.3434
   12CHL1    C3  815   0.317   3.609  10.046 -0.0143  0.2597 -0.2604
   12CHL1    H3  816   0.319   3.715  10.011  3.6823  1.1027  1.9342
   12CHL1    O3  817   0.314   3.610  10.185 -0.2855 -0.3421 -0.3532
   12CHL1   H3'  818   0.391   3.562  10.215 -1.6721 -1.7361  1.1557
   12CHL1    C4  819   0.195   3.524   9.998 -0.3807 -0.0441 -0.2297
   12CHL1   H4A  820   0.212   3.421  10.035  0.3550  0.0695 -0.2375
   12CHL1   H4B  821   0.098   3.554  10.042 -1.3657 -2.0838 -0.8991
   12CHL1    C5  822   0.193   3.508   9.842 -0.7178 -0.0055 -0.2937
   12CHL1    C6  823   0.087   3.540   9.764  0.2743 -0.7185 -0.5642
   12CHL1    H6  824  -0.006   3.577   9.810  2.1388  1.8967  1.4594
   12CHL1    C7  825   0.072   3.540   9.620  0.4123  0.4368 -0.0704
   12CHL1   H7A  826  -0.021   3.485   9.592  1.4004 -0.4597 -1.7285
   12CHL1   H7B  827   0.051   3.640   9.575 -0.4557  0.8329  1.1550
   12CHL1    C8  828   0.190   3.465   9.552 -0.1625 -0.0255 -0.7418
   12CHL1    H8  829   0.179   3.355   9.557  0.7996 -0.1880 -1.8170
   12CHL1   C14  830   0.198   3.517   9.410 -0.0188  0.2367 -0.0674
   12CHL1   H14  831   0.213   3.628   9.410 -0.0406  0.2499 -1.0304
   12CHL1   C15  832   0.077   3.507   9.309 -0.6782 -0.1268  0.9320
   12CHL1  H15A  833   0.037   3.404   9.298 -2.0717  0.6532 -3.2687
   12CHL1  H15B  834  -0.005   3.581   9.318  0.1274  0.7008  1.6480
   12CHL1   C16  835   0.142   3.530   9.172 -0.5121 -0.5071  0.6020
   12CHL1  H16A  836   0.119   3.452   9.097  0.9463 -0.6798  0.3204
   12CHL1  H16B  837   0.100   3.625   9.130  0.4175 -0.8704 -1.2468
   12CHL1   C17  838   0.297   3.531   9.180  0.0249 -0.0050 -0.2953
   12CHL1   H17  839   0.322   3.639   9.185  0.4078 -0.1227  0.7869
   12CHL1   C13  840   0.323   3.468   9.321 -0.6761 -0.3060 -0.4472
   12CHL1   C18  841   0.318   3.311   9.314  0.0945 -0.1370 -0.3297
   12CHL1  H18A  842   0.311   3.262   9.413 -0.5020  1.7983  0.6202
   12CHL1  H18B  843   0.225   3.283   9.260 -0.9490 -1.1935  1.9009
   12CHL1  H18C  844   0.405   3.277   9.253  2.9070  1.8078  2.3409
   12CHL1   C12  845   0.451   3.504   9.398  0.5775 -0.3196 -0.7376
   12CHL1  H12A  846   0.542   3.470   9.344  0.6142  0.9567 -1.5085
   12CHL1  H12B  847   0.464   3.613   9.410 -0.4189 -0.1915 -0.7493
   12CHL1   C11  848   0.455   3.447   9.537 -0.2010  0.0235 -0.1758
   12CHL1  H11A  849   0.463   3.336   9.524  1.1837  0.1062 -0.1766
   12CHL1  H11B  850   0.544   3.482   9.592 -0.6053  1.4059 -0.3676
   12CHL1    C9  851   0.324   3.492   9.621  0.1301 -0.6409 -0.0678
   12CHL1    H9  852   0.333   3.603   9.625  1.1359 -0.6875 -0.7132
   12CHL1   C10  853   0.331   3.461   9.780 -0.1630  0.1926  0.0318
   12CHL1   C19  854   0.354   3.315   9.806  0.5762 -0.5221 -0.0539
   12CHL1  H19A  855   0.367   3.300   9.916  1.4877  1.9845  0.2462
   12CHL1  H19B  856   0.271   3.251   9.769 -0.6075 -0.3281  2.0621
   12CHL1  H19C  857   0.452   3.298   9.757  1.4976  3.9343 -0.1112
   12CHL1    C1  858   0.447   3.539   9.845 -0.0583  0.1867 -0.5153
   12CHL1   H1A  859   0.539   3.497   9.799 -0.5055  1.3170 -2.5616
   12CHL1   H1B  860   0.443   3.646   9.814 -1.2973 -0.0295 -1.1875
   12CHL1    C2  861   0.455   3.552   9.996 -0.1003 -0.2156  0.3471
   12CHL1   H2A  862   0.544   3.603  10.039 -0.7980  0.8051  0.6274
   12CHL1   H2B  863   0.456   3.450  10.040 -2.7296 -0.2626  0.4502
   12CHL1   C20  864   0.365   3.474   9.058  0.2201 -0.1608 -0.1835
   12CHL1   H20  865   0.345   3.365   9.058 -0.1176 -0.0996 -0.2313
   12CHL1   C21  866   0.519   3.493   9.052 -0.2058  0.1612  0.7378
   12CHL1  H21A  867   0.562   3.428   8.973  2.4878  0.3763  1.9160
   12CHL1  H21B  868   0.571   3.460   9.144  1.3568  1.8909  0.5532
   12CHL1  H21C  869   0.540   3.602   9.037  1.2716 -0.2286 -0.2558
   12CHL1   C22  870   0.307   3.524   8.920  0.6102  0.4021  1.0900
   12CHL1  H22A  871   0.200   3.494   8.929  1.2516 -1.8080  2.0328
   12CHL1  H22B  872   0.316   3.634   8.907  1.0282  0.2259 -0.2658
   12CHL1   C23  873   0.365   3.460   8.801 -0.1533  0.0377  0.1309
   12CHL1  H23A  874   0.471   3.493   8.794 -0.8734  2.2715 -1.0733
   12CHL1  H23B  875   0.360   3.349   8.810 -2.3410  0.1520  0.7367
   12CHL1   C24  876   0.295   3.501   8.674  0.2592  0.5597  1.0504
   12CHL1  H24A  877   0.187   3.473   8.672  0.0846  0.9875 -2.4089
   12CHL1  H24B  878   0.290   3.611   8.656 -1.6152  0.4651  0.7204
   12CHL1   C25  879   0.348   3.441   8.542  0.4025  0.2616  0.5929
   12CHL1   H25  880   0.301   3.498   8.458  0.5617 -0.3560  0.0764
   12CHL1   C26  881   0.499   3.444   8.527 -0.5906 -0.4264  0.1394
   12CHL1  H26A  882   0.543   3.372   8.599  0.8467  0.4255  0.1461
   12CHL1  H26B  883   0.535   3.421   8.425  1.1798  0.3434  0.5542
   12CHL1  H26C  884   0.532   3.549   8.544  0.1878 -0.4057 -1.3448
   12CHL1   C27  885   0.309   3.296   8.518 -0.4091  0.4134 -0.1842
   12CHL1  H27A  886   0.332   3.228   8.602  1.4239 -1.7788 -2.2859
   12CHL1  H27B  887   0.202   3.293   8.487 -0.6231 -0.4705  0.5821
   12CHL1  H27C  888   0.371   3.256   8.434 -0.0608  3.7038 -1.6623
   13CHL1    C3  889   6.462   6.579   9.711 -0.1166  0.3221 -0.0279
   13CHL1    H3  890   6.447   6.688   9.692  3.4193  0.9786  0.2298
   13CHL1    O3  891   6.474   6.565   9.847 -0.8200  0.2145  0.3255
   13CHL1   H3'  892   6.488   6.471   9.864  1.5516  0.2625 -0.9787
   13CHL1    C4  893   6.340   6.507   9.659 -0.3188  1.0676 -0.2993
   13CHL1   H4A  894   6.343   6.402   9.697 -1.5133  1.0066 -0.3451
   13CHL1   H4B  895   6.263   6.567   9.712  0.8405  0.4455  2.2465
   13CHL1    C5  896   6.326   6.506   9.508 -0.3247  0.5019 -0.0006
   13CHL1    C6  897   6.218   6.559   9.450  0.1610  0.3407 -0.2411
   13CHL1    H6  898   6.128   6.600   9.499 -0.1329 -2.2291  1.5749
   13CHL1    C7  899   6.206   6.571   9.302  1.2316 -0.2075  0.1221
   13CHL1   H7A  900   6.110   6.524   9.275  1.6772 -0.6196 -0.8126
   13CHL1   H7B  901   6.186   6.677   9.273 -2.3667 -0.9498 -0.5055
   13CHL1    C8  902   6.315   6.507   9.219 -0.1229 -0.3204  0.0265
   13CHL1    H8  903   6.309   6.397   9.224 -2.0038 -0.2655 -0.3534
   13CHL1   C14  904   6.307   6.561   9.075  0.0716 -0.3242  0.1876
   13CHL1   H14  905   6.319   6.671   9.090  0.8809 -0.3679 -0.0746
   13CHL1   C15  906   6.175   6.548   8.991 -0.4592 -0.5715 -0.2113
   13CHL1  H15A  907   6.134   6.446   9.007  0.4327 -0.7775  0.8946
   13CHL1  H15B  908   6.099   6.622   9.022 -0.4989  0.1279 -1.8673
   13CHL1   C16  909   6.218   6.575   8.845 -0.0627 -0.3020  0.4801
   13CHL1  H16A  910   6.191   6.488   8.780  0.0794  0.3189 -0.4308
   13CHL1  H16B  911   6.181   6.674   8.813  0.1414  0.4462  2.4427
   13CHL1   C17  912   6.381   6.574   8.849 -0.1234  0.1653  0.8695
   13CHL1   H17  913   6.412   6.679   8.870  0.6413 -0.1537  1.4208
   13CHL1   C13  914   6.418   6.512   8.985 -0.2469  0.2945 -0.2423
   13CHL1   C18  915   6.405   6.353   8.969  0.5906  0.5016 -0.9419
   13CHL1  H18A  916   6.385   6.307   9.068 -2.9815  1.2830 -1.1379
   13CHL1  H18B  917   6.321   6.332   8.899  0.0492  1.3916 -0.5849
   13CHL1  H18C  918   6.501   6.317   8.929  0.5116 -0.3943 -0.3637
   13CHL1   C12  919   6.552   6.552   9.044 -0.4775  0.0941  0.2410
   13CHL1  H12A  920   6.631   6.499   8.985 -0.8728  0.5825 -0.7520
   13CHL1  H12B  921   6.568   6.657   9.013 -2.4956  0.2692 -0.3312
   13CHL1   C11  922   6.565   6.507   9.188 -0.0164 -0.9212 -0.6394
   13CHL1  H11A  923   6.570   6.396   9.188  0.0000 -0.9215 -0.4913
   13CHL1  H11B  924   6.659   6.546   9.233 -0.4434  1.6517 -1.8534
   13CHL1    C9  925   6.445   6.549   9.281  0.2517  0.3971  0.1745
   13CHL1    H9  926   6.452   6.660   9.287  2.7311  0.3485 -0.4054
   13CHL1   C10  927   6.458   6.477   9.425  0.0368 -0.5378  0.9179
   13CHL1   C19  928   6.477   6.320   9.429 -0.0903  0.3430  0.1688
   13CHL1  H19A  929   6.568   6.290   9.374  1.4518  2.1232  1.6268
   13CHL1  H19B  930   6.479   6.283   9.534 -1.4077  2.9778  1.2328
   13CHL1  H19C  931   6.394   6.276   9.370 -0.2659  1.1798 -0.2186
   13CHL1    C1  932   6.579   6.547   9.493 -0.6296  0.4715 -0.7000
   13CHL1   H1A  933   6.681   6.520   9.457  0.2679  2.4925  0.1588
   13CHL1   H1B  934   6.581   6.655   9.469 -0.3246  0.0837 -2.5899
   13CHL1    C2  935   6.592   6.530   9.650  0.0276 -0.3113 -0.5845
   13CHL1   H2A  936   6.687   6.581   9.678 -0.8907  1.5458 -0.7005
   13CHL1   H2B  937   6.603   6.423   9.678  1.7134  0.4188  1.8034
   13CHL1   C20  938   6.450   6.525   8.719  0.4403 -0.4634 -0.5008
   13CHL1   H20  939   6.439   6.416   8.707  0.7943 -0.2154 -4.2807
   13CHL1   C21  940   6.597   6.575   8.714  0.3541 -0.5584 -0.1815
   13CHL1  H21A  941   6.640   6.508   8.792  0.8338 -1.7025 -1.3993
   13CHL1  H21B  942   6.605   6.686   8.724  3.3508 -0.7862  0.8154
   13CHL1  H21C  943   6.645   6.552   8.617  1.0924  0.5856 -0.1133
   13CHL1   C22  944   6.378   6.580   8.592 -0.7591  0.8840  0.4718
   13CHL1  H22A  945   6.268   6.567   8.592 -0.5633 -1.6364 -1.8758
   13CHL1  H22B  946   6.394   6.690   8.583 -1.5432  0.8202 -4.4878
   13CHL1   C23  947   6.423   6.509   8.460 -0.3306 -0.7339 -0.4442
   13CHL1  H23A  948   6.530   6.535   8.445  1.0906 -4.8422  1.0455
   13CHL1  H23B  949   6.426   6.398   8.466  0.8717 -0.8039 -1.7058
   13CHL1   C24  950   6.346   6.538   8.335  0.2089 -0.2408 -0.2035
   13CHL1  H24A  951   6.240   6.506   8.344 -0.5401  1.5463 -1.9900
   13CHL1  H24B  952   6.342   6.647   8.317  1.9205 -0.3077 -1.1800
   13CHL1   C25  953   6.391   6.455   8.215  0.6724 -0.4894  0.5485
   13CHL1   H25  954   6.502   6.454   8.209  0.7076  0.2111  1.0194
   13CHL1   C26  955   6.330   6.309   8.218  0.4176 -0.2855 -0.5090
   13CHL1  H26A  956   6.351   6.271   8.116  0.7239 -2.7299  0.3925
   13CHL1  H26B  957   6.385   6.240   8.286 -1.4658  0.1451  1.5917
   13CHL1  H26C  958   6.223   6.307   8.250 -0.0285 -1.4701 -1.9672
   13CHL1   C27  959   6.352   6.518   8.080 -0.3369 -0.2242 -0.2956
   13CHL1  H27A  960   6.367   6.450   7.993 -3.3984 -0.0385 -1.0793
   13CHL1  H27B  961   6.244   6.538   8.096 -0.9781 -3.5253  0.3296
   13CHL1  H27C  962   6.413   6.607   8.053 -2.3170  1.6120  1.0038
   14CHL1    C3  963   5.276   4.500   9.987  0.0433 -0.3217  0.5203
   14CHL1    H3  964   5.228   4.402   9.967 -0.9530  0.4418 -1.0424
   14CHL1    O3  965   5.260   4.538  10.126  0.0580 -0.3777 -0.3247
   14CHL1   H3'  966   5.262   4.633  10.136  0.7004 -0.3253 -0.8841
   14CHL1    C4  967   5.422   4.502   9.954 -0.0602  0.5966  0.9740
   14CHL1   H4A  968   5.473   4.596   9.985 -0.5242  0.7675  1.2325
   14CHL1   H4B  969   5.472   4.428  10.020 -0.4751 -1.2298 -0.6534
   14CHL1    C5  970   5.447   4.450   9.813  0.2799 -1.3098 -0.6390
   14CHL1    C6  971   5.519   4.347   9.774  0.3014  0.0323 -0.8656
   14CHL1    H6  972   5.573   4.280   9.843  0.8751  0.8964 -0.4586
   14CHL1    C7  973   5.550   4.317   9.631 -0.2226 -0.3578 -0.0915
   14CHL1   H7A  974   5.659   4.295   9.619  0.0251  0.6667  0.1753
   14CHL1   H7B  975   5.489   4.226   9.611 -0.0310 -0.4102 -0.4438
   14CHL1    C8  976   5.521   4.428   9.535  0.9312 -0.4036  0.1438
   14CHL1    H8  977   5.598   4.507   9.548 -1.1138  1.4846  1.6773
   14CHL1   C14  978   5.520   4.386   9.392 -0.6665 -0.7332  0.0913
   14CHL1   H14  979   5.432   4.322   9.372 -0.9455  0.1216 -1.5729
   14CHL1   C15  980   5.643   4.305   9.352  0.6545 -0.3134 -0.2983
   14CHL1  H15A  981   5.738   4.341   9.398  1.7056 -1.7665 -1.2362
   14CHL1  H15B  982   5.635   4.197   9.377 -0.9062  0.0760  1.0319
   14CHL1   C16  983   5.641   4.311   9.196  0.0355 -0.3889 -0.4827
   14CHL1  H16A  984   5.741   4.342   9.160 -0.0664 -1.0096 -1.3505
   14CHL1  H16B  985   5.611   4.213   9.153 -0.3461  0.1358 -1.4497
   14CHL1   C17  986   5.529   4.416   9.158  0.2130 -0.2904  0.5821
   14CHL1   H17  987   5.443   4.350   9.136  0.8238 -0.7472 -0.5419
   14CHL1   C13  988   5.497   4.493   9.289  0.0741  0.4724 -0.0479
   14CHL1   C18  989   5.601   4.606   9.311 -0.7749  0.2477 -0.4028
   14CHL1  H18A  990   5.597   4.690   9.239 -1.0393  1.1024  0.5865
   14CHL1  H18B  991   5.595   4.665   9.405  1.5254  0.1250 -0.1285
   14CHL1  H18C  992   5.702   4.565   9.292 -0.7795  0.2604 -0.4548
   14CHL1   C12  993   5.354   4.549   9.312 -0.3282  0.9884  0.6080
   14CHL1  H12A  994   5.336   4.629   9.237 -1.4974  0.7005  0.5593
   14CHL1  H12B  995   5.274   4.472   9.308  0.0187  0.6826 -0.8307
   14CHL1   C11  996   5.340   4.597   9.458  0.2881  0.1818 -0.0298
   14CHL1  H11A  997   5.384   4.698   9.472 -2.6971  1.4238  1.1218
   14CHL1  H11B  998   5.236   4.628   9.477 -0.8051 -2.4993 -1.0737
   14CHL1    C9  999   5.381   4.491   9.562 -1.3147  0.1629  0.2456
   14CHL1    H9 1000   5.312   4.405   9.544 -1.2735  0.2612 -0.4077
   14CHL1   C10 1001   5.368   4.540   9.710 -0.0436  0.4787 -0.6978
   14CHL1   C19 1002   5.433   4.676   9.716  0.1644 -0.4165  0.1208
   14CHL1  H19A 1003   5.384   4.755   9.655  0.1531 -3.2885 -4.0189
   14CHL1  H19B 1004   5.434   4.727   9.815 -0.8258 -0.7230  0.3049
   14CHL1  H19C 1005   5.539   4.670   9.686  0.7144 -1.9641  2.1760
   14CHL1    C1 1006   5.219   4.553   9.750  0.0989 -0.1434  0.0186
   14CHL1   H1A 1007   5.167   4.623   9.682 -1.2841  0.1750  1.3404
   14CHL1   H1B 1008   5.170   4.456   9.729  1.7285 -0.7898 -1.0421
   14CHL1    C2 1009   5.201   4.600   9.896  0.6246  0.1869  0.0185
   14CHL1   H2A 1010   5.095   4.605   9.927  0.1413 -1.9358 -1.1234
   14CHL1   H2B 1011   5.242   4.704   9.901 -0.7769  0.6887  2.4409
   14CHL1   C20 1012   5.567   4.498   9.035 -0.4109 -0.6223  0.2447
   14CHL1   H20 1013   5.651   4.566   9.059  0.7572 -1.0103 -2.3584
   14CHL1   C21 1014   5.445   4.573   8.980 -0.4870  0.2594 -0.2485
   14CHL1  H21A 1015   5.462   4.622   8.881 -0.1336  3.4997  1.2840
   14CHL1  H21B 1016   5.414   4.663   9.039 -1.5649  0.7983 -1.5732
   14CHL1  H21C 1017   5.352   4.513   8.982  0.0759 -0.6898  2.8711
   14CHL1   C22 1018   5.627   4.414   8.921  0.2847  0.2404 -0.4757
   14CHL1  H22A 1019   5.647   4.478   8.833 -0.2081 -0.9414 -1.4673
   14CHL1  H22B 1020   5.725   4.370   8.950  1.0412  0.7616 -2.1561
   14CHL1   C23 1021   5.537   4.296   8.884 -0.5221  0.5393  0.1970
   14CHL1  H23A 1022   5.520   4.226   8.969 -1.6619  0.0450 -0.4132
   14CHL1  H23B 1023   5.442   4.337   8.845  0.4650  2.0942 -0.6900
   14CHL1   C24 1024   5.603   4.208   8.776 -0.1608  0.8341 -0.3627
   14CHL1  H24A 1025   5.615   4.277   8.690  0.3889 -1.6298 -2.3831
   14CHL1  H24B 1026   5.694   4.155   8.812  1.2679  1.7158 -2.4901
   14CHL1   C25 1027   5.515   4.082   8.730 -0.0902 -0.0814 -0.5919
   14CHL1   H25 1028   5.507   4.015   8.819  3.1323  0.7931  0.5150
   14CHL1   C26 1029   5.376   4.119   8.672 -0.4349  0.0182 -0.7739
   14CHL1  H26A 1030   5.320   4.193   8.733  0.9812  1.8805 -1.6318
   14CHL1  H26B 1031   5.388   4.169   8.573 -2.6199  0.3659 -0.9228
   14CHL1  H26C 1032   5.310   4.030   8.671 -1.1859  0.5146  0.8389
   14CHL1   C27 1033   5.590   3.987   8.629 -0.2675 -0.2015 -0.7242
   14CHL1  H27A 1034   5.589   4.021   8.524 -1.0722  0.5033 -0.5132
   14CHL1  H27B 1035   5.691   3.962   8.668 -0.5309 -0.3398 -0.1013
   14CHL1  H27C 1036   5.536   3.890   8.628 -0.9316  0.1347  0.2782
   15CHL1    C3 1037   5.816   3.606  10.036 -0.5694  0.2033 -0.0511
   15CHL1    H3 1038   5.808   3.706   9.989  1.0318  0.0273 -0.7665
   15CHL1    O3 1039   5.810   3.622  10.182 -0.1027  0.3408  0.6018
   15CHL1   H3' 1040   5.808   3.531  10.215 -1.9916 -0.1154 -0.6305
   15CHL1    C4 1041   5.711   3.514   9.978 -0.4825  0.0997  0.0892
   15CHL1   H4A 1042   5.710   3.412  10.023  0.6708  0.4382  0.9276
   15CHL1   H4B 1043   5.612   3.557  10.006 -0.8435 -0.2860 -0.5571
   15CHL1    C5 1044   5.718   3.525   9.826 -1.0492  0.8622  0.2529
   15CHL1    C6 1045   5.621   3.567   9.747 -0.2534 -0.4123 -0.0530
   15CHL1    H6 1046   5.538   3.612   9.804 -0.4697 -2.4766  1.3959
   15CHL1    C7 1047   5.630   3.572   9.599 -0.6926  0.1938 -0.3284
   15CHL1   H7A 1048   5.531   3.566   9.549 -0.1887 -0.0763 -1.3171
   15CHL1   H7B 1049   5.665   3.674   9.575 -1.3125  0.7444  1.0105
   15CHL1    C8 1050   5.729   3.469   9.548 -0.6743 -0.3401  1.1285
   15CHL1    H8 1051   5.690   3.366   9.559 -0.3382 -0.6127 -0.0903
   15CHL1   C14 1052   5.759   3.497   9.396  0.1816  0.2615 -0.5114
   15CHL1   H14 1053   5.809   3.597   9.391  0.9305 -0.1107 -0.6489
   15CHL1   C15 1054   5.637   3.510   9.306 -0.4072 -0.4238  0.3519
   15CHL1  H15A 1055   5.566   3.424   9.305  1.8786 -2.4285  0.8000
   15CHL1  H15B 1056   5.583   3.607   9.314  0.9440  0.3535  0.2746
   15CHL1   C16 1057   5.703   3.501   9.165  0.5041  0.1178  0.6649
   15CHL1  H16A 1058   5.650   3.431   9.097  1.2555  1.5213 -1.4459
   15CHL1  H16B 1059   5.687   3.598   9.114  2.8759 -0.9222 -2.3623
   15CHL1   C17 1060   5.847   3.468   9.192  0.5566 -0.1290 -0.4199
   15CHL1   H17 1061   5.901   3.563   9.212 -1.6741  0.6329  2.6778
   15CHL1   C13 1062   5.849   3.403   9.333  0.1187  0.1991  1.1879
   15CHL1   C18 1063   5.798   3.254   9.327  0.2183 -0.1396  0.7730
   15CHL1  H18A 1064   5.864   3.191   9.263 -0.8583  0.6149 -1.1536
   15CHL1  H18B 1065   5.772   3.206   9.424 -1.8098 -1.5398 -0.3696
   15CHL1  H18C 1066   5.705   3.252   9.267  1.7602  1.1125 -1.8362
   15CHL1   C12 1067   5.980   3.408   9.412 -0.0559  0.6607 -0.0560
   15CHL1  H12A 1068   6.045   3.330   9.364 -1.6076 -0.5584 -0.2567
   15CHL1  H12B 1069   6.027   3.508   9.403 -1.0784  1.5552  3.2343
   15CHL1   C11 1070   5.965   3.366   9.559 -0.2272  0.3462  0.0370
   15CHL1  H11A 1071   5.932   3.261   9.568 -2.2602  1.0754  2.1534
   15CHL1  H11B 1072   6.062   3.370   9.614  1.1475 -2.8132 -1.8876
   15CHL1    C9 1073   5.862   3.466   9.621 -1.3262  0.2361 -0.6272
   15CHL1    H9 1074   5.912   3.565   9.607 -0.0869  0.0390  1.8709
   15CHL1   C10 1075   5.846   3.457   9.774  0.3209  0.4206  0.0357
   15CHL1   C19 1076   5.844   3.308   9.815  0.1290 -0.3694  0.0581
   15CHL1  H19A 1077   5.940   3.263   9.782 -0.0499 -1.3356  0.8249
   15CHL1  H19B 1078   5.844   3.293   9.925  2.2460  0.3685  0.1965
   15CHL1  H19C 1079   5.754   3.252   9.782 -1.2008  1.2709  0.7210
   15CHL1    C1 1080   5.971   3.527   9.841  0.3101  0.8235 -0.1501
   15CHL1   H1A 1081   6.055   3.457   9.825  0.2860  1.0143 -1.1649
   15CHL1   H1B 1082   6.004   3.623   9.797 -1.1942  1.8284  0.8429
   15CHL1    C2 1083   5.963   3.551   9.992  0.5785  0.2579 -0.7246
   15CHL1   H2A 1084   6.038   3.628  10.022  2.0417  0.0956 -3.6332
   15CHL1   H2B 1085   5.986   3.459  10.050 -1.1404 -1.2767 -2.3631
   15CHL1   C20 1086   5.914   3.384   9.077  0.1389  0.0948  0.1329
   15CHL1   H20 1087   5.870   3.283   9.067  0.7184 -0.1102 -0.4282
   15CHL1   C21 1088   6.067   3.360   9.106  0.0593  0.4890 -0.4223
   15CHL1  H21A 1089   6.113   3.307   9.020 -0.9455 -3.0618  1.0350
   15CHL1  H21B 1090   6.061   3.277   9.180 -0.9002  0.2088 -0.7961
   15CHL1  H21C 1091   6.124   3.445   9.150  0.6760 -0.2816  0.3206
   15CHL1   C22 1092   5.885   3.444   8.938  0.9381 -0.4612 -0.1532
   15CHL1  H22A 1093   5.779   3.476   8.929  0.7441 -1.2122 -0.6086
   15CHL1  H22B 1094   5.943   3.537   8.923  0.5954 -0.2950 -0.4638
   15CHL1   C23 1095   5.914   3.351   8.819  0.0165  0.0234 -0.1797
   15CHL1  H23A 1096   5.897   3.398   8.719  1.2058 -1.3533 -1.0506
   15CHL1  H23B 1097   6.020   3.319   8.828 -0.1225 -0.7261 -1.0458
   15CHL1   C24 1098   5.820   3.234   8.816  0.3363 -0.4238 -0.7610
   15CHL1  H24A 1099   5.853   3.159   8.892  0.2837  0.1052 -0.2093
   15CHL1  H24B 1100   5.715   3.265   8.835  0.1744 -0.8788 -0.9015
   15CHL1   C25 1101   5.816   3.173   8.676 -0.5983  0.8142  0.4077
   15CHL1   H25 1102   5.784   3.245   8.597  3.5712 -0.0041 -2.3454
   15CHL1   C26 1103   5.957   3.127   8.640 -0.1045 -0.5843  0.1365
   15CHL1  H26A 1104   5.957   3.076   8.542  2.5693  2.9912 -1.9510
   15CHL1  H26B 1105   6.017   3.219   8.626 -0.0390 -0.6500 -0.0152
   15CHL1  H26C 1106   5.998   3.058   8.717  0.4993  0.0916  0.4375
   15CHL1   C27 1107   5.723   3.053   8.663 -0.3962  0.5521  0.6778
   15CHL1  H27A 1108   5.626   3.099   8.693 -0.4395  0.3226  0.8882
   15CHL1  H27B 1109   5.726   3.014   8.559  0.1280 -1.1651  1.2983
   15CHL1  H27C 1110   5.752   2.972   8.732  0.3974 -0.4171 -0.7398
   16CHL1    C3 1111   1.179   3.099  10.308 -0.6139  0.2853 -0.4943
   16CHL1    H3 1112   1.201   2.990  10.309 -1.7225 -0.0864  3.7426
   16CHL1    O3 1113   1.236   3.146  10.430 -0.0157 -0.0017  0.5753
   16CHL1   H3' 1114   1.206   3.236  10.445 -0.5056 -0.0478 -0.0647
   16CHL1    C4 1115   1.249   3.165  10.183  0.5110 -0.0019 -0.5798
   16CHL1   H4A 1116   1.248   3.273  10.211  1.3943 -0.5256  1.6443
   16CHL1   H4B 1117   1.356   3.136  10.186  0.3964 -0.6611 -1.9500
   16CHL1    C5 1118   1.189   3.126  10.050 -0.1633 -0.0303 -0.2924
   16CHL1    C6 1119   1.259   3.081   9.943 -0.4078 -0.1737  1.0544
   16CHL1    H6 1120   1.369   3.083   9.947 -0.0513  0.1795 -3.6088
   16CHL1    C7 1121   1.189   3.069   9.813  0.3798 -0.0210 -0.0965
   16CHL1   H7A 1122   1.249   3.113   9.730 -1.5085 -0.0381 -1.5230
   16CHL1   H7B 1123   1.194   2.960   9.792 -1.0906 -0.2904  0.8164
   16CHL1    C8 1124   1.039   3.116   9.797 -0.4495 -0.5684  0.5413
   16CHL1    H8 1125   1.031   3.226   9.799 -1.5807 -0.6332  0.0553
   16CHL1   C14 1126   0.972   3.068   9.669  0.4901  0.7193  0.3365
   16CHL1   H14 1127   0.984   2.958   9.677  1.5475  0.6530 -1.6436
   16CHL1   C15 1128   1.045   3.098   9.535 -0.2107 -0.2811 -0.7345
   16CHL1  H15A 1129   1.060   3.208   9.532  1.0581 -0.3311  1.2860
   16CHL1  H15B 1130   1.142   3.050   9.512  0.3229  1.5672 -2.5653
   16CHL1   C16 1131   0.938   3.052   9.431 -0.1896  0.4935  0.6899
   16CHL1  H16A 1132   0.921   3.137   9.361  1.2901  0.7007  0.5639
   16CHL1  H16B 1133   0.968   2.968   9.365  2.9769  1.7222  0.3935
   16CHL1   C17 1134   0.808   3.034   9.513 -0.7600 -0.4840 -0.4430
   16CHL1   H17 1135   0.815   2.926   9.538  0.5479  0.2365  2.8462
   16CHL1   C13 1136   0.824   3.101   9.651  0.0368  0.1886 -0.3464
   16CHL1   C18 1137   0.805   3.262   9.637  0.6203 -0.3435  0.0470
   16CHL1  H18A 1138   0.840   3.308   9.732 -0.4519 -0.0893  0.3266
   16CHL1  H18B 1139   0.857   3.298   9.546  0.3747 -2.1320 -0.8591
   16CHL1  H18C 1140   0.697   3.277   9.621  0.6221 -0.7510 -0.3911
   16CHL1   C12 1141   0.748   3.052   9.777  0.3297 -0.8429  1.0463
   16CHL1  H12A 1142   0.638   3.063   9.789  0.4726  0.0991  1.5640
   16CHL1  H12B 1143   0.773   2.944   9.787  2.0101 -0.6251 -0.4005
   16CHL1   C11 1144   0.808   3.103   9.908  0.1074 -0.0281  0.7710
   16CHL1  H11A 1145   0.796   3.213   9.907  0.7493  0.0473 -0.7142
   16CHL1  H11B 1146   0.747   3.061   9.991  0.6149  1.1941  1.7950
   16CHL1    C9 1147   0.961   3.072   9.924 -0.2798 -0.1281 -0.0062
   16CHL1    H9 1148   0.979   2.963   9.937  1.6479  0.0915 -0.4227
   16CHL1   C10 1149   1.033   3.138  10.052  0.3564 -0.0340 -0.5553
   16CHL1   C19 1150   0.995   3.287  10.066 -0.1431  0.0939  0.0545
   16CHL1  H19A 1151   1.049   3.333  10.152 -1.3117 -1.3404  1.6315
   16CHL1  H19B 1152   1.016   3.344   9.973 -0.7214 -1.4717 -1.0869
   16CHL1  H19C 1153   0.889   3.307  10.092  0.3818 -0.0599  2.5942
   16CHL1    C1 1154   0.970   3.064  10.182 -0.1446 -0.1482  0.7683
   16CHL1   H1A 1155   0.861   3.086  10.178 -0.2744 -0.7968  0.7287
   16CHL1   H1B 1156   0.974   2.953  10.183 -1.1709 -0.2014  0.5300
   16CHL1    C2 1157   1.033   3.115  10.317  0.2684 -0.4912 -0.4073
   16CHL1   H2A 1158   0.997   3.053  10.402 -1.4838 -2.2691 -2.3266
   16CHL1   H2B 1159   1.017   3.223  10.338  0.8179 -0.5235  0.2128
   16CHL1   C20 1160   0.689   3.066   9.427 -0.0584  0.1194  0.5588
   16CHL1   H20 1161   0.676   3.175   9.406 -0.9604  0.0651  0.7704
   16CHL1   C21 1162   0.565   3.015   9.501  1.2077  0.0219  0.2112
   16CHL1  H21A 1163   0.555   3.074   9.595  0.9532 -1.2436  1.0024
   16CHL1  H21B 1164   0.568   2.906   9.523 -0.5669  0.3303  2.2961
   16CHL1  H21C 1165   0.468   3.027   9.449  0.6736 -0.8689  0.9687
   16CHL1   C22 1166   0.689   2.991   9.291  0.8187  0.1664 -0.2715
   16CHL1  H22A 1167   0.779   3.027   9.235  1.1879 -0.5041 -0.1215
   16CHL1  H22B 1168   0.690   2.881   9.303  0.0332  0.2499  0.6696
   16CHL1   C23 1169   0.573   3.037   9.196 -0.4433  0.8764 -0.1877
   16CHL1  H23A 1170   0.477   3.004   9.240  0.3977  0.7611  1.6542
   16CHL1  H23B 1171   0.573   3.148   9.195  0.3646  0.8905 -1.0925
   16CHL1   C24 1172   0.597   2.983   9.052 -0.0372 -0.2448 -0.9336
   16CHL1  H24A 1173   0.706   2.991   9.030 -0.3048 -0.4023 -2.4080
   16CHL1  H24B 1174   0.563   2.877   9.046  0.6516 -0.8316  2.7953
   16CHL1   C25 1175   0.527   3.073   8.947 -0.9210 -0.2796 -0.0909
   16CHL1   H25 1176   0.567   3.177   8.956 -0.0048 -0.5630 -0.6992
   16CHL1   C26 1177   0.563   3.013   8.799  0.1577  0.2576 -0.1761
   16CHL1  H26A 1178   0.504   2.920   8.785 -2.6905  2.1459 -1.6801
   16CHL1  H26B 1179   0.548   3.077   8.709 -1.8182 -1.5071 -1.1975
   16CHL1  H26C 1180   0.672   2.990   8.801  0.2980  0.9104 -0.3051
   16CHL1   C27 1181   0.369   3.081   8.967 -1.3624  0.2886  0.5999
   16CHL1  H27A 1182   0.353   3.105   9.074 -2.3026  0.2124  0.4796
   16CHL1  H27B 1183   0.323   3.152   8.896 -1.3100 -0.3273 -0.0614
   16CHL1  H27C 1184   0.317   2.986   8.941 -0.1239 -0.7140  1.5999
   17CHL1    C3 1185   1.071   0.243  10.123 -0.0291 -0.5447 -0.2099
   17CHL1    H3 1186   1.038   0.348  10.107  0.4453 -0.0522  1.7535
   17CHL1    O3 1187   1.061   0.207  10.262 -0.0471 -0.5371 -0.4847
   17CHL1   H3' 1188   0.966   0.202  10.275 -0.0468 -1.7117 -0.7453
   17CHL1    C4 1189   0.986   0.145  10.037 -0.1379 -0.8309  0.2203
   17CHL1   H4A 1190   1.025   0.044  10.063  0.4776 -0.3299  1.3102
   17CHL1   H4B 1191   0.879   0.167  10.051 -1.3086 -4.2346 -2.0695
   17CHL1    C5 1192   0.999   0.161   9.886  0.0958  0.9265 -0.0414
   17CHL1    C6 1193   0.888   0.169   9.814 -1.1664  0.0786  0.7576
   17CHL1    H6 1194   0.790   0.170   9.864 -0.6294 -0.3868  1.8435
   17CHL1    C7 1195   0.890   0.181   9.661 -0.4921  0.0143 -0.3420
   17CHL1   H7A 1196   0.807   0.114   9.629 -0.3037 -0.4152  0.0528
   17CHL1   H7B 1197   0.861   0.287   9.646  0.0352  0.7094  2.8920
   17CHL1    C8 1198   1.027   0.137   9.609  0.0074  0.4099 -0.1239
   17CHL1    H8 1199   1.036   0.026   9.605  0.6644  0.4630 -0.3487
   17CHL1   C14 1200   1.043   0.190   9.466  0.0847 -0.2101 -0.0081
   17CHL1   H14 1201   1.034   0.300   9.476 -3.8156 -0.3363 -0.7256
   17CHL1   C15 1202   0.922   0.162   9.368  0.1696  0.4590  0.1901
   17CHL1  H15A 1203   0.884   0.060   9.391  1.0745  0.4980  2.0713
   17CHL1  H15B 1204   0.838   0.228   9.398  1.2510  1.1382  1.8863
   17CHL1   C16 1205   0.985   0.171   9.227  0.8486 -0.1571 -0.7667
   17CHL1  H16A 1206   0.966   0.078   9.170 -1.8396  0.1089 -0.4501
   17CHL1  H16B 1207   0.930   0.252   9.174  0.8858  1.2289  1.1980
   17CHL1   C17 1208   1.136   0.204   9.240  0.7539 -0.0676  0.4976
   17CHL1   H17 1209   1.141   0.315   9.238  6.1685 -0.0233  1.0556
   17CHL1   C13 1210   1.170   0.154   9.384  0.2288  0.4178  0.0337
   17CHL1   C18 1211   1.177  -0.005   9.392 -0.3794  0.1962  0.0548
   17CHL1  H18A 1212   1.088  -0.058   9.353  0.0071 -0.5153  0.1288
   17CHL1  H18B 1213   1.267  -0.039   9.336 -0.4493  0.5413 -0.2749
   17CHL1  H18C 1214   1.188  -0.039   9.497 -0.9293 -2.1553 -0.6027
   17CHL1   C12 1215   1.286   0.225   9.459  0.0969 -1.0512  0.9604
   17CHL1  H12A 1216   1.386   0.188   9.425  0.4701  0.9023 -0.2339
   17CHL1  H12B 1217   1.282   0.334   9.437  1.8048 -1.1326  0.0683
   17CHL1   C11 1218   1.279   0.198   9.611 -1.0578 -1.0191 -0.3745
   17CHL1  H11A 1219   1.318   0.095   9.629  3.0841  0.4416  0.1222
   17CHL1  H11B 1220   1.348   0.272   9.657 -0.8321 -2.0382  1.0014
   17CHL1    C9 1221   1.142   0.202   9.692 -0.2940 -0.1886  0.3276
   17CHL1    H9 1222   1.113   0.309   9.689  1.2681  0.2532  0.0182
   17CHL1   C10 1223   1.146   0.159   9.840 -0.9090 -0.1859  0.7410
   17CHL1   C19 1224   1.219   0.019   9.848 -0.7000  0.4364 -0.3521
   17CHL1  H19A 1225   1.329   0.035   9.838 -0.6024 -1.1356 -2.4007
   17CHL1  H19B 1226   1.200  -0.034   9.943 -2.7622  1.5929 -0.0646
   17CHL1  H19C 1227   1.184  -0.053   9.771  1.3953 -0.3839 -0.6169
   17CHL1    C1 1228   1.222   0.261   9.932  0.2988  0.1489  0.1591
   17CHL1   H1A 1229   1.329   0.273   9.905  1.1334 -2.2210  2.0863
   17CHL1   H1B 1230   1.176   0.362   9.920 -0.2701 -0.2079 -0.7789
   17CHL1    C2 1231   1.219   0.240  10.081 -0.5107  0.6495 -0.0685
   17CHL1   H2A 1232   1.270   0.320  10.139 -0.3373  0.3239  0.2384
   17CHL1   H2B 1233   1.281   0.151  10.108  1.3775  1.0852 -2.6395
   17CHL1   C20 1234   1.223   0.149   9.127 -0.0706  0.5220  0.1721
   17CHL1   H20 1235   1.206   0.039   9.130 -2.1888  0.8337  1.9979
   17CHL1   C21 1236   1.377   0.176   9.146 -0.3890  0.0188 -0.4974
   17CHL1  H21A 1237   1.394   0.281   9.179 -0.6390 -0.5006  1.3884
   17CHL1  H21B 1238   1.424   0.136   9.054  0.1489 -2.8612  0.9055
   17CHL1  H21C 1239   1.430   0.118   9.224 -2.1406 -1.4640 -0.3491
   17CHL1   C22 1240   1.179   0.208   8.986 -0.4555  1.4096  0.1435
   17CHL1  H22A 1241   1.071   0.185   8.983 -0.6832  2.3607  0.6738
   17CHL1  H22B 1242   1.181   0.319   8.976 -0.7182  1.2923 -1.5255
   17CHL1   C23 1243   1.259   0.151   8.868  0.0609 -0.6967  0.3934
   17CHL1  H23A 1244   1.355   0.206   8.868  0.2145 -0.8079  3.3027
   17CHL1  H23B 1245   1.280   0.044   8.891  2.2772 -0.2618  0.6144
   17CHL1   C24 1246   1.184   0.158   8.734 -0.5538  0.6303  0.3623
   17CHL1  H24A 1247   1.220   0.085   8.658 -2.2317  0.4915 -0.3333
   17CHL1  H24B 1248   1.080   0.134   8.763 -1.0293  2.0704 -0.0989
   17CHL1   C25 1249   1.182   0.299   8.672 -0.9406 -0.7597 -0.2945
   17CHL1   H25 1250   1.145   0.365   8.754  0.5122  0.0424 -0.2569
   17CHL1   C26 1251   1.324   0.341   8.629  0.1610 -0.0669  0.0836
   17CHL1  H26A 1252   1.363   0.261   8.561 -2.7488 -2.4605  1.0152
   17CHL1  H26B 1253   1.320   0.439   8.577  1.3586 -0.8470 -1.5758
   17CHL1  H26C 1254   1.380   0.354   8.724 -0.6304 -0.8673  0.6788
   17CHL1   C27 1255   1.090   0.293   8.550 -0.1758  0.0648 -0.0719
   17CHL1  H27A 1256   1.084   0.385   8.488 -0.2455  0.8421  1.0443
   17CHL1  H27B 1257   1.106   0.204   8.486 -1.2548  0.6539 -1.1937
   17CHL1  H27C 1258   0.985   0.298   8.584  0.1093  1.3089  0.7254
   18CHL1    C3 1259   2.701   6.795  10.152  0.4433  0.1377  0.9176
   18CHL1    H3 1260   2.693   6.888  10.092 -0.1222 -1.3828 -1.5207
   18CHL1    O3 1261   2.703   6.811  10.291  0.3385 -0.2362 -0.1667
   18CHL1   H3' 1262   2.758   6.889  10.307 -1.6078  1.1399  0.2255
   18CHL1    C4 1263   2.587   6.696  10.114 -0.7658 -0.3403 -0.5690
   18CHL1   H4A 1264   2.603   6.601  10.171  0.1937  1.1805  1.8751
   18CHL1   H4B 1265   2.492   6.726  10.162  0.7568  1.3806  1.6092
   18CHL1    C5 1266   2.588   6.672   9.965  0.2032  0.1300  0.5599
   18CHL1    C6 1267   2.486   6.707   9.891  0.9032  0.4267  0.1404
   18CHL1    H6 1268   2.393   6.743   9.939  0.5719  1.3453 -1.1285
   18CHL1    C7 1269   2.470   6.668   9.745 -0.3066  0.1224  0.5775
   18CHL1   H7A 1270   2.369   6.621   9.741 -0.1067 -0.2881  0.2573
   18CHL1   H7B 1271   2.455   6.760   9.685 -0.9957 -1.0975 -1.2128
   18CHL1    C8 1272   2.578   6.576   9.701  0.5933  0.3848  0.0432
   18CHL1    H8 1273   2.561   6.469   9.728  3.7109 -0.5623 -1.3185
   18CHL1   C14 1274   2.574   6.586   9.547 -0.4537 -0.6310  0.1376
   18CHL1   H14 1275   2.611   6.688   9.526  2.2849 -1.8572 -1.5291
   18CHL1   C15 1276   2.442   6.571   9.472  0.3367  0.0430  0.0753
   18CHL1  H15A 1277   2.375   6.494   9.516 -0.4923  1.2768  1.0615
   18CHL1  H15B 1278   2.395   6.671   9.490  2.3134  0.6731  2.2365
   18CHL1   C16 1279   2.480   6.548   9.325 -0.2362  0.0170 -0.3221
   18CHL1  H16A 1280   2.436   6.451   9.295  0.9477 -1.4302  2.3073
   18CHL1  H16B 1281   2.455   6.632   9.257 -3.6297 -0.6171 -0.0041
   18CHL1   C17 1282   2.636   6.544   9.330 -0.5401 -0.3431 -0.3699
   18CHL1   H17 1283   2.663   6.651   9.320  0.0551 -0.5110 -0.6114
   18CHL1   C13 1284   2.676   6.505   9.481  0.4164  0.5881  0.3787
   18CHL1   C18 1285   2.648   6.362   9.503  0.0483  0.2002 -0.2660
   18CHL1  H18A 1286   2.730   6.305   9.454  1.2867  0.6058  1.2530
   18CHL1  H18B 1287   2.645   6.334   9.610 -0.0022  2.4752  0.3773
   18CHL1  H18C 1288   2.545   6.334   9.471 -0.4039 -0.4495  1.6361
   18CHL1   C12 1289   2.817   6.533   9.531  0.4177  0.3309 -0.1289
   18CHL1  H12A 1290   2.889   6.458   9.491 -0.3322 -1.4715  1.7130
   18CHL1  H12B 1291   2.850   6.635   9.503  1.1661 -0.3209 -1.7789
   18CHL1   C11 1292   2.834   6.531   9.687 -0.4432  0.4547  0.0438
   18CHL1  H11A 1293   2.829   6.423   9.713  3.1306  0.0671 -0.4629
   18CHL1  H11B 1294   2.936   6.563   9.715  0.2736 -1.8694  0.3276
   18CHL1    C9 1295   2.720   6.612   9.761 -0.7039 -0.0060  0.3315
   18CHL1    H9 1296   2.727   6.716   9.723  0.2319 -0.0548  0.3387
   18CHL1   C10 1297   2.722   6.608   9.914  0.2883 -0.0060 -0.1964
   18CHL1   C19 1298   2.741   6.459   9.961  0.5891 -0.1863 -0.0737
   18CHL1  H19A 1299   2.845   6.425   9.941  0.1326 -1.3741 -0.5861
   18CHL1  H19B 1300   2.711   6.448  10.067  0.4107  1.4540  0.0660
   18CHL1  H19C 1301   2.660   6.403   9.907  0.5207 -0.4667  0.3144
   18CHL1    C1 1302   2.840   6.702   9.963 -0.1075  0.2009 -0.2294
   18CHL1   H1A 1303   2.930   6.641   9.939 -0.2221  0.0182 -0.1967
   18CHL1   H1B 1304   2.838   6.789   9.894 -0.8466 -1.2535 -2.1321
   18CHL1    C2 1305   2.831   6.737  10.109 -0.3807  0.1978  0.2816
   18CHL1   H2A 1306   2.910   6.811  10.136 -1.6453  1.2550  1.1496
   18CHL1   H2B 1307   2.843   6.645  10.169  1.3995  0.3825  0.2805
   18CHL1   C20 1308   2.707   6.473   9.219  0.0430 -0.0859  0.3241
   18CHL1   H20 1309   2.688   6.364   9.228 -1.9668  0.2886  1.2472
   18CHL1   C21 1310   2.864   6.500   9.201  0.2058 -1.0082 -0.7295
   18CHL1  H21A 1311   2.888   6.429   9.119 -0.7621  0.3753 -2.2811
   18CHL1  H21B 1312   2.927   6.485   9.291 -1.3166 -1.9302  0.2229
   18CHL1  H21C 1313   2.887   6.601   9.159  0.3311 -0.6375  0.2034
   18CHL1   C22 1314   2.630   6.503   9.081  0.1166  0.5442 -0.8391
   18CHL1  H22A 1315   2.520   6.494   9.092  0.1623  1.0326  0.1655
   18CHL1  H22B 1316   2.640   6.607   9.045  0.5359  0.4405 -1.0405
   18CHL1   C23 1317   2.680   6.405   8.965  0.0537 -0.0676 -0.6484
   18CHL1  H23A 1318   2.790   6.400   8.949  0.1164 -1.0738 -0.0095
   18CHL1  H23B 1319   2.645   6.308   9.005 -0.8901  0.1471 -0.9493
   18CHL1   C24 1320   2.615   6.456   8.840  1.0976 -0.4485 -0.7442
   18CHL1  H24A 1321   2.506   6.462   8.859  1.2884 -1.9443  1.1725
   18CHL1  H24B 1322   2.647   6.558   8.809 -0.4437  0.4253  0.4102
   18CHL1   C25 1323   2.630   6.363   8.716  0.2885  0.6097 -0.0572
   18CHL1   H25 1324   2.740   6.352   8.712 -0.0052 -3.2887 -0.7960
   18CHL1   C26 1325   2.559   6.230   8.738 -0.8360 -0.0328 -0.4792
   18CHL1  H26A 1326   2.450   6.237   8.756 -0.9995 -1.9460 -0.5010
   18CHL1  H26B 1327   2.572   6.160   8.652 -2.0073  1.1210 -1.6358
   18CHL1  H26C 1328   2.608   6.182   8.826 -1.1296  0.7944  0.1478
   18CHL1   C27 1329   2.597   6.433   8.581 -0.2801  0.0854 -0.0889
   18CHL1  H27A 1330   2.504   6.491   8.598  1.4322  2.7574  0.7663
   18CHL1  H27B 1331   2.670   6.513   8.554 -1.6888  0.7447 -2.1456
   18CHL1  H27C 1332   2.587   6.371   8.490  4.6284 -2.1605  0.5643
   19CHL1    C3 1333   5.027   0.661  10.088 -0.1233  0.8088 -0.3330
   19CHL1    H3 1334   4.921   0.694  10.085 -1.7603 -3.3329  2.2209
   19CHL1    O3 1335   5.026   0.637  10.226  0.6334  0.8603  0.5881
   19CHL1   H3' 1336   5.120   0.625  10.244  0.7881 -0.6584 -0.9796
   19CHL1    C4 1337   5.043   0.523  10.016  0.1096 -0.5400  0.0310
   19CHL1   H4A 1338   5.149   0.495  10.035  0.5561  1.7977  1.3553
   19CHL1   H4B 1339   4.962   0.457  10.053 -0.3196 -1.0369 -1.7137
   19CHL1    C5 1340   5.034   0.554   9.867  0.6031 -0.5570 -0.3072
   19CHL1    C6 1341   4.935   0.488   9.800 -0.2454 -0.5999  0.2733
   19CHL1    H6 1342   4.869   0.416   9.851 -0.1254 -1.3485 -0.6116
   19CHL1    C7 1343   4.928   0.500   9.651  0.2782 -0.3389 -0.2310
   19CHL1   H7A 1344   4.907   0.410   9.588  0.0545 -0.3419 -0.1543
   19CHL1   H7B 1345   4.843   0.568   9.628  0.3152  0.3001  1.4039
   19CHL1    C8 1346   5.050   0.572   9.581 -0.5827 -0.6145  0.2316
   19CHL1    H8 1347   5.135   0.500   9.581  1.0605  0.8386  5.6652
   19CHL1   C14 1348   5.014   0.621   9.441 -0.0703 -0.6811  0.2331
   19CHL1   H14 1349   4.927   0.689   9.453 -0.9907 -1.8455  0.3146
   19CHL1   C15 1350   4.959   0.519   9.350  0.5914  0.7744 -0.1703
   19CHL1  H15A 1351   5.027   0.431   9.347 -1.0957 -0.5926 -0.0143
   19CHL1  H15B 1352   4.857   0.481   9.375  2.1493 -1.2347  4.1199
   19CHL1   C16 1353   4.963   0.588   9.209 -0.5404  0.1180 -0.3207
   19CHL1  H16A 1354   5.004   0.506   9.146 -0.6351  0.0835 -0.3376
   19CHL1  H16B 1355   4.862   0.621   9.177 -0.5897 -0.4838 -0.8015
   19CHL1   C17 1356   5.052   0.712   9.232  0.3567  0.7988 -0.1282
   19CHL1   H17 1357   4.980   0.797   9.237  0.1697  0.7025 -1.0559
   19CHL1   C13 1358   5.126   0.708   9.367  0.1334 -0.0922  0.2917
   19CHL1   C18 1359   5.251   0.612   9.354 -0.6910 -0.0015 -0.0520
   19CHL1  H18A 1360   5.342   0.659   9.312  0.3885 -0.4636  1.6765
   19CHL1  H18B 1361   5.272   0.574   9.456 -1.2368 -0.9198 -0.2708
   19CHL1  H18C 1362   5.233   0.524   9.289  4.0300  0.5823 -2.5596
   19CHL1   C12 1363   5.154   0.833   9.451 -0.6263  0.3578  0.5712
   19CHL1  H12A 1364   5.232   0.896   9.402 -0.1023 -0.2859  0.5665
   19CHL1  H12B 1365   5.062   0.896   9.452 -0.9604 -0.1190  0.3784
   19CHL1   C11 1366   5.193   0.803   9.597 -0.2835 -0.4486 -0.5648
   19CHL1  H11A 1367   5.294   0.757   9.594  1.3957  2.8932  0.0538
   19CHL1  H11B 1368   5.194   0.899   9.653  0.0118 -0.6036 -0.3020
   19CHL1    C9 1369   5.096   0.698   9.664 -0.7217  0.7007  0.7125
   19CHL1    H9 1370   5.009   0.766   9.667  1.0198  3.0956  0.4930
   19CHL1   C10 1371   5.130   0.658   9.813  0.3478  0.3278 -0.1497
   19CHL1   C19 1372   5.274   0.591   9.817 -0.4055 -0.0374 -0.5643
   19CHL1  H19A 1373   5.299   0.526   9.731  0.2113  0.1367 -0.5160
   19CHL1  H19B 1374   5.358   0.664   9.821  0.0153 -0.5733  2.0118
   19CHL1  H19C 1375   5.295   0.544   9.916 -0.3570 -0.5898 -0.8322
   19CHL1    C1 1376   5.127   0.787   9.899  0.2003 -0.7097 -0.0855
   19CHL1   H1A 1377   5.211   0.848   9.859 -0.7216 -0.1513 -1.2323
   19CHL1   H1B 1378   5.044   0.855   9.871  0.5628 -0.9834 -1.9982
   19CHL1    C2 1379   5.124   0.768  10.051  0.6786 -0.1830 -0.0392
   19CHL1   H2A 1380   5.116   0.868  10.097 -1.2136 -0.1742 -0.3148
   19CHL1   H2B 1381   5.225   0.730  10.078  1.3968  2.5805  1.5461
   19CHL1   C20 1382   5.144   0.729   9.116 -0.0757 -0.6279  0.3259
   19CHL1   H20 1383   5.215   0.648   9.092 -1.1500 -1.2843 -0.7458
   19CHL1   C21 1384   5.220   0.860   9.136  0.2984 -0.7776 -0.1912
   19CHL1  H21A 1385   5.292   0.852   9.220  0.9200  0.8760 -0.5440
   19CHL1  H21B 1386   5.147   0.936   9.171 -0.1869 -1.1198 -0.4505
   19CHL1  H21C 1387   5.279   0.895   9.049  2.5266 -0.5138  1.3502
   19CHL1   C22 1388   5.058   0.755   8.989  0.0915  0.2256  0.6226
   19CHL1  H22A 1389   5.011   0.655   8.983 -0.7960  0.3843  3.4932
   19CHL1  H22B 1390   4.976   0.829   9.003 -0.4075 -0.4195  1.1847
   19CHL1   C23 1391   5.124   0.767   8.849 -0.4577 -0.0850 -0.9489
   19CHL1  H23A 1392   5.123   0.876   8.832  0.0350 -0.0685 -0.8847
   19CHL1  H23B 1393   5.227   0.725   8.854 -1.0252 -1.3600  2.2767
   19CHL1   C24 1394   5.059   0.686   8.741 -0.2968 -0.0080 -0.1706
   19CHL1  H24A 1395   4.951   0.714   8.746 -0.1846  0.2119  1.6724
   19CHL1  H24B 1396   5.081   0.741   8.647  2.8643  1.2200  1.1200
   19CHL1   C25 1397   5.080   0.531   8.737  0.0120  0.3024  0.0514
   19CHL1   H25 1398   5.111   0.496   8.838 -1.6890  0.4504  0.6652
   19CHL1   C26 1399   4.941   0.454   8.736  0.2543 -0.2178  0.4823
   19CHL1  H26A 1400   4.902   0.438   8.633  0.2375 -0.8356  0.5792
   19CHL1  H26B 1401   4.967   0.356   8.782  2.1211 -0.6306 -1.3338
   19CHL1  H26C 1402   4.865   0.503   8.800 -1.4789 -2.7553  0.5344
   19CHL1   C27 1403   5.181   0.475   8.639 -0.6659 -0.0469 -0.6250
   19CHL1  H27A 1404   5.281   0.512   8.671 -0.3636 -3.3739  3.1134
   19CHL1  H27B 1405   5.177   0.364   8.636  0.0738 -0.0893 -4.6476
   19CHL1  H27C 1406   5.155   0.516   8.539 -1.3055  0.4445 -0.2686
   20CHL1    C3 1407   3.051   5.164  10.337 -0.0344 -0.3534  0.5285
   20CHL1    H3 1408   2.948   5.195  10.313  0.4983  1.8257  0.8657
   20CHL1    O3 1409   3.076   5.177  10.472  0.0463  0.0752 -0.2870
   20CHL1   H3' 1410   3.167   5.148  10.482 -0.0600 -0.1470  0.0514
   20CHL1    C4 1411   3.078   5.021  10.288  0.0976 -0.8334  0.2965
   20CHL1   H4A 1412   3.182   4.988  10.309  0.7779  0.8714 -0.2291
   20CHL1   H4B 1413   3.007   4.960  10.348  0.5311 -0.7689  0.8916
   20CHL1    C5 1414   3.057   5.016  10.135  0.2249 -0.0109 -0.6360
   20CHL1    C6 1415   2.966   4.934  10.078  0.5345  0.9271  0.3119
   20CHL1    H6 1416   2.905   4.860  10.132  2.0114 -1.6482 -1.2886
   20CHL1    C7 1417   2.942   4.932   9.934  0.2113  0.2062  0.3291
   20CHL1   H7A 1418   2.950   4.829   9.894  2.3320  0.1843  0.6973
   20CHL1   H7B 1419   2.841   4.973   9.912  0.5867  0.1942 -1.5728
   20CHL1    C8 1420   3.053   5.006   9.852  0.7020  0.1342  0.3390
   20CHL1    H8 1421   3.145   4.946   9.866 -1.1512 -3.2434 -0.9160
   20CHL1   C14 1422   3.005   5.004   9.707 -0.4693  0.3678  0.5566
   20CHL1   H14 1423   2.914   5.067   9.698 -0.8550 -0.0125  1.6490
   20CHL1   C15 1424   2.955   4.874   9.645 -0.5824 -0.2499  0.3983
   20CHL1  H15A 1425   3.029   4.795   9.671 -2.3225 -1.5145  1.7602
   20CHL1  H15B 1426   2.855   4.849   9.684 -0.7734 -0.1211 -0.0062
   20CHL1   C16 1427   2.955   4.903   9.496 -0.5076  1.0638 -0.0657
   20CHL1  H16A 1428   3.013   4.820   9.450  0.9541  3.0322 -1.9580
   20CHL1  H16B 1429   2.852   4.896   9.456  0.1387 -2.0352 -1.4841
   20CHL1   C17 1430   3.040   5.042   9.475 -0.2038 -0.3047 -0.3677
   20CHL1   H17 1431   2.968   5.127   9.472  2.0402  1.6690 -1.3147
   20CHL1   C13 1432   3.113   5.066   9.614  1.1809 -0.7136 -0.1317
   20CHL1   C18 1433   3.237   4.971   9.601 -0.7990  0.4802  0.2184
   20CHL1  H18A 1434   3.268   4.926   9.697  1.0264 -1.7547 -1.3232
   20CHL1  H18B 1435   3.209   4.877   9.549 -0.6873  0.0175  0.9852
   20CHL1  H18C 1436   3.321   5.020   9.546  0.9088  0.3668  2.5422
   20CHL1   C12 1437   3.133   5.211   9.662  0.8056  0.4491  0.1933
   20CHL1  H12A 1438   3.215   5.272   9.617  0.8479 -0.4186 -0.9357
   20CHL1  H12B 1439   3.042   5.272   9.644  0.0243 -0.8339 -0.2566
   20CHL1   C11 1440   3.169   5.227   9.814  0.0016 -0.5310  0.5290
   20CHL1  H11A 1441   3.274   5.191   9.816  0.0430 -0.5296 -0.6741
   20CHL1  H11B 1442   3.154   5.334   9.842 -1.0990 -0.4979 -0.1302
   20CHL1    C9 1443   3.085   5.142   9.909  0.4347 -0.1623  0.2452
   20CHL1    H9 1444   2.986   5.191   9.898  0.7409  0.3722 -0.1911
   20CHL1   C10 1445   3.135   5.137  10.059  0.3040 -0.0267  0.2139
   20CHL1   C19 1446   3.284   5.100  10.064  0.1351 -0.2092  0.5815
   20CHL1  H19A 1447   3.296   5.006  10.006 -0.2984 -0.2627  0.5711
   20CHL1  H19B 1448   3.347   5.174  10.010 -0.4065 -1.1619 -1.4711
   20CHL1  H19C 1449   3.327   5.090  10.166  3.6719  0.2723 -0.7394
   20CHL1    C1 1450   3.121   5.275  10.120  0.0065 -0.5554 -1.3905
   20CHL1   H1A 1451   3.200   5.340  10.076  2.3086 -2.4338 -0.2254
   20CHL1   H1B 1452   3.025   5.323  10.090 -0.6877 -0.6298  0.5695
   20CHL1    C2 1453   3.133   5.275  10.273 -0.1031  0.1939 -0.4853
   20CHL1   H2A 1454   3.098   5.370  10.317 -2.9279  0.2915 -2.6768
   20CHL1   H2B 1455   3.240   5.278  10.305  0.3462 -1.4927 -1.6482
   20CHL1   C20 1456   3.114   5.060   9.342  0.1124  0.6542  0.0669
   20CHL1   H20 1457   3.206   4.999   9.331  0.1996  1.0314 -1.6096
   20CHL1   C21 1458   3.161   5.206   9.329 -0.2384  0.3566  0.3680
   20CHL1  H21A 1459   3.081   5.279   9.351  1.1144  1.9195  0.3459
   20CHL1  H21B 1460   3.188   5.229   9.223 -1.9461 -1.2022 -0.4475
   20CHL1  H21C 1461   3.255   5.226   9.386  0.8548  0.8389 -1.4943
   20CHL1   C22 1462   3.031   5.020   9.219  0.0364  0.1907  0.0049
   20CHL1  H22A 1463   3.004   4.916   9.245 -0.1050  0.6948  2.0169
   20CHL1  H22B 1464   2.933   5.072   9.210 -0.9174 -1.0823  2.2406
   20CHL1   C23 1465   3.116   5.009   9.089 -0.0288  0.0383 -0.5693
   20CHL1  H23A 1466   3.165   5.104   9.059 -1.4625 -0.2668 -4.3248
   20CHL1  H23B 1467   3.204   4.947   9.119 -0.4200 -0.3928 -0.3055
   20CHL1   C24 1468   3.031   4.937   8.985 -0.1654 -0.0855 -0.2026
   20CHL1  H24A 1469   2.987   4.840   9.019  1.1307 -0.5836  0.1436
   20CHL1  H24B 1470   2.946   5.003   8.958 -1.5453 -1.0855  1.4820
   20CHL1   C25 1471   3.107   4.897   8.857  1.2661 -0.1095 -0.0606
   20CHL1   H25 1472   3.167   4.984   8.822  0.9098  0.2646  0.2457
   20CHL1   C26 1473   3.202   4.784   8.882  0.3948  0.0361  0.0925
   20CHL1  H26A 1474   3.145   4.709   8.940  0.2714 -0.5682 -0.8027
   20CHL1  H26B 1475   3.234   4.732   8.789 -1.8837 -2.4604  0.5988
   20CHL1  H26C 1476   3.286   4.827   8.942 -1.8097  2.6803  1.5200
   20CHL1   C27 1477   2.995   4.851   8.758 -0.0917 -0.0327 -0.0181
   20CHL1  H27A 1478   2.898   4.899   8.780  0.1573  0.2846  0.3923
   20CHL1  H27B 1479   3.029   4.850   8.652  1.0104 -0.5371  0.3230
   20CHL1  H27C 1480   2.986   4.741   8.776  1.4848 -0.0879  0.5730
   21CHL1    C3 1481   1.366   5.530  10.002  0.0435  0.9793  0.2491
   21CHL1    H3 1482   1.477   5.537  10.001  0.3631 -1.4431  3.0323
   21CHL1    O3 1483   1.327   5.566  10.136 -0.3930  0.1190  0.6358
   21CHL1   H3' 1484   1.383   5.630  10.181 -2.4079  0.6678  2.5108
   21CHL1    C4 1485   1.305   5.627   9.909 -0.2785  0.1963 -0.6900
   21CHL1   H4A 1486   1.197   5.613   9.929  0.3405 -2.3811  1.4632
   21CHL1   H4B 1487   1.329   5.731   9.938  1.8511 -0.2457 -0.6730
   21CHL1    C5 1488   1.328   5.605   9.761  0.0511 -0.5673  0.3900
   21CHL1    C6 1489   1.377   5.707   9.688 -0.3775 -0.5869  0.8941
   21CHL1    H6 1490   1.388   5.809   9.730  0.1065  0.0911 -0.7811
   21CHL1    C7 1491   1.399   5.705   9.540  0.3582  0.1191 -0.6166
   21CHL1   H7A 1492   1.345   5.793   9.499 -0.7749  0.1937  0.9579
   21CHL1   H7B 1493   1.509   5.713   9.524  0.4371  0.8708  0.2714
   21CHL1    C8 1494   1.339   5.575   9.476 -0.1896  0.3508 -0.1488
   21CHL1    H8 1495   1.229   5.580   9.484 -1.2320 -8.3943  0.7262
   21CHL1   C14 1496   1.380   5.549   9.339 -0.0050 -0.0922  0.1960
   21CHL1   H14 1497   1.491   5.555   9.350 -0.0669 -2.4402  4.7060
   21CHL1   C15 1498   1.336   5.660   9.234 -0.2944  0.8767  0.4905
   21CHL1  H15A 1499   1.231   5.685   9.261 -0.6107 -0.3260  0.4258
   21CHL1  H15B 1500   1.392   5.755   9.245  0.3623  1.0052 -2.8325
   21CHL1   C16 1501   1.354   5.593   9.101 -0.1461  0.3236 -0.1954
   21CHL1  H16A 1502   1.252   5.579   9.059 -0.0243 -1.5382  0.0533
   21CHL1  H16B 1503   1.425   5.650   9.038  1.2894  0.8998  1.8259
   21CHL1   C17 1504   1.398   5.442   9.131  0.2062 -0.0187  0.5383
   21CHL1   H17 1505   1.509   5.450   9.131  0.1841  0.2980  0.6519
   21CHL1   C13 1506   1.345   5.421   9.275 -0.3988 -0.3044 -0.5270
   21CHL1   C18 1507   1.193   5.401   9.276  0.1112 -0.0182  0.5827
   21CHL1  H18A 1508   1.175   5.305   9.224 -2.8041  0.9371 -0.3464
   21CHL1  H18B 1509   1.148   5.411   9.377  1.3669  0.9690  1.0783
   21CHL1  H18C 1510   1.151   5.483   9.214  0.5581  0.0040  0.3084
   21CHL1   C12 1511   1.418   5.314   9.359 -0.2629  0.1207 -0.1910
   21CHL1  H12A 1512   1.402   5.213   9.314 -0.0223  0.6852 -1.5880
   21CHL1  H12B 1513   1.525   5.344   9.367  0.1234 -1.2355  0.0009
   21CHL1   C11 1514   1.362   5.312   9.501  0.1423  0.2586  0.3051
   21CHL1  H11A 1515   1.263   5.261   9.514 -0.7836  0.5927 -3.8459
   21CHL1  H11B 1516   1.425   5.238   9.555  0.7869 -1.2411 -2.3207
   21CHL1    C9 1517   1.371   5.452   9.568  0.3498  0.1913 -0.1423
   21CHL1    H9 1518   1.481   5.461   9.579  0.2257 -0.3567  2.0386
   21CHL1   C10 1519   1.305   5.463   9.707 -0.1938  0.4111 -0.1827
   21CHL1   C19 1520   1.158   5.437   9.703  0.4885 -0.4973 -0.0113
   21CHL1  H19A 1521   1.135   5.330   9.685 -0.1585 -0.5905  1.2303
   21CHL1  H19B 1522   1.103   5.463   9.796  2.1782  2.2786  0.3180
   21CHL1  H19C 1523   1.102   5.479   9.617  0.6318 -1.2857 -0.4958
   21CHL1    C1 1524   1.375   5.365   9.811  0.5238  0.3147  0.2492
   21CHL1   H1A 1525   1.349   5.260   9.789  1.5812  0.1960 -0.5628
   21CHL1   H1B 1526   1.486   5.375   9.804  0.5116  1.8010  1.5389
   21CHL1    C2 1527   1.332   5.393   9.960  0.1307  0.7975 -0.9591
   21CHL1   H2A 1528   1.379   5.319  10.028 -0.7058  1.2851  0.1842
   21CHL1   H2B 1529   1.221   5.390   9.960  0.1479  0.0354 -1.0170
   21CHL1   C20 1530   1.357   5.348   9.014 -0.9659  0.7339  0.2857
   21CHL1   H20 1531   1.246   5.342   9.015 -0.8903 -1.9448  0.0972
   21CHL1   C21 1532   1.410   5.204   9.038 -0.8853  0.0501 -0.1755
   21CHL1  H21A 1533   1.399   5.134   8.953  1.4156  0.7879 -1.1562
   21CHL1  H21B 1534   1.359   5.151   9.122  1.9256 -0.9830  0.9845
   21CHL1  H21C 1535   1.520   5.202   9.053 -0.9690 -1.2343  0.4618
   21CHL1   C22 1536   1.393   5.400   8.880 -0.5053  0.2577  0.3444
   21CHL1  H22A 1537   1.361   5.506   8.873 -2.8907 -0.3051  1.6701
   21CHL1  H22B 1538   1.503   5.382   8.879 -0.4938 -0.6547 -3.9115
   21CHL1   C23 1539   1.337   5.316   8.767  0.0857 -0.1808  0.0938
   21CHL1  H23A 1540   1.367   5.209   8.774  0.6667  0.0684  2.1356
   21CHL1  H23B 1541   1.228   5.336   8.783 -0.0520 -2.3146  2.5267
   21CHL1   C24 1542   1.392   5.366   8.635  0.1180  0.0696 -0.1672
   21CHL1  H24A 1543   1.379   5.476   8.619  3.6187  0.6936  0.3908
   21CHL1  H24B 1544   1.502   5.350   8.622  0.1464  1.5066 -2.3952
   21CHL1   C25 1545   1.310   5.303   8.517  0.1935 -0.3789 -0.2542
   21CHL1   H25 1546   1.206   5.339   8.534  0.6808  0.0875  2.0910
   21CHL1   C26 1547   1.359   5.366   8.386  0.1665 -0.3324 -0.2161
   21CHL1  H26A 1548   1.460   5.326   8.362  0.0945 -1.4718  1.2302
   21CHL1  H26B 1549   1.291   5.336   8.303 -1.8302  0.0418  1.2106
   21CHL1  H26C 1550   1.351   5.477   8.385 -1.5363 -0.4302 -1.0342
   21CHL1   C27 1551   1.312   5.149   8.520  0.7432  0.4915  0.2247
   21CHL1  H27A 1552   1.261   5.107   8.431  2.3240 -1.4364  0.1669
   21CHL1  H27B 1553   1.417   5.112   8.521  1.1887  1.7075  1.6003
   21CHL1  H27C 1554   1.263   5.097   8.606  1.1921 -0.0035  0.1815
   22CHL1    C3 1555   0.960   5.711  10.179  0.1279 -0.4494  0.3338
   22CHL1    H3 1556   1.062   5.701  10.135  0.6157  0.6246  1.1818
   22CHL1    O3 1557   0.984   5.719  10.318  0.6486  0.5140 -0.7411
   22CHL1   H3' 1558   0.894   5.741  10.343 -0.1700 -1.5541 -1.6328
   22CHL1    C4 1559   0.902   5.847  10.130  0.1906 -0.4992  0.4214
   22CHL1   H4A 1560   0.801   5.871  10.169 -0.1457  1.4726 -1.4663
   22CHL1   H4B 1561   0.975   5.923  10.163  1.4969 -0.9577 -1.2238
   22CHL1    C5 1562   0.906   5.850   9.977 -0.2344  0.1662 -0.5747
   22CHL1    C6 1563   0.978   5.949   9.911  0.0979 -0.2065  0.2867
   22CHL1    H6 1564   1.037   6.026   9.962  0.6051 -0.8335  0.6488
   22CHL1    C7 1565   0.988   5.947   9.758 -0.4689 -0.0822 -0.0730
   22CHL1   H7A 1566   0.966   6.045   9.709 -0.6698 -0.3627 -0.5486
   22CHL1   H7B 1567   1.091   5.921   9.726  0.1193  1.4664  0.4696
   22CHL1    C8 1568   0.886   5.850   9.688  0.2087 -0.9204 -0.0816
   22CHL1    H8 1569   0.786   5.899   9.692  0.3174 -0.4969 -1.7678
   22CHL1   C14 1570   0.927   5.827   9.544 -0.4853 -0.2038  0.3328
   22CHL1   H14 1571   1.020   5.767   9.553 -0.8906 -1.5410 -2.9154
   22CHL1   C15 1572   0.975   5.942   9.459  0.1781 -0.1192 -0.1750
   22CHL1  H15A 1573   0.916   6.036   9.455 -1.9117 -1.3744 -4.1810
   22CHL1  H15B 1574   1.070   5.979   9.503  0.1642  1.7315 -1.5989
   22CHL1   C16 1575   0.993   5.880   9.316  0.3193  0.3418 -1.2511
   22CHL1  H16A 1576   0.953   5.941   9.232 -1.3601 -0.0876 -0.7998
   22CHL1  H16B 1577   1.099   5.866   9.286  0.8766 -0.7341  0.9779
   22CHL1   C17 1578   0.927   5.735   9.319 -0.5262 -0.5858 -0.7662
   22CHL1   H17 1579   1.006   5.658   9.335 -1.8763 -1.4236  2.8752
   22CHL1   C13 1580   0.851   5.726   9.453 -0.8492 -0.0261 -0.5271
   22CHL1   C18 1581   0.705   5.780   9.432  0.8811  0.4792  0.2779
   22CHL1  H18A 1582   0.642   5.786   9.523 -3.5303  0.9412 -2.5089
   22CHL1  H18B 1583   0.708   5.876   9.376  0.0873  0.9695  1.0424
   22CHL1  H18C 1584   0.650   5.704   9.373 -3.8348  0.9081  3.5828
   22CHL1   C12 1585   0.850   5.593   9.525  0.4897  0.1856 -0.3213
   22CHL1  H12A 1586   0.766   5.532   9.487  0.9632  0.3301 -1.6394
   22CHL1  H12B 1587   0.945   5.538   9.510  1.8318  2.6120 -1.3617
   22CHL1   C11 1588   0.813   5.604   9.679  0.4280  0.3395 -0.2347
   22CHL1  H11A 1589   0.711   5.646   9.673 -0.2504 -1.3718 -1.4753
   22CHL1  H11B 1590   0.809   5.506   9.732 -1.5628  0.1627 -0.6243
   22CHL1    C9 1591   0.885   5.711   9.765  0.6437 -0.4459  0.0471
   22CHL1    H9 1592   0.993   5.686   9.779  0.9125  0.6608  0.0483
   22CHL1   C10 1593   0.837   5.725   9.907  0.2429  0.6680  0.8136
   22CHL1   C19 1594   0.684   5.753   9.923 -0.1171 -0.0642 -0.7856
   22CHL1  H19A 1595   0.625   5.674   9.872  2.0528 -1.8771 -0.6586
   22CHL1  H19B 1596   0.665   5.763  10.032 -0.6206  1.6335 -1.0034
   22CHL1  H19C 1597   0.660   5.851   9.875 -2.9731  0.7449  1.9711
   22CHL1    C1 1598   0.872   5.592   9.979  0.2774  0.1287 -0.2484
   22CHL1   H1A 1599   0.795   5.519   9.944  0.7680  0.3056 -1.7663
   22CHL1   H1B 1600   0.975   5.560   9.951  0.3600 -0.1836  0.4079
   22CHL1    C2 1601   0.862   5.598  10.130  0.1636 -0.4457 -0.3222
   22CHL1   H2A 1602   0.886   5.502  10.180  0.7612 -0.2043 -0.1363
   22CHL1   H2B 1603   0.762   5.632  10.166  1.3950 -0.6517  3.7461
   22CHL1   C20 1604   0.857   5.705   9.185 -0.3771  0.3636  0.3824
   22CHL1   H20 1605   0.774   5.775   9.160 -0.7234  0.4778  1.7995
   22CHL1   C21 1606   0.803   5.563   9.193 -0.0418 -0.2742 -0.6082
   22CHL1  H21A 1607   0.876   5.482   9.216 -0.7960 -0.4052  1.4905
   22CHL1  H21B 1608   0.771   5.548   9.087 -0.6769 -0.6106 -0.3746
   22CHL1  H21C 1609   0.714   5.567   9.259  0.7720  0.6479  0.4734
   22CHL1   C22 1610   0.946   5.706   9.058  0.1475  0.2490  0.2584
   22CHL1  H22A 1611   1.010   5.796   9.067  2.0608 -1.0482  0.1432
   22CHL1  H22B 1612   1.012   5.616   9.060 -0.5399 -0.2620  0.9698
   22CHL1   C23 1613   0.878   5.709   8.914 -0.0974 -0.1108 -0.4681
   22CHL1  H23A 1614   0.962   5.717   8.841  1.8290  0.9897  1.7350
   22CHL1  H23B 1615   0.808   5.623   8.907  2.1690 -2.3553  1.8212
   22CHL1   C24 1616   0.797   5.832   8.898 -0.3646 -0.4967 -0.2985
   22CHL1  H24A 1617   0.715   5.827   8.973  0.5895 -0.0232  0.8164
   22CHL1  H24B 1618   0.852   5.927   8.916 -0.3459 -0.4259 -0.7364
   22CHL1   C25 1619   0.730   5.851   8.756  0.2002 -0.2163 -0.6899
   22CHL1   H25 1620   0.812   5.832   8.683  0.0784  0.1876 -0.9329
   22CHL1   C26 1621   0.627   5.735   8.729 -0.2148  0.7754  0.0603
   22CHL1  H26A 1622   0.534   5.735   8.790 -1.4945 -1.8012 -1.6671
   22CHL1  H26B 1623   0.602   5.723   8.621  1.0163 -1.9241 -0.0142
   22CHL1  H26C 1624   0.672   5.634   8.744  1.6711  1.3519 -1.4526
   22CHL1   C27 1625   0.674   5.991   8.722  0.6346  0.1021 -0.4706
   22CHL1  H27A 1626   0.575   6.017   8.764  0.8960  1.3345 -0.5605
   22CHL1  H27B 1627   0.750   6.063   8.762 -0.2175  0.8426 -0.1542
   22CHL1  H27C 1628   0.677   6.007   8.612  0.6749 -1.7313 -0.7605
   23CHL1    C3 1629   2.522   3.453   9.813  0.5859  0.1796  0.5007
   23CHL1    H3 1630   2.497   3.345   9.821 -0.4746  0.2403 -1.3698
   23CHL1    O3 1631   2.526   3.516   9.945  0.0768 -0.0732  0.7620
   23CHL1   H3' 1632   2.539   3.609   9.923 -0.9526 -0.2559 -0.7637
   23CHL1    C4 1633   2.663   3.453   9.748  0.1436 -0.5437 -0.9686
   23CHL1   H4A 1634   2.699   3.558   9.740 -1.3855  0.0151 -0.6724
   23CHL1   H4B 1635   2.734   3.398   9.813 -0.5509 -1.2410 -0.7993
   23CHL1    C5 1636   2.662   3.394   9.610  0.5429 -0.7975  0.4105
   23CHL1    C6 1637   2.737   3.294   9.582  0.6768  0.2839  0.4409
   23CHL1    H6 1638   2.800   3.257   9.664  2.4724  0.9038 -0.6218
   23CHL1    C7 1639   2.736   3.220   9.447  0.2450 -0.0640  0.4709
   23CHL1   H7A 1640   2.840   3.188   9.425  0.8936  1.9821  0.3921
   23CHL1   H7B 1641   2.675   3.129   9.463  0.0677 -0.1839 -0.8100
   23CHL1    C8 1642   2.663   3.292   9.331  0.3756 -0.5116  0.1887
   23CHL1    H8 1643   2.734   3.374   9.309  0.4782 -0.7847 -0.5218
   23CHL1   C14 1644   2.637   3.191   9.225 -0.4428  0.4907 -0.1615
   23CHL1   H14 1645   2.558   3.121   9.260  0.4152 -0.6116 -0.3768
   23CHL1   C15 1646   2.745   3.094   9.169  0.2428  0.6150  0.2919
   23CHL1  H15A 1647   2.846   3.140   9.175  1.0275 -0.8586 -0.8992
   23CHL1  H15B 1648   2.746   3.001   9.231 -0.8371  0.3426 -0.0720
   23CHL1   C16 1649   2.705   3.075   9.021 -0.0207  0.1464 -1.2789
   23CHL1  H16A 1650   2.781   3.134   8.964  1.7650  2.3246  2.8758
   23CHL1  H16B 1651   2.701   2.971   8.985 -2.2298  0.2751 -1.5149
   23CHL1   C17 1652   2.564   3.135   9.009  0.1250 -0.8182  0.2866
   23CHL1   H17 1653   2.489   3.070   9.057  0.4390 -0.8855  0.6958
   23CHL1   C13 1654   2.558   3.254   9.108 -0.6458 -1.0489  0.3546
   23CHL1   C18 1655   2.649   3.361   9.047 -0.1189 -0.1585 -0.5442
   23CHL1  H18A 1656   2.647   3.448   9.116 -0.3489 -1.1485  0.7242
   23CHL1  H18B 1657   2.753   3.323   9.040  0.3912  0.8560  1.0685
   23CHL1  H18C 1658   2.610   3.397   8.949  1.1355  1.6028 -0.4470
   23CHL1   C12 1659   2.425   3.311   9.145  0.4231  0.4131  0.5818
   23CHL1  H12A 1660   2.388   3.382   9.067  0.6302 -1.2220 -1.0789
   23CHL1  H12B 1661   2.348   3.240   9.183  1.2158 -1.1204 -0.6052
   23CHL1   C11 1662   2.438   3.398   9.268 -0.3884 -0.4526 -0.2790
   23CHL1  H11A 1663   2.484   3.495   9.239  1.6523 -1.8639 -2.1309
   23CHL1  H11B 1664   2.333   3.423   9.295 -0.5813 -0.0253 -1.3570
   23CHL1    C9 1665   2.525   3.348   9.387  0.9049 -0.3272  0.6435
   23CHL1    H9 1666   2.468   3.263   9.430  1.2935 -0.2762  1.2726
   23CHL1   C10 1667   2.545   3.442   9.511  1.0707  0.0973 -0.5792
   23CHL1   C19 1668   2.586   3.588   9.456 -0.2404  0.3253  0.4988
   23CHL1  H19A 1669   2.613   3.650   9.543  0.1966  0.4871  0.2516
   23CHL1  H19B 1670   2.672   3.580   9.386  0.0116  0.8284  0.7477
   23CHL1  H19C 1671   2.493   3.630   9.412 -1.4557  0.1628  2.7786
   23CHL1    C1 1672   2.399   3.450   9.588 -0.1549  0.3201  0.2124
   23CHL1   H1A 1673   2.325   3.504   9.524 -0.1688  3.0376  2.3109
   23CHL1   H1B 1674   2.362   3.347   9.603 -0.6457  0.3410 -0.7438
   23CHL1    C2 1675   2.421   3.523   9.720  0.3890 -0.2943  0.6126
   23CHL1   H2A 1676   2.320   3.520   9.766 -0.7458 -0.2862 -1.7414
   23CHL1   H2B 1677   2.457   3.626   9.701  1.1192 -0.8429 -1.1232
   23CHL1   C20 1678   2.510   3.146   8.863  0.4449  0.5459 -0.0574
   23CHL1   H20 1679   2.427   3.219   8.854 -3.0744 -3.0291  0.6970
   23CHL1   C21 1680   2.441   3.013   8.809  0.5609  0.2697  0.4291
   23CHL1  H21A 1681   2.513   2.929   8.809  0.7894  0.3648 -2.3602
   23CHL1  H21B 1682   2.401   3.016   8.705 -1.8491  2.0501  1.3065
   23CHL1  H21C 1683   2.353   2.988   8.872 -0.5705  1.9773 -0.3843
   23CHL1   C22 1684   2.618   3.182   8.759  0.4993  0.1678  0.1880
   23CHL1  H22A 1685   2.686   3.263   8.793  1.6999 -0.9764  0.5829
   23CHL1  H22B 1686   2.692   3.100   8.752  0.2612 -0.0687  0.4258
   23CHL1   C23 1687   2.574   3.228   8.616  0.3310  0.0992  0.4302
   23CHL1  H23A 1688   2.509   3.156   8.562 -0.6189  0.4939  1.0185
   23CHL1  H23B 1689   2.523   3.326   8.620  1.5954  0.7865  0.1846
   23CHL1   C24 1690   2.686   3.261   8.517 -1.0785  0.3927 -0.2232
   23CHL1  H24A 1691   2.754   3.334   8.566 -0.1080 -1.0223  0.6187
   23CHL1  H24B 1692   2.752   3.172   8.512  0.6874  1.6843 -1.2309
   23CHL1   C25 1693   2.650   3.304   8.374  0.4113 -0.1837  0.0013
   23CHL1   H25 1694   2.580   3.389   8.374  0.6964  0.0524 -0.5722
   23CHL1   C26 1695   2.772   3.355   8.296 -0.4351  0.3002  0.3006
   23CHL1  H26A 1696   2.841   3.271   8.274 -2.4086 -1.6020  0.9278
   23CHL1  H26B 1697   2.732   3.390   8.198 -0.0455 -3.2907 -1.2882
   23CHL1  H26C 1698   2.825   3.430   8.358  1.3704  2.7299 -3.7486
   23CHL1   C27 1699   2.580   3.191   8.294 -0.0153 -0.2679  0.0930
   23CHL1  H27A 1700   2.483   3.163   8.340  0.8190 -3.0032  0.3221
   23CHL1  H27B 1701   2.571   3.221   8.188  4.4457  1.7270  0.0406
   23CHL1  H27C 1702   2.647   3.104   8.306  1.9431  1.1959  0.3198
   24CHL1    C3 1703   6.614   4.007  10.147 -0.2770 -0.0772 -0.3831
   24CHL1    H3 1704   6.594   3.898  10.137  0.1665 -0.2876  0.8410
   24CHL1    O3 1705   6.643   4.039  10.283 -0.3496 -0.0502  0.1507
   24CHL1   H3' 1706   6.567   4.086  10.317  0.8193  0.5229  2.1283
   24CHL1    C4 1707   6.747   4.038  10.065  0.2405  0.2072  0.0437
   24CHL1   H4A 1708   6.795   4.136  10.086  2.9037 -0.6041 -1.7395
   24CHL1   H4B 1709   6.818   3.962  10.104  0.1398 -0.5260 -1.1584
   24CHL1    C5 1710   6.724   4.026   9.911 -0.1443  0.9632 -0.0312
   24CHL1    C6 1711   6.794   3.935   9.837 -0.5275  0.2851 -0.3340
   24CHL1    H6 1712   6.878   3.890   9.891  0.2595  3.8826  1.7602
   24CHL1    C7 1713   6.770   3.907   9.689  0.0723 -0.4930 -0.4723
   24CHL1   H7A 1714   6.861   3.892   9.628  0.3271 -0.3676 -0.1250
   24CHL1   H7B 1715   6.707   3.816   9.679 -0.7543  0.1926 -2.0391
   24CHL1    C8 1716   6.688   4.029   9.627 -0.3703 -0.6066  0.2142
   24CHL1    H8 1717   6.751   4.121   9.624  0.6244 -1.2979 -0.8719
   24CHL1   C14 1718   6.644   4.005   9.485  0.0511  0.1383  0.3649
   24CHL1   H14 1719   6.586   3.910   9.493 -0.3602  0.4245  0.8415
   24CHL1   C15 1720   6.754   3.962   9.389 -0.0727  0.0485  0.0079
   24CHL1  H15A 1721   6.831   4.042   9.381  0.3608 -0.5191 -2.1563
   24CHL1  H15B 1722   6.805   3.865   9.406  1.1714  0.1374 -2.6663
   24CHL1   C16 1723   6.676   3.960   9.255 -0.5206  0.0165  0.3903
   24CHL1  H16A 1724   6.728   4.020   9.177  0.5017 -2.8068 -1.2532
   24CHL1  H16B 1725   6.656   3.864   9.203  0.6881 -0.5142  0.8866
   24CHL1   C17 1726   6.542   4.038   9.271  0.0357  0.0823 -0.8120
   24CHL1   H17 1727   6.468   3.960   9.298 -2.3295  1.6725 -2.3483
   24CHL1   C13 1728   6.558   4.111   9.414 -0.2259  0.5269 -0.0780
   24CHL1   C18 1729   6.630   4.247   9.392  0.2322  0.9547 -0.2835
   24CHL1  H18A 1730   6.566   4.314   9.331 -2.7529 -0.0435  1.5181
   24CHL1  H18B 1731   6.648   4.305   9.485  1.6608 -0.4473  0.3550
   24CHL1  H18C 1732   6.726   4.236   9.338 -1.4293 -0.3781 -3.2362
   24CHL1   C12 1733   6.428   4.134   9.499  0.2230  0.1959  0.1647
   24CHL1  H12A 1734   6.365   4.217   9.460  0.2416 -0.4695 -1.3499
   24CHL1  H12B 1735   6.358   4.047   9.497 -0.3195  0.6333 -0.0796
   24CHL1   C11 1736   6.461   4.163   9.646 -0.7113  0.9100 -0.6659
   24CHL1  H11A 1737   6.505   4.265   9.645 -0.3884  0.7718 -0.8835
   24CHL1  H11B 1738   6.365   4.173   9.701 -0.8935 -1.2899 -0.5053
   24CHL1    C9 1739   6.556   4.061   9.710 -0.3023 -0.2530 -0.7183
   24CHL1    H9 1740   6.516   3.957   9.720 -0.6872 -0.3105 -2.6346
   24CHL1   C10 1741   6.597   4.104   9.857  0.1526 -0.3834  0.9513
   24CHL1   C19 1742   6.634   4.256   9.850  0.0558 -0.0026 -0.0058
   24CHL1  H19A 1743   6.545   4.321   9.842 -1.1645 -1.4828  0.9768
   24CHL1  H19B 1744   6.681   4.295   9.942 -2.6560  3.2163  0.2087
   24CHL1  H19C 1745   6.699   4.278   9.763  0.1454 -0.4509 -0.0569
   24CHL1    C1 1746   6.473   4.081   9.954  0.1222  0.2870 -0.4461
   24CHL1   H1A 1747   6.387   4.148   9.932 -1.0979  0.2592  3.5338
   24CHL1   H1B 1748   6.447   3.973   9.948  1.5391 -0.0544 -0.7232
   24CHL1    C2 1749   6.508   4.103  10.101 -0.5506 -0.5907  0.0344
   24CHL1   H2A 1750   6.419   4.069  10.159 -0.7650  0.2028  0.1755
   24CHL1   H2B 1751   6.534   4.206  10.132 -0.0454 -0.7061  0.0121
   24CHL1   C20 1752   6.482   4.123   9.159 -0.3805  0.0825  0.4219
   24CHL1   H20 1753   6.560   4.199   9.137  1.0828 -1.9020 -1.7590
   24CHL1   C21 1754   6.353   4.195   9.190 -0.3275  0.4736 -0.0043
   24CHL1  H21A 1755   6.276   4.122   9.223 -0.7083 -0.0066 -1.8424
   24CHL1  H21B 1756   6.326   4.250   9.097  0.8228  0.3997 -0.3970
   24CHL1  H21C 1757   6.366   4.275   9.266 -1.6263  0.6611  0.0456
   24CHL1   C22 1758   6.458   4.042   9.025 -0.4500 -0.1442 -0.9313
   24CHL1  H22A 1759   6.556   3.991   9.015 -0.7139 -1.1852  1.2372
   24CHL1  H22B 1760   6.384   3.964   9.052 -1.5322  1.1518  0.0094
   24CHL1   C23 1761   6.421   4.109   8.888 -0.0788 -0.0323  0.0620
   24CHL1  H23A 1762   6.321   4.157   8.894 -0.5959 -1.0241 -0.3611
   24CHL1  H23B 1763   6.509   4.171   8.861 -0.1431 -0.3128 -0.8448
   24CHL1   C24 1764   6.416   4.003   8.779  0.0780 -0.9480  0.0044
   24CHL1  H24A 1765   6.487   3.921   8.803  0.2235 -0.6518  0.5826
   24CHL1  H24B 1766   6.315   3.960   8.759 -1.2254  1.6018  0.6936
   24CHL1   C25 1767   6.472   4.052   8.645 -0.1174  0.5952  0.3774
   24CHL1   H25 1768   6.576   4.087   8.661  0.0207  0.5716 -0.4280
   24CHL1   C26 1769   6.472   3.934   8.551 -0.0212 -0.3374  0.2087
   24CHL1  H26A 1770   6.372   3.891   8.527 -0.4136  1.7348 -2.3742
   24CHL1  H26B 1771   6.498   3.977   8.452 -2.1484 -0.2936 -0.3969
   24CHL1  H26C 1772   6.542   3.852   8.578  0.0168 -1.0862 -1.9399
   24CHL1   C27 1773   6.388   4.163   8.581  0.4802 -0.3107  0.0677
   24CHL1  H27A 1774   6.387   4.248   8.652 -2.5054 -0.9190  0.9009
   24CHL1  H27B 1775   6.427   4.201   8.484  0.6645  1.0264  0.6513
   24CHL1  H27C 1776   6.281   4.133   8.585  0.3611  0.0095 -0.5854
   25CHL1    C3 1777   1.262   4.242  10.186  0.2025  0.5094  0.2802
   25CHL1    H3 1778   1.364   4.285  10.173 -0.0649  1.6335  1.6416
   25CHL1    O3 1779   1.229   4.238  10.324 -0.6609 -0.2864 -0.6783
   25CHL1   H3' 1780   1.231   4.330  10.350 -2.5884 -0.4885  0.3866
   25CHL1    C4 1781   1.155   4.314  10.108 -0.5534 -0.0790 -0.3547
   25CHL1   H4A 1782   1.060   4.262  10.130 -1.0834  0.1091 -2.0759
   25CHL1   H4B 1783   1.156   4.418  10.148 -0.4301 -0.0777 -0.3614
   25CHL1    C5 1784   1.184   4.305   9.957  0.1135 -0.5188  0.4709
   25CHL1    C6 1785   1.185   4.414   9.883 -0.4833 -0.4002  0.0370
   25CHL1    H6 1786   1.174   4.511   9.934 -0.5007 -1.2813  1.7903
   25CHL1    C7 1787   1.217   4.419   9.736 -0.7280  1.2736  0.0578
   25CHL1   H7A 1788   1.141   4.484   9.688 -0.2493  1.4162 -0.5142
   25CHL1   H7B 1789   1.316   4.464   9.715  0.1651 -1.5787 -2.5745
   25CHL1    C8 1790   1.217   4.275   9.670  0.2642  0.3249 -0.3340
   25CHL1    H8 1791   1.108   4.255   9.660  0.2237 -0.4036  1.3437
   25CHL1   C14 1792   1.296   4.286   9.543  0.4286  0.6956  0.8289
   25CHL1   H14 1793   1.403   4.299   9.567  1.0308 -1.0226 -0.6515
   25CHL1   C15 1794   1.257   4.400   9.447  0.6499 -0.2733  0.1314
   25CHL1  H15A 1795   1.147   4.418   9.446  1.2524  4.4410 -0.5816
   25CHL1  H15B 1796   1.299   4.495   9.486 -2.0160  0.7651  0.6874
   25CHL1   C16 1797   1.314   4.356   9.316 -0.1411  0.7839  0.1651
   25CHL1  H16A 1798   1.227   4.342   9.248 -0.1701 -1.0251  0.5190
   25CHL1  H16B 1799   1.385   4.429   9.272  0.5851  0.7070  1.1903
   25CHL1   C17 1800   1.380   4.218   9.341  0.3816  0.6337  1.0854
   25CHL1   H17 1801   1.487   4.229   9.368  0.0485  1.5731  2.1325
   25CHL1   C13 1802   1.302   4.157   9.460  0.5292 -0.1646  0.2330
   25CHL1   C18 1803   1.162   4.111   9.411  0.4968 -0.2323 -0.0544
   25CHL1  H18A 1804   1.176   4.013   9.359  1.8175  0.0560 -0.2883
   25CHL1  H18B 1805   1.092   4.085   9.493  0.6585 -0.9857 -0.1443
   25CHL1  H18C 1806   1.115   4.183   9.341 -1.2738 -1.1799  0.1126
   25CHL1   C12 1807   1.366   4.043   9.546 -0.0307 -0.0958 -0.0100
   25CHL1  H12A 1808   1.369   3.948   9.488  0.1136  0.8734 -1.6462
   25CHL1  H12B 1809   1.471   4.073   9.566 -0.3727 -0.3083  2.4065
   25CHL1   C11 1810   1.291   4.034   9.679  0.8051  0.1838  0.1029
   25CHL1  H11A 1811   1.187   3.996   9.663  1.0396 -0.6858  0.6060
   25CHL1  H11B 1812   1.338   3.954   9.739 -0.0678  0.9295  1.8397
   25CHL1    C9 1813   1.278   4.167   9.757  0.6579  0.4603 -0.8142
   25CHL1    H9 1814   1.384   4.193   9.779  0.5068 -0.2631  0.9005
   25CHL1   C10 1815   1.213   4.164   9.902  0.0658  0.9424 -0.0910
   25CHL1   C19 1816   1.083   4.089   9.900  0.7398  0.6930  0.6655
   25CHL1  H19A 1817   1.104   3.983   9.875  0.0411  0.3384  1.5192
   25CHL1  H19B 1818   1.019   4.098   9.990 -0.3322  1.3057 -0.1324
   25CHL1  H19C 1819   1.014   4.126   9.821  2.2058 -0.0510 -1.0346
   25CHL1    C1 1820   1.317   4.100   9.990  0.0746  0.0747 -0.7118
   25CHL1   H1A 1821   1.329   3.994   9.958 -1.2882 -0.0510 -0.8750
   25CHL1   H1B 1822   1.419   4.144   9.984  0.4699 -0.8700 -1.1882
   25CHL1    C2 1823   1.270   4.098  10.136  1.0006  0.1347 -0.1968
   25CHL1   H2A 1824   1.337   4.040  10.203  0.0582 -1.3488 -0.4898
   25CHL1   H2B 1825   1.174   4.043  10.146  1.2040 -0.9614 -3.1183
   25CHL1   C20 1826   1.383   4.139   9.206 -0.7864 -0.3559  0.2205
   25CHL1   H20 1827   1.280   4.127   9.168 -0.6594 -2.1826  0.3464
   25CHL1   C21 1828   1.442   3.994   9.225  0.2422 -0.1924  0.3879
   25CHL1  H21A 1829   1.449   3.936   9.131 -1.2632  1.5027 -0.8406
   25CHL1  H21B 1830   1.378   3.932   9.293  1.4124 -0.7577  1.0057
   25CHL1  H21C 1831   1.543   4.008   9.269  0.6595  0.6229 -0.8165
   25CHL1   C22 1832   1.473   4.208   9.103 -0.6190  0.1329 -1.0030
   25CHL1  H22A 1833   1.461   4.316   9.080  4.0209  0.6270 -2.0873
   25CHL1  H22B 1834   1.572   4.194   9.153 -0.4785  0.4857 -1.1808
   25CHL1   C23 1835   1.498   4.142   8.974  0.2366  0.1068  0.3690
   25CHL1  H23A 1836   1.578   4.067   8.990 -0.0044 -0.2419 -0.0285
   25CHL1  H23B 1837   1.408   4.090   8.934 -1.7243  2.7711  1.0451
   25CHL1   C24 1838   1.547   4.250   8.875 -0.1230  0.5580 -0.1441
   25CHL1  H24A 1839   1.469   4.328   8.880  2.0798  2.7797  1.6356
   25CHL1  H24B 1840   1.641   4.299   8.909 -1.4180  1.9307  1.6204
   25CHL1   C25 1841   1.568   4.204   8.729 -0.4223  0.1825 -0.2340
   25CHL1   H25 1842   1.641   4.124   8.753  1.0731  1.4523 -0.4046
   25CHL1   C26 1843   1.440   4.157   8.655  0.0161 -0.0944 -0.4082
   25CHL1  H26A 1844   1.374   4.245   8.665 -2.1175 -1.4801 -1.4699
   25CHL1  H26B 1845   1.443   4.135   8.546 -0.7459  0.8934 -0.6379
   25CHL1  H26C 1846   1.387   4.078   8.713 -0.3148  0.3034 -0.1623
   25CHL1   C27 1847   1.636   4.316   8.644 -0.1938  0.0221  0.5130
   25CHL1  H27A 1848   1.562   4.395   8.616 -0.4261 -0.8396 -1.4507
   25CHL1  H27B 1849   1.723   4.359   8.698 -0.5508  0.0624  1.0735
   25CHL1  H27C 1850   1.670   4.268   8.550 -0.8194 -1.2207  0.8997
   26CHL1    C3 1851   2.675   1.462  10.023 -0.1151  1.2001  0.0729
   26CHL1    H3 1852   2.679   1.555   9.963 -1.4612  0.2357 -1.6003
   26CHL1    O3 1853   2.695   1.493  10.158  0.1798 -0.4283 -0.1004
   26CHL1   H3' 1854   2.651   1.420  10.203 -0.4460 -0.2195 -0.3585
   26CHL1    C4 1855   2.550   1.374  10.007  0.1219  0.1271 -0.2793
   26CHL1   H4A 1856   2.547   1.279  10.065  2.0852  0.4419  0.4014
   26CHL1   H4B 1857   2.468   1.437  10.049 -0.4386 -0.9536  0.3048
   26CHL1    C5 1858   2.511   1.343   9.859 -1.2107  0.6114  0.9467
   26CHL1    C6 1859   2.410   1.389   9.791  0.1017 -0.1164  0.0890
   26CHL1    H6 1860   2.335   1.453   9.840 -1.4407 -1.3088 -0.6647
   26CHL1    C7 1861   2.386   1.361   9.644  0.3787  0.8032 -0.2046
   26CHL1   H7A 1862   2.278   1.340   9.628  0.4583 -0.3557  0.5679
   26CHL1   H7B 1863   2.392   1.449   9.577 -2.5100 -0.2822 -2.0723
   26CHL1    C8 1864   2.472   1.242   9.587 -0.1957  0.4750  0.1920
   26CHL1    H8 1865   2.441   1.145   9.631 -0.1700  0.0548 -0.6909
   26CHL1   C14 1866   2.478   1.246   9.435  0.1471  0.0491 -0.1165
   26CHL1   H14 1867   2.520   1.346   9.411  1.7789 -0.4779  0.4409
   26CHL1   C15 1868   2.339   1.248   9.359 -0.0093 -0.2308 -0.4944
   26CHL1  H15A 1869   2.261   1.196   9.420 -1.3359  0.5472 -1.4675
   26CHL1  H15B 1870   2.295   1.350   9.353 -0.0833 -0.3444 -2.2787
   26CHL1   C16 1871   2.373   1.199   9.224  0.4384  0.1992  0.1479
   26CHL1  H16A 1872   2.317   1.105   9.206  1.1626 -0.1909 -0.1168
   26CHL1  H16B 1873   2.356   1.279   9.149  0.1108  1.2964  1.3510
   26CHL1   C17 1874   2.520   1.166   9.219 -0.0460 -0.2291  0.6344
   26CHL1   H17 1875   2.579   1.254   9.186  0.6734 -1.1732 -0.6993
   26CHL1   C13 1876   2.558   1.137   9.369  0.1949 -0.6511  0.4393
   26CHL1   C18 1877   2.519   0.999   9.411  0.0598  0.2875 -0.2057
   26CHL1  H18A 1878   2.522   0.987   9.521  0.6676  0.3866 -0.2071
   26CHL1  H18B 1879   2.417   0.976   9.374 -0.0464  2.3799 -1.3256
   26CHL1  H18C 1880   2.591   0.926   9.368 -0.0779 -0.4465  0.7790
   26CHL1   C12 1881   2.704   1.157   9.408  0.2361 -0.5728  0.2386
   26CHL1  H12A 1882   2.770   1.081   9.361  1.1637  0.5060 -0.2271
   26CHL1  H12B 1883   2.730   1.261   9.383  0.9677 -0.9488 -0.6023
   26CHL1   C11 1884   2.716   1.164   9.563  0.0169  0.3725  0.6033
   26CHL1  H11A 1885   2.700   1.061   9.602 -0.1217  0.2651  0.2667
   26CHL1  H11B 1886   2.821   1.191   9.590  0.5308 -1.8645  1.0644
   26CHL1    C9 1887   2.619   1.266   9.632 -0.9669 -0.0317 -0.3742
   26CHL1    H9 1888   2.641   1.371   9.604 -0.4991  1.0432  3.4803
   26CHL1   C10 1889   2.627   1.268   9.788  0.1120  0.2554  0.3317
   26CHL1   C19 1890   2.636   1.115   9.836 -0.0366  0.2206  0.3566
   26CHL1  H19A 1891   2.643   1.108   9.946 -1.4141 -1.1796  0.4012
   26CHL1  H19B 1892   2.541   1.061   9.814  0.7265 -0.5581 -1.1903
   26CHL1  H19C 1893   2.726   1.060   9.801 -0.1104 -0.4293  1.1686
   26CHL1    C1 1894   2.765   1.331   9.823 -0.1905 -0.3983  0.3049
   26CHL1   H1A 1895   2.850   1.264   9.796 -0.1202 -0.7557  1.3654
   26CHL1   H1B 1896   2.781   1.425   9.766  1.1625 -0.9196 -0.2308
   26CHL1    C2 1897   2.795   1.374   9.970 -0.2120 -0.4063 -0.2857
   26CHL1   H2A 1898   2.884   1.439   9.969 -0.3643 -0.1911  0.1031
   26CHL1   H2B 1899   2.805   1.285  10.036  0.9864  0.8396  1.2968
   26CHL1   C20 1900   2.547   1.051   9.121 -1.2954 -0.1204 -0.7510
   26CHL1   H20 1901   2.496   0.960   9.159  0.9256 -1.1670 -0.0978
   26CHL1   C21 1902   2.694   1.022   9.113 -0.9426  0.3855  0.0021
   26CHL1  H21A 1903   2.719   0.977   9.015  0.0642 -3.4474  1.8378
   26CHL1  H21B 1904   2.722   0.953   9.196 -1.1768  2.4714  1.9495
   26CHL1  H21C 1905   2.749   1.117   9.133 -2.2464  0.7246  2.4045
   26CHL1   C22 1906   2.488   1.074   8.975  0.0314  0.2013  0.2273
   26CHL1  H22A 1907   2.521   0.991   8.909  0.4643 -0.3406  1.0998
   26CHL1  H22B 1908   2.378   1.067   8.977 -0.1831  1.6812 -2.4491
   26CHL1   C23 1909   2.534   1.203   8.900 -0.0479  0.2028 -0.0064
   26CHL1  H23A 1910   2.497   1.290   8.959 -2.8055 -1.5747  1.0976
   26CHL1  H23B 1911   2.645   1.198   8.896 -0.0664  0.2937 -0.6648
   26CHL1   C24 1912   2.487   1.209   8.753  0.5989 -0.7715  0.5185
   26CHL1  H24A 1913   2.512   1.310   8.715 -0.3455 -1.1339 -1.1546
   26CHL1  H24B 1914   2.559   1.142   8.702  3.4279  1.3192  1.4953
   26CHL1   C25 1915   2.340   1.185   8.730  0.3543 -0.0701 -0.1976
   26CHL1   H25 1916   2.309   1.090   8.780 -0.0652 -0.7067 -1.6152
   26CHL1   C26 1917   2.255   1.305   8.772  0.5369  0.7953 -0.3334
   26CHL1  H26A 1918   2.284   1.386   8.702  3.1050 -1.1664 -1.6995
   26CHL1  H26B 1919   2.148   1.273   8.767  0.5752  0.6354 -0.1407
   26CHL1  H26C 1920   2.277   1.339   8.876 -0.0893  0.9269 -0.2349
   26CHL1   C27 1921   2.305   1.144   8.581 -0.0686  0.4208 -0.0794
   26CHL1  H27A 1922   2.375   1.066   8.542 -0.3529  0.4273 -0.6116
   26CHL1  H27B 1923   2.200   1.107   8.578  0.2379 -0.4137 -1.7065
   26CHL1  H27C 1924   2.310   1.233   8.516  0.2180  0.5527  0.1192
   27CHL1    C3 1925   6.635   3.094  10.192 -0.1262  0.1472  0.1082
   27CHL1    H3 1926   6.527   3.077  10.212 -0.4715  0.4725 -1.3940
   27CHL1    O3 1927   6.687   3.109  10.325 -0.5951  0.1636  0.0337
   27CHL1   H3' 1928   6.722   3.021  10.340 -1.1807  0.1547  1.4978
   27CHL1    C4 1929   6.705   2.979  10.122 -0.7227  0.9624 -1.1183
   27CHL1   H4A 1930   6.813   2.993  10.143 -0.8821  0.9420 -0.2724
   27CHL1   H4B 1931   6.679   2.880  10.165  0.0710  0.9928 -0.5578
   27CHL1    C5 1932   6.680   2.976   9.977 -0.6447  0.3601 -0.1205
   27CHL1    C6 1933   6.640   2.872   9.910 -0.4256  0.2829  0.0790
   27CHL1    H6 1934   6.627   2.780   9.969 -0.8463  0.5706  0.4469
   27CHL1    C7 1935   6.626   2.848   9.756 -0.6809  0.3675 -0.9545
   27CHL1   H7A 1936   6.681   2.760   9.718  1.2808  1.1776 -0.1299
   27CHL1   H7B 1937   6.521   2.838   9.722 -1.0724  0.0010  0.2977
   27CHL1    C8 1938   6.691   2.972   9.683 -0.4811  0.1956  0.1156
   27CHL1    H8 1939   6.801   2.960   9.688 -0.7494 -2.4893  0.6455
   27CHL1   C14 1940   6.633   2.967   9.545  0.3158  0.2950  0.7378
   27CHL1   H14 1941   6.524   2.990   9.555  0.2140  0.3730 -0.3964
   27CHL1   C15 1942   6.652   2.838   9.465 -0.1189  0.1532 -0.2700
   27CHL1  H15A 1943   6.758   2.804   9.470 -0.0312 -0.0416 -2.5569
   27CHL1  H15B 1944   6.586   2.751   9.487 -3.1349  1.9457 -1.6662
   27CHL1   C16 1945   6.645   2.874   9.319  0.2817  0.0433 -0.2165
   27CHL1  H16A 1946   6.739   2.843   9.268  0.3407  0.7524 -0.5561
   27CHL1  H16B 1947   6.560   2.834   9.261 -0.7012  1.2063  0.3725
   27CHL1   C17 1948   6.628   3.031   9.318  0.0955  0.2689  0.8023
   27CHL1   H17 1949   6.521   3.056   9.335  0.4344  0.9654  2.0444
   27CHL1   C13 1950   6.684   3.078   9.458  0.2500 -0.2977  1.3078
   27CHL1   C18 1951   6.841   3.099   9.458 -0.5581 -0.6175 -0.2497
   27CHL1  H18A 1952   6.866   3.194   9.407  2.9236 -0.9899  0.5430
   27CHL1  H18B 1953   6.884   3.096   9.560  0.6961  0.9272 -0.6987
   27CHL1  H18C 1954   6.895   3.029   9.392 -1.4548 -0.3767 -1.2654
   27CHL1   C12 1955   6.619   3.208   9.517 -0.0421  0.1641  0.2591
   27CHL1  H12A 1956   6.649   3.287   9.444 -0.6324  1.0940  1.0087
   27CHL1  H12B 1957   6.508   3.209   9.508 -0.1056  1.7535  0.8152
   27CHL1   C11 1958   6.675   3.228   9.660  0.3291 -0.2857  0.0414
   27CHL1  H11A 1959   6.782   3.255   9.653  1.2098 -3.5772 -0.3949
   27CHL1  H11B 1960   6.625   3.311   9.715 -2.2361 -0.1410 -2.2870
   27CHL1    C9 1961   6.651   3.099   9.750  0.1827 -0.9100  0.5916
   27CHL1    H9 1962   6.541   3.085   9.750  0.0695 -0.2334 -0.5262
   27CHL1   C10 1963   6.700   3.109   9.897 -0.0348 -0.3007 -0.2115
   27CHL1   C19 1964   6.855   3.137   9.905  0.6529 -0.2429 -0.0021
   27CHL1  H19A 1965   6.884   3.237   9.866  3.0229 -0.7777  0.2705
   27CHL1  H19B 1966   6.893   3.143  10.009 -1.1092 -0.0018  0.6713
   27CHL1  H19C 1967   6.910   3.058   9.851  0.5127 -1.8394  2.0676
   27CHL1    C1 1968   6.626   3.227   9.975  0.4631 -0.4309  0.8146
   27CHL1   H1A 1969   6.664   3.326   9.941 -1.3092  0.5983  1.7384
   27CHL1   H1B 1970   6.517   3.217   9.956  0.4960  1.2901 -0.5234
   27CHL1    C2 1971   6.657   3.229  10.127  0.6215  0.2091 -0.0434
   27CHL1   H2A 1972   6.586   3.298  10.178 -1.1518 -1.0432 -0.7216
   27CHL1   H2B 1973   6.763   3.260  10.139  0.2082  1.7335 -0.0735
   27CHL1   C20 1974   6.687   3.088   9.185  0.9979  0.2645  0.5736
   27CHL1   H20 1975   6.798   3.084   9.188  1.0021 -2.7708 -0.1568
   27CHL1   C21 1976   6.637   3.230   9.168 -0.1266 -0.4395 -0.5377
   27CHL1  H21A 1977   6.552   3.261   9.233 -0.2547 -0.2231 -0.8064
   27CHL1  H21B 1978   6.610   3.248   9.062  1.1514 -1.5068 -1.0654
   27CHL1  H21C 1979   6.723   3.297   9.190  2.0777 -2.2925 -2.9339
   27CHL1   C22 1980   6.641   3.004   9.061 -0.1836 -0.6129 -0.0168
   27CHL1  H22A 1981   6.688   3.057   8.976  2.4697  0.2170  1.8304
   27CHL1  H22B 1982   6.680   2.901   9.074  0.2269 -0.2611  1.9408
   27CHL1   C23 1983   6.490   2.987   9.047  0.2434  0.0688 -0.1766
   27CHL1  H23A 1984   6.437   2.919   9.116  0.9394 -0.8912 -0.5661
   27CHL1  H23B 1985   6.442   3.087   9.057 -1.4446 -0.7254 -0.0261
   27CHL1   C24 1986   6.439   2.920   8.917 -0.0082 -0.2543 -0.1224
   27CHL1  H24A 1987   6.506   2.838   8.883 -0.6366  0.4742 -3.5788
   27CHL1  H24B 1988   6.334   2.889   8.934  0.2468 -0.7857  0.5067
   27CHL1   C25 1989   6.435   3.018   8.798  0.3767 -0.1092  0.0769
   27CHL1   H25 1990   6.524   3.081   8.782 -1.4575  2.7644  0.4858
   27CHL1   C26 1991   6.422   2.938   8.668  0.3304 -0.0147  0.1112
   27CHL1  H26A 1992   6.329   2.877   8.666 -1.8747  3.0433  1.8979
   27CHL1  H26B 1993   6.406   2.997   8.576 -2.5056  1.2161  1.2708
   27CHL1  H26C 1994   6.506   2.866   8.656  0.1887 -0.1191 -0.2798
   27CHL1   C27 1995   6.313   3.115   8.799 -1.1308  0.4896  0.1216
   27CHL1  H27A 1996   6.320   3.160   8.698 -1.1519 -1.1800 -0.6678
   27CHL1  H27B 1997   6.217   3.059   8.791 -2.3843  2.7651 -1.9161
   27CHL1  H27C 1998   6.312   3.181   8.888  0.2942  1.8227 -0.8142
   28CHL1    C3 1999   6.434   0.489   9.959 -1.0699  0.3515  0.7485
   28CHL1    H3 2000   6.477   0.395   9.920 -2.1607 -0.1384  0.6897
   28CHL1    O3 2001   6.479   0.506  10.090  0.2787  0.2849  0.1505
   28CHL1   H3' 2002   6.559   0.454  10.098 -0.0735 -0.5267 -1.2936
   28CHL1    C4 2003   6.489   0.601   9.871 -0.9119  0.4418 -0.2577
   28CHL1   H4A 2004   6.456   0.693   9.925 -1.3705 -1.4797  3.0587
   28CHL1   H4B 2005   6.600   0.606   9.873 -0.8594 -0.4319 -0.4953
   28CHL1    C5 2006   6.438   0.606   9.734  0.0033 -0.3902 -0.0339
   28CHL1    C6 2007   6.529   0.605   9.634  0.1838  0.0571  0.2691
   28CHL1    H6 2008   6.638   0.598   9.648  0.2195 -0.0898 -0.0728
   28CHL1    C7 2009   6.490   0.617   9.491  0.0806 -0.1780  0.0247
   28CHL1   H7A 2010   6.546   0.698   9.439  0.5717 -1.0716 -0.8842
   28CHL1   H7B 2011   6.525   0.520   9.450 -0.4674 -0.5512  0.4203
   28CHL1    C8 2012   6.334   0.640   9.475 -0.1879  0.0935  0.5316
   28CHL1    H8 2013   6.310   0.748   9.483 -0.9671  0.1455 -1.7430
   28CHL1   C14 2014   6.288   0.598   9.336 -0.1944  0.0172  0.8146
   28CHL1   H14 2015   6.294   0.487   9.333  1.6442  0.0820  0.4814
   28CHL1   C15 2016   6.371   0.648   9.215  0.1467  0.4765 -0.7097
   28CHL1  H15A 2017   6.393   0.756   9.232 -0.7756  0.6046 -0.2424
   28CHL1  H15B 2018   6.468   0.595   9.207 -1.1080 -2.1610  0.2355
   28CHL1   C16 2019   6.288   0.623   9.099 -0.3059  0.7008 -0.3648
   28CHL1  H16A 2020   6.292   0.709   9.028 -0.4095 -0.1662 -1.4586
   28CHL1  H16B 2021   6.320   0.538   9.036 -0.3383 -0.0744  0.6455
   28CHL1   C17 2022   6.148   0.582   9.147  0.0417  0.3856  0.4214
   28CHL1   H17 2023   6.145   0.471   9.139 -1.0220  0.3845  0.6366
   28CHL1   C13 2024   6.141   0.630   9.300 -0.2711 -0.4450  1.1662
   28CHL1   C18 2025   6.120   0.784   9.299  0.2006 -0.3772  0.0247
   28CHL1  H18A 2026   6.015   0.801   9.266  0.8190  0.0734 -1.8151
   28CHL1  H18B 2027   6.137   0.822   9.402  1.8803 -2.2106  0.4838
   28CHL1  H18C 2028   6.171   0.847   9.223 -0.8518 -0.1001 -0.4665
   28CHL1   C12 2029   6.051   0.554   9.394  0.2018 -0.9322  0.5513
   28CHL1  H12A 2030   5.945   0.585   9.381  0.4312 -0.4763 -0.3187
   28CHL1  H12B 2031   6.055   0.445   9.375  1.1415 -0.7352 -0.4761
   28CHL1   C11 2032   6.091   0.585   9.538  0.3833  0.1204 -0.2952
   28CHL1  H11A 2033   6.051   0.687   9.556 -2.8235 -0.8800 -0.9818
   28CHL1  H11B 2034   6.047   0.509   9.606 -0.4622  0.5635 -0.3328
   28CHL1    C9 2035   6.242   0.566   9.566 -0.3181  0.4350 -0.6229
   28CHL1    H9 2036   6.276   0.462   9.553  1.1612  1.0498 -2.0031
   28CHL1   C10 2037   6.289   0.598   9.714 -0.7687 -0.0734 -0.0337
   28CHL1   C19 2038   6.255   0.746   9.753 -0.6893 -1.0482 -0.0657
   28CHL1  H19A 2039   6.145   0.752   9.738 -0.9674 -1.5858  1.5447
   28CHL1  H19B 2040   6.277   0.786   9.854 -1.5416  1.2441 -0.7360
   28CHL1  H19C 2041   6.301   0.820   9.685  0.2049 -0.1220  1.5021
   28CHL1    C1 2042   6.221   0.508   9.820 -0.2302 -0.4541  0.3884
   28CHL1   H1A 2043   6.115   0.541   9.829 -0.4935 -0.6101 -1.6844
   28CHL1   H1B 2044   6.219   0.401   9.791  0.9996 -0.6478  0.9529
   28CHL1    C2 2045   6.283   0.507   9.963 -1.1816 -0.1497  0.3146
   28CHL1   H2A 2046   6.235   0.432  10.029  1.4825 -0.7441  1.7476
   28CHL1   H2B 2047   6.254   0.611   9.990 -2.3453 -0.0474 -1.2268
   28CHL1   C20 2048   6.034   0.622   9.051  0.1803 -0.3013 -0.1650
   28CHL1   H20 2049   6.025   0.732   9.045 -1.1849 -0.3167  0.8965
   28CHL1   C21 2050   5.897   0.580   9.100  0.4358 -0.4816 -0.1388
   28CHL1  H21A 2051   5.819   0.607   9.026 -0.0083  0.0522  0.5176
   28CHL1  H21B 2052   5.873   0.624   9.199 -0.0102 -0.4036 -0.2826
   28CHL1  H21C 2053   5.898   0.470   9.119  2.2222 -0.6964 -1.2095
   28CHL1   C22 2054   6.059   0.577   8.907 -0.3817 -0.1299 -0.2779
   28CHL1  H22A 2055   6.155   0.620   8.872 -0.7660  2.7760  1.9071
   28CHL1  H22B 2056   6.070   0.467   8.895  1.3199 -0.0063 -0.0652
   28CHL1   C23 2057   5.939   0.625   8.817 -0.0551  0.2332  0.4301
   28CHL1  H23A 2058   5.855   0.556   8.836  0.6671  0.0374  3.5325
   28CHL1  H23B 2059   5.930   0.731   8.849  1.6366 -0.1201  2.3477
   28CHL1   C24 2060   5.975   0.616   8.666 -0.0979 -0.2751 -0.0087
   28CHL1  H24A 2061   6.069   0.671   8.643 -0.7056  1.1543  0.8224
   28CHL1  H24B 2062   5.988   0.508   8.640 -2.7841 -1.2459  2.1772
   28CHL1   C25 2063   5.866   0.674   8.575  0.0016  0.3673  0.1622
   28CHL1   H25 2064   5.775   0.613   8.593  1.2468 -1.5643  0.2225
   28CHL1   C26 2065   5.841   0.818   8.606  0.3248 -0.5120 -0.4858
   28CHL1  H26A 2066   5.786   0.866   8.522  0.4526  0.3213 -0.1081
   28CHL1  H26B 2067   5.795   0.842   8.704  1.6437  3.4050 -0.6510
   28CHL1  H26C 2068   5.940   0.869   8.609 -0.2763  0.7922 -1.6763
   28CHL1   C27 2069   5.908   0.652   8.431  0.2484 -0.3691 -0.4143
   28CHL1  H27A 2070   5.820   0.668   8.366 -0.1861 -1.7251 -0.1831
   28CHL1  H27B 2071   5.995   0.713   8.397 -1.0566  0.1812 -2.9704
   28CHL1  H27C 2072   5.942   0.548   8.412  1.1769 -0.2949  0.7048
   29CHL1    C3 2073   1.357   0.863   6.669 -0.0000 -0.2268 -0.2229
   29CHL1    H3 2074   1.437   0.786   6.667 -1.1737 -1.4777 -1.2092
   29CHL1    O3 2075   1.312   0.897   6.539 -0.1304  0.1727  0.2294
   29CHL1   H3' 2076   1.277   0.986   6.539  2.5068  1.2846 -0.2479
   29CHL1    C4 2077   1.242   0.807   6.740 -0.1879 -0.3354  1.2540
   29CHL1   H4A 2078   1.157   0.878   6.734  0.5322  0.4503  0.1249
   29CHL1   H4B 2079   1.207   0.717   6.686 -1.4601  1.3632 -0.9049
   29CHL1    C5 2080   1.283   0.786   6.883 -0.2264  0.3759 -0.0104
   29CHL1    C6 2081   1.278   0.660   6.928  0.1089 -0.3012 -0.0125
   29CHL1    H6 2082   1.257   0.576   6.860  1.4658 -0.4449 -0.2775
   29CHL1    C7 2083   1.295   0.625   7.074 -0.4107  0.0829 -0.7029
   29CHL1   H7A 2084   1.209   0.565   7.112  0.4336 -1.2429 -0.8178
   29CHL1   H7B 2085   1.379   0.554   7.087 -1.4667 -1.3438 -1.3917
   29CHL1    C8 2086   1.305   0.752   7.170 -0.3562 -0.5987 -0.9747
   29CHL1    H8 2087   1.200   0.787   7.181 -0.6418 -1.5578 -0.6169
   29CHL1   C14 2088   1.348   0.719   7.310  0.2181  0.3825  0.1488
   29CHL1   H14 2089   1.447   0.675   7.289 -0.2663 -0.3212 -0.6949
   29CHL1   C15 2090   1.278   0.613   7.394 -0.9582 -0.5863 -0.2459
   29CHL1  H15A 2091   1.169   0.632   7.386 -0.7028  0.6687 -1.1097
   29CHL1  H15B 2092   1.307   0.507   7.375  1.5178  0.1086 -0.6510
   29CHL1   C16 2093   1.305   0.651   7.541  0.5277 -0.7749 -0.6056
   29CHL1  H16A 2094   1.212   0.672   7.598  1.5759  1.0264  0.5344
   29CHL1  H16B 2095   1.353   0.566   7.593 -0.3091 -0.5317  0.5912
   29CHL1   C17 2096   1.401   0.776   7.541  0.2673 -0.2648  0.2971
   29CHL1   H17 2097   1.506   0.743   7.532  0.1203 -0.3643 -1.3203
   29CHL1   C13 2098   1.370   0.840   7.403 -0.5960  0.4178 -0.7503
   29CHL1   C18 2099   1.237   0.919   7.426  0.2008 -0.2101  0.0865
   29CHL1  H18A 2100   1.254   1.010   7.488  2.3783  0.8043 -1.8648
   29CHL1  H18B 2101   1.202   0.948   7.325 -1.1415 -2.2631 -0.1083
   29CHL1  H18C 2102   1.149   0.863   7.466 -1.8071  3.0038  0.5751
   29CHL1   C12 2103   1.479   0.928   7.339  0.1395 -0.6825 -0.6428
   29CHL1  H12A 2104   1.494   1.014   7.408  1.9964  0.2615 -2.1503
   29CHL1  H12B 2105   1.574   0.875   7.323  0.2176 -0.4749 -0.8786
   29CHL1   C11 2106   1.424   0.974   7.201 -0.5041  0.1042  0.7912
   29CHL1  H11A 2107   1.340   1.041   7.228 -0.3078 -0.1297  2.0588
   29CHL1  H11B 2108   1.508   1.034   7.162  0.2076 -0.3276  1.6078
   29CHL1    C9 2109   1.392   0.858   7.104 -0.2209 -0.4654 -0.0529
   29CHL1    H9 2110   1.487   0.802   7.091  0.0044 -0.5034  1.6045
   29CHL1   C10 2111   1.329   0.903   6.963 -0.2761 -0.3602  0.5698
   29CHL1   C19 2112   1.201   0.983   6.985 -0.7921 -0.0397 -0.3548
   29CHL1  H19A 2113   1.129   0.913   7.031 -0.2582 -2.5684 -3.0828
   29CHL1  H19B 2114   1.214   1.065   7.060 -1.4767  0.0808 -0.3565
   29CHL1  H19C 2115   1.156   1.024   6.892  0.1822 -0.3822 -0.9916
   29CHL1    C1 2116   1.442   0.976   6.886 -0.0193  0.8129  0.4312
   29CHL1   H1A 2117   1.473   1.075   6.927  2.6725  1.4985 -2.8072
   29CHL1   H1B 2118   1.526   0.904   6.897 -1.8649 -1.7019 -1.1655
   29CHL1    C2 2119   1.420   0.986   6.736  0.2568  0.3639  0.2053
   29CHL1   H2A 2120   1.511   1.023   6.683 -0.3803 -0.3232 -1.4631
   29CHL1   H2B 2121   1.351   1.073   6.738  1.0019  0.9623  0.3654
   29CHL1   C20 2122   1.399   0.855   7.670  0.6125  0.4783 -0.0800
   29CHL1   H20 2123   1.298   0.901   7.684  1.2008  1.9981 -0.5933
   29CHL1   C21 2124   1.519   0.957   7.666 -0.5650 -0.1099 -0.5484
   29CHL1  H21A 2125   1.601   0.908   7.610 -0.1992 -0.1468  0.0154
   29CHL1  H21B 2126   1.567   0.974   7.764  0.7376 -0.6535 -1.0608
   29CHL1  H21C 2127   1.500   1.054   7.616  0.2442  0.2396 -0.1930
   29CHL1   C22 2128   1.394   0.771   7.798 -0.5528 -0.4214 -0.0975
   29CHL1  H22A 2129   1.314   0.695   7.790 -2.5838  1.7344 -1.2707
   29CHL1  H22B 2130   1.492   0.718   7.805 -0.2671 -0.3544 -2.7384
   29CHL1   C23 2131   1.372   0.864   7.920  0.2652 -0.1869 -0.1976
   29CHL1  H23A 2132   1.455   0.936   7.935 -1.4681  1.9863 -0.5739
   29CHL1  H23B 2133   1.284   0.928   7.898  0.0732 -0.0094  1.0558
   29CHL1   C24 2134   1.337   0.786   8.053  0.0144 -0.0048 -0.2419
   29CHL1  H24A 2135   1.240   0.732   8.043  0.0924 -0.3982  1.0635
   29CHL1  H24B 2136   1.409   0.705   8.072 -1.6528 -1.0041  2.2497
   29CHL1   C25 2137   1.355   0.873   8.176  0.3727 -0.9136  0.4005
   29CHL1   H25 2138   1.334   0.808   8.264 -0.8097 -0.5210  0.4180
   29CHL1   C26 2139   1.492   0.943   8.190 -0.0282  0.3216 -0.3472
   29CHL1  H26A 2140   1.573   0.868   8.177 -0.2506 -0.0651  0.4350
   29CHL1  H26B 2141   1.502   1.026   8.117  0.7415  1.2114  0.7441
   29CHL1  H26C 2142   1.501   0.980   8.294  2.6081 -2.0543  0.3896
   29CHL1   C27 2143   1.257   0.987   8.175  0.0783 -0.0212 -0.6771
   29CHL1  H27A 2144   1.152   0.950   8.161  0.5553 -1.4333 -0.7062
   29CHL1  H27B 2145   1.268   1.034   8.275  1.9154 -1.1665 -0.2963
   29CHL1  H27C 2146   1.276   1.065   8.098 -2.4381 -0.5617 -1.9774
   30CHL1    C3 2147   5.411   3.980   7.286  0.8558  0.1467 -0.1761
   30CHL1    H3 2148   5.473   3.890   7.308 -2.7017 -2.5064 -0.0918
   30CHL1    O3 2149   5.416   4.017   7.145 -0.5059 -0.4654  0.3049
   30CHL1   H3' 2150   5.347   3.961   7.106 -2.2868  0.2068  2.2896
   30CHL1    C4 2151   5.269   3.941   7.326  0.0013 -0.9900 -0.8980
   30CHL1   H4A 2152   5.209   4.035   7.318 -0.2878 -1.0621  0.2480
   30CHL1   H4B 2153   5.239   3.861   7.256 -0.5580 -1.2513 -0.3774
   30CHL1    C5 2154   5.280   3.893   7.473  0.3352 -0.5763  0.2116
   30CHL1    C6 2155   5.251   3.763   7.498  0.3270  0.2808 -0.2687
   30CHL1    H6 2156   5.212   3.699   7.417 -0.3569 -1.1877  1.1666
   30CHL1    C7 2157   5.262   3.708   7.635  0.1280  0.0127 -0.0659
   30CHL1   H7A 2158   5.186   3.628   7.646  1.6423 -1.6527 -1.1313
   30CHL1   H7B 2159   5.359   3.658   7.658 -0.3906 -0.5866  0.8643
   30CHL1    C8 2160   5.256   3.822   7.744  0.0005 -0.8146  0.4519
   30CHL1    H8 2161   5.150   3.854   7.750  0.3910  0.4975  0.7886
   30CHL1   C14 2162   5.298   3.767   7.877 -0.5171 -0.4699 -0.0648
   30CHL1   H14 2163   5.407   3.751   7.862 -0.1568  0.4420  1.4301
   30CHL1   C15 2164   5.230   3.640   7.928  0.0367  0.4379 -0.0481
   30CHL1  H15A 2165   5.128   3.641   7.885 -0.2539  1.8188  0.6093
   30CHL1  H15B 2166   5.288   3.550   7.896 -0.1560  0.0113  0.7835
   30CHL1   C16 2167   5.233   3.651   8.076 -0.5747  0.1011  0.1410
   30CHL1  H16A 2168   5.130   3.665   8.114 -0.0184 -0.3080  1.8952
   30CHL1  H16B 2169   5.268   3.565   8.138  0.3138  1.8155  2.1373
   30CHL1   C17 2170   5.326   3.773   8.108 -0.0545  0.3724 -0.8399
   30CHL1   H17 2171   5.429   3.734   8.098 -1.4931 -5.2603  2.1604
   30CHL1   C13 2172   5.295   3.867   7.993 -0.1054  0.4906 -0.1112
   30CHL1   C18 2173   5.156   3.934   8.003  0.3892  0.0895 -0.2473
   30CHL1  H18A 2174   5.129   3.977   7.904 -1.9405  0.0005  0.2838
   30CHL1  H18B 2175   5.075   3.859   8.016 -0.7006  1.4726  1.3759
   30CHL1  H18C 2176   5.151   4.012   8.081  0.3365 -0.9390  0.8045
   30CHL1   C12 2177   5.407   3.973   7.965 -0.6406 -0.3032  0.0189
   30CHL1  H12A 2178   5.398   4.045   8.049 -0.0217 -1.1414  0.8238
   30CHL1  H12B 2179   5.505   3.919   7.966  0.2357  1.2321  0.6566
   30CHL1   C11 2180   5.380   4.041   7.826  0.3368 -0.5965  0.0775
   30CHL1  H11A 2181   5.295   4.112   7.840 -0.9739 -2.1725  0.4635
   30CHL1  H11B 2182   5.469   4.100   7.796  0.3888 -0.7212 -0.0129
   30CHL1    C9 2183   5.353   3.939   7.709  0.1505  0.1243  0.2559
   30CHL1    H9 2184   5.457   3.900   7.705  0.3534  0.5491  1.2687
   30CHL1   C10 2185   5.325   4.003   7.576 -0.6962  0.0891  0.1468
   30CHL1   C19 2186   5.223   4.110   7.592 -0.0110 -0.0289 -0.0684
   30CHL1  H19A 2187   5.134   4.084   7.653 -1.0676  1.1606 -1.0273
   30CHL1  H19B 2188   5.266   4.194   7.651  0.6115  1.8527 -2.9773
   30CHL1  H19C 2189   5.192   4.151   7.493 -0.3828  1.1445  0.5212
   30CHL1    C1 2190   5.460   4.062   7.523 -0.7407  0.1879  0.4147
   30CHL1   H1A 2191   5.482   4.152   7.584 -1.8265 -0.4682  1.7991
   30CHL1   H1B 2192   5.542   3.987   7.535 -1.5750 -1.5718 -3.3795
   30CHL1    C2 2193   5.459   4.094   7.370 -0.3151  0.2861 -0.2556
   30CHL1   H2A 2194   5.562   4.125   7.341 -0.6760  1.0972 -0.7201
   30CHL1   H2B 2195   5.407   4.192   7.359  1.1708  1.0204 -1.1563
   30CHL1   C20 2196   5.306   3.832   8.247 -1.1344 -0.1696 -0.4166
   30CHL1   H20 2197   5.313   3.942   8.235  1.9418 -0.5482 -3.5746
   30CHL1   C21 2198   5.430   3.806   8.327 -0.1188 -0.2474  0.1892
   30CHL1  H21A 2199   5.428   3.869   8.419  0.2999  0.2400 -0.1261
   30CHL1  H21B 2200   5.528   3.822   8.277  0.3043 -0.1095  1.0426
   30CHL1  H21C 2201   5.437   3.698   8.350 -0.1807 -0.4657 -0.7722
   30CHL1   C22 2202   5.183   3.785   8.330  0.2689 -0.4406  0.5731
   30CHL1  H22A 2203   5.103   3.809   8.257  0.0572 -0.5897  0.7546
   30CHL1  H22B 2204   5.187   3.675   8.348 -1.7100 -0.5806  0.3992
   30CHL1   C23 2205   5.157   3.856   8.457 -0.7159 -0.0174 -0.4402
   30CHL1  H23A 2206   5.238   3.824   8.526 -0.8518 -0.2083 -0.3691
   30CHL1  H23B 2207   5.152   3.966   8.443  1.6905  0.1950 -0.1759
   30CHL1   C24 2208   5.018   3.810   8.524 -0.5368  0.1007 -0.8038
   30CHL1  H24A 2209   4.933   3.828   8.455 -1.6454 -0.6183  0.3271
   30CHL1  H24B 2210   5.019   3.700   8.541  1.1331  0.1176 -0.6024
   30CHL1   C25 2211   5.007   3.886   8.657 -0.1410 -0.8020 -1.0450
   30CHL1   H25 2212   5.103   3.873   8.710 -0.0769 -0.8428 -1.1692
   30CHL1   C26 2213   4.996   4.041   8.652 -0.1580  0.1617 -0.1835
   30CHL1  H26A 2214   5.089   4.100   8.640 -0.3386  0.3521 -0.6718
   30CHL1  H26B 2215   4.926   4.068   8.570  1.3797  0.2778 -1.4884
   30CHL1  H26C 2216   4.965   4.073   8.754  1.0159 -1.1656  0.6378
   30CHL1   C27 2217   4.887   3.819   8.715 -0.2874 -0.5032  0.1466
   30CHL1  H27A 2218   4.857   3.871   8.809  0.6889  1.5610 -0.6153
   30CHL1  H27B 2219   4.800   3.837   8.649  0.2550  0.0032 -0.4536
   30CHL1  H27C 2220   4.905   3.710   8.726 -3.9838 -1.1657  0.8741
   31CHL1    C3 2221   0.272   0.266   6.684 -1.2392  0.3825  0.3723
   31CHL1    H3 2222   0.173   0.244   6.730  0.0260 -1.1284  2.5381
   31CHL1    O3 2223   0.251   0.294   6.549  0.1485  0.7330 -0.5968
   31CHL1   H3' 2224   0.338   0.302   6.510  0.2346  1.4908 -0.2610
   31CHL1    C4 2225   0.337   0.383   6.744 -0.8692 -0.1222 -0.2896
   31CHL1   H4A 2226   0.437   0.410   6.704 -0.7325  1.2575  0.9021
   31CHL1   H4B 2227   0.278   0.476   6.731  0.5050  0.5942 -1.7720
   31CHL1    C5 2228   0.370   0.351   6.889  1.2211  0.2236  0.0778
   31CHL1    C6 2229   0.311   0.422   6.984  0.0600  0.1982 -0.0147
   31CHL1    H6 2230   0.265   0.518   6.960  1.1050  0.8579  0.5448
   31CHL1    C7 2231   0.344   0.400   7.132 -0.1920  0.8899 -0.3075
   31CHL1   H7A 2232   0.363   0.494   7.187 -0.3126  3.2049 -3.8440
   31CHL1   H7B 2233   0.247   0.367   7.176 -0.8367  0.5438 -1.9137
   31CHL1    C8 2234   0.455   0.295   7.165 -0.8580 -0.9229  0.2189
   31CHL1    H8 2235   0.554   0.342   7.146 -0.7207 -1.7621 -1.3351
   31CHL1   C14 2236   0.448   0.245   7.304 -0.1378 -0.1199 -1.0791
   31CHL1   H14 2237   0.354   0.185   7.305 -1.4948  1.8759  0.2958
   31CHL1   C15 2238   0.426   0.347   7.417 -0.0345 -0.3556 -1.0154
   31CHL1  H15A 2239   0.477   0.444   7.398  2.2520 -1.1609  0.5233
   31CHL1  H15B 2240   0.319   0.373   7.427 -0.2345 -0.9839 -1.4652
   31CHL1   C16 2241   0.473   0.269   7.548 -0.5559 -0.6872  0.0833
   31CHL1  H16A 2242   0.560   0.327   7.584 -1.7996  0.6839  0.9963
   31CHL1  H16B 2243   0.394   0.277   7.626 -1.8297  0.5983 -1.2649
   31CHL1   C17 2244   0.517   0.125   7.498 -1.0283 -0.2783 -0.5752
   31CHL1   H17 2245   0.425   0.062   7.497  0.4845 -2.6153 -1.4347
   31CHL1   C13 2246   0.558   0.142   7.352  0.1076 -0.4061 -0.2546
   31CHL1   C18 2247   0.691   0.227   7.350 -0.0251 -0.0067  0.0421
   31CHL1  H18A 2248   0.714   0.239   7.242  0.5472 -1.0595  0.0217
   31CHL1  H18B 2249   0.679   0.330   7.390 -0.6485 -0.5122  1.2062
   31CHL1  H18C 2250   0.773   0.183   7.412 -2.3262 -1.6116  2.1402
   31CHL1   C12 2251   0.544   0.023   7.257 -0.1837 -0.1150 -0.1295
   31CHL1  H12A 2252   0.627  -0.048   7.276 -0.3888 -0.0304  1.2179
   31CHL1  H12B 2253   0.454  -0.042   7.267  0.1545 -0.8233 -1.4478
   31CHL1   C11 2254   0.550   0.073   7.113 -0.0783  0.1570  0.5721
   31CHL1  H11A 2255   0.651   0.111   7.087 -1.2366  1.9068 -1.6979
   31CHL1  H11B 2256   0.527  -0.015   7.048  2.5940 -0.0702 -0.1896
   31CHL1    C9 2257   0.442   0.178   7.076 -0.1008 -0.0140 -0.7377
   31CHL1    H9 2258   0.344   0.133   7.103  0.0084 -0.5938 -1.2904
   31CHL1   C10 2259   0.442   0.224   6.928  0.2554  0.0035  0.2977
   31CHL1   C19 2260   0.594   0.251   6.885 -0.5131  0.4504 -0.3742
   31CHL1  H19A 2261   0.596   0.303   6.787 -1.4780  3.2416  0.9778
   31CHL1  H19B 2262   0.654   0.294   6.968  1.3599 -1.2540 -0.7837
   31CHL1  H19C 2263   0.641   0.155   6.856  2.8959  2.6732 -3.0220
   31CHL1    C1 2264   0.383   0.108   6.844 -0.5098 -0.2756 -0.4543
   31CHL1   H1A 2265   0.442   0.014   6.849  1.8167  0.9872 -2.1054
   31CHL1   H1B 2266   0.281   0.083   6.881  0.2143 -1.8195  0.6088
   31CHL1    C2 2267   0.355   0.137   6.694  0.8002  0.5635  0.1036
   31CHL1   H2A 2268   0.289   0.056   6.655 -0.2178  1.8132 -0.8552
   31CHL1   H2B 2269   0.451   0.151   6.642  1.4971 -0.9522  0.9097
   31CHL1   C20 2270   0.612   0.065   7.602 -0.4274 -0.1020 -0.2585
   31CHL1   H20 2271   0.702   0.128   7.613  1.2995 -1.8919 -2.9448
   31CHL1   C21 2272   0.661  -0.075   7.552 -0.6801 -0.0059  0.0464
   31CHL1  H21A 2273   0.718  -0.055   7.458 -0.1110  1.4222  0.6602
   31CHL1  H21B 2274   0.569  -0.133   7.532 -1.5939  0.3605  2.7912
   31CHL1  H21C 2275   0.727  -0.110   7.634  0.2207 -1.1653 -1.1311
   31CHL1   C22 2276   0.542   0.053   7.741  0.0356  0.1360  0.1607
   31CHL1  H22A 2277   0.531   0.158   7.774 -0.3486  0.2346 -0.2648
   31CHL1  H22B 2278   0.437   0.018   7.731  0.4797 -0.7159 -1.9103
   31CHL1   C23 2279   0.616  -0.025   7.848  0.0822 -0.8848  0.1550
   31CHL1  H23A 2280   0.598  -0.134   7.841  0.1759 -0.9502  0.9243
   31CHL1  H23B 2281   0.726  -0.010   7.849 -0.1670  1.3446 -0.0601
   31CHL1   C24 2282   0.565   0.034   7.983 -0.8131  0.2069 -0.3140
   31CHL1  H24A 2283   0.570   0.144   7.994 -1.2627  0.3880 -1.7342
   31CHL1  H24B 2284   0.457   0.008   7.987 -0.4715 -1.2575  0.0461
   31CHL1   C25 2285   0.635  -0.027   8.110  0.5478 -0.5252 -0.1086
   31CHL1   H25 2286   0.584   0.007   8.203 -2.2945 -0.0664 -1.7253
   31CHL1   C26 2287   0.611  -0.180   8.118 -0.3886 -0.1572 -0.1336
   31CHL1  H26A 2288   0.683  -0.235   8.055 -0.4004 -1.7461  1.1781
   31CHL1  H26B 2289   0.627  -0.227   8.217  0.6721 -1.5921 -0.9499
   31CHL1  H26C 2290   0.504  -0.183   8.088 -1.1006 -1.1580  2.2562
   31CHL1   C27 2291   0.781   0.018   8.135 -0.6670 -0.4425 -0.5552
   31CHL1  H27A 2292   0.822  -0.018   8.232  0.5655  0.2466 -0.8045
   31CHL1  H27B 2293   0.787   0.129   8.135  0.8884 -0.5000 -0.1182
   31CHL1  H27C 2294   0.841  -0.029   8.054 -0.7659  0.2679 -1.0541
   32CHL1    C3 2295   5.592   5.399   6.909 -0.0034  0.6943  0.2686
   32CHL1    H3 2296   5.601   5.509   6.895  2.2393  0.9342  2.7615
   32CHL1    O3 2297   5.535   5.330   6.797 -0.8048 -0.1451 -0.1163
   32CHL1   H3' 2298   5.528   5.239   6.828  1.6674  0.3383  2.2506
   32CHL1    C4 2299   5.727   5.328   6.937  0.1828  0.3878  0.2769
   32CHL1   H4A 2300   5.708   5.219   6.949 -0.4199  0.5844  1.2785
   32CHL1   H4B 2301   5.796   5.334   6.850  0.5431 -4.2877 -0.0064
   32CHL1    C5 2302   5.799   5.378   7.055 -0.0240 -0.2293 -0.6587
   32CHL1    C6 2303   5.924   5.419   7.056  0.1891 -0.4035  0.3898
   32CHL1    H6 2304   5.990   5.419   6.968 -0.9035  0.9680 -0.4775
   32CHL1    C7 2305   5.994   5.466   7.182  0.1565 -0.2075 -0.4758
   32CHL1   H7A 2306   6.096   5.422   7.176  0.0640 -0.5932  0.6335
   32CHL1   H7B 2307   6.015   5.575   7.186  0.2265 -0.1539 -1.9061
   32CHL1    C8 2308   5.920   5.428   7.322  0.2060 -0.2009  0.2384
   32CHL1    H8 2309   5.942   5.321   7.343  1.5573 -0.0925 -0.5120
   32CHL1   C14 2310   5.971   5.517   7.437  0.9455  0.6118  1.1229
   32CHL1   H14 2311   5.929   5.617   7.414 -2.7270 -0.1013  3.9258
   32CHL1   C15 2312   6.120   5.509   7.474 -0.4138 -0.9332 -0.3752
   32CHL1  H15A 2313   6.151   5.402   7.475 -0.3424 -0.9153 -0.6152
   32CHL1  H15B 2314   6.182   5.555   7.394 -0.5682 -1.8496 -1.0472
   32CHL1   C16 2315   6.124   5.572   7.617 -0.0969 -0.4350 -0.1452
   32CHL1  H16A 2316   6.186   5.506   7.682 -0.1771 -1.9385 -1.5197
   32CHL1  H16B 2317   6.168   5.674   7.622  0.6391 -0.7765  0.7073
   32CHL1   C17 2318   5.970   5.576   7.663 -0.2151  0.4108 -0.1762
   32CHL1   H17 2319   5.937   5.678   7.634  0.0703  1.1454  1.9571
   32CHL1   C13 2320   5.902   5.481   7.564  0.5072 -0.5879 -0.9279
   32CHL1   C18 2321   5.925   5.341   7.616 -0.4442 -0.9669  0.2390
   32CHL1  H18A 2322   5.858   5.325   7.704 -2.3689  0.1644 -0.9395
   32CHL1  H18B 2323   5.886   5.267   7.543  2.5583 -0.4949 -2.0275
   32CHL1  H18C 2324   6.031   5.312   7.634 -0.5450  0.1985  3.2192
   32CHL1   C12 2325   5.754   5.509   7.554 -0.5175 -1.0016 -0.1724
   32CHL1  H12A 2326   5.710   5.481   7.653 -1.0490 -0.8396 -0.3576
   32CHL1  H12B 2327   5.735   5.617   7.536  4.7221 -0.1266 -2.1115
   32CHL1   C11 2328   5.692   5.438   7.440  0.1921 -0.3886 -0.3835
   32CHL1  H11A 2329   5.692   5.329   7.464  1.7528 -0.5438 -0.9363
   32CHL1  H11B 2330   5.587   5.471   7.433  0.1323 -0.2978  0.7373
   32CHL1    C9 2331   5.775   5.452   7.308 -0.0266  0.1550 -0.5843
   32CHL1    H9 2332   5.763   5.557   7.273 -2.4079 -0.3873 -1.5956
   32CHL1   C10 2333   5.709   5.377   7.186 -0.6174 -0.1384  0.4863
   32CHL1   C19 2334   5.703   5.222   7.230  0.0800 -0.1344 -0.6824
   32CHL1  H19A 2335   5.618   5.220   7.301 -0.3173 -0.4878 -1.1609
   32CHL1  H19B 2336   5.677   5.153   7.147 -1.5443 -3.6132  2.4232
   32CHL1  H19C 2337   5.801   5.187   7.268 -0.9721 -1.1045  1.2846
   32CHL1    C1 2338   5.575   5.439   7.153  0.4665  0.0402 -0.1190
   32CHL1   H1A 2339   5.513   5.425   7.244  1.6489  0.3542  0.7504
   32CHL1   H1B 2340   5.586   5.549   7.137 -0.0787 -0.0585 -1.2448
   32CHL1    C2 2341   5.504   5.371   7.036 -0.5322 -0.3742  0.3355
   32CHL1   H2A 2342   5.404   5.418   7.020 -0.2687 -0.5156 -2.1109
   32CHL1   H2B 2343   5.490   5.261   7.049  0.6629 -0.3772  1.8299
   32CHL1   C20 2344   5.947   5.561   7.814 -0.2048 -0.5403 -0.7818
   32CHL1   H20 2345   5.841   5.531   7.832  0.0076 -0.5135  0.6727
   32CHL1   C21 2346   5.963   5.706   7.872 -0.2877  0.9642  0.2625
   32CHL1  H21A 2347   5.932   5.704   7.978 -0.3234 -2.8589  0.3218
   32CHL1  H21B 2348   5.893   5.773   7.816 -0.3753 -0.5997 -1.6401
   32CHL1  H21C 2349   6.071   5.732   7.865  0.5375 -1.9427  0.9711
   32CHL1   C22 2350   6.042   5.460   7.895 -0.2676  0.4697  0.0539
   32CHL1  H22A 2351   6.080   5.382   7.826  0.5158  1.5207 -0.7343
   32CHL1  H22B 2352   6.123   5.525   7.935  0.5322 -0.3566 -0.2007
   32CHL1   C23 2353   5.977   5.403   8.018  0.3036 -0.2333 -0.4970
   32CHL1  H23A 2354   6.048   5.371   8.097 -1.4678 -0.3666  1.1386
   32CHL1  H23B 2355   5.915   5.487   8.056  0.5574 -0.3523  0.1977
   32CHL1   C24 2356   5.874   5.288   8.002  0.0486 -0.2353 -0.1783
   32CHL1  H24A 2357   5.782   5.341   7.971  0.3953  0.2283 -0.4233
   32CHL1  H24B 2358   5.902   5.224   7.915 -1.9086  1.3834 -2.1126
   32CHL1   C25 2359   5.845   5.211   8.136  0.1670 -0.1609 -0.0989
   32CHL1   H25 2360   5.943   5.177   8.177  2.0908  3.9351 -0.7576
   32CHL1   C26 2361   5.793   5.290   8.257  0.6884 -0.1825  0.1404
   32CHL1  H26A 2362   5.846   5.385   8.279 -0.6508  0.3296  1.3488
   32CHL1  H26B 2363   5.687   5.322   8.255  1.1264  1.3855  0.6751
   32CHL1  H26C 2364   5.801   5.219   8.343 -0.8114 -1.6189 -0.8412
   32CHL1   C27 2365   5.740   5.100   8.112 -0.2084  0.2863  0.0115
   32CHL1  H27A 2366   5.654   5.145   8.058  1.7661  2.5858 -1.4631
   32CHL1  H27B 2367   5.785   5.019   8.050  1.5739  0.3969  1.0716
   32CHL1  H27C 2368   5.712   5.051   8.207  1.5118  1.0913  0.9818
   33CHL1    C3 2369   3.295   5.697   6.781  0.6325  0.3431 -0.1529
   33CHL1    H3 2370   3.266   5.589   6.782 -1.2371  0.7948  2.6712
   33CHL1    O3 2371   3.289   5.739   6.642 -0.2862  0.3815 -0.5566
   33CHL1   H3' 2372   3.207   5.789   6.634 -0.1444  1.5489  3.2426
   33CHL1    C4 2373   3.194   5.779   6.871  0.3277  0.3448 -0.3756
   33CHL1   H4A 2374   3.222   5.886   6.856 -2.3433  1.0555 -0.9391
   33CHL1   H4B 2375   3.096   5.756   6.823  0.3559 -0.0331 -0.2570
   33CHL1    C5 2376   3.182   5.739   7.017  0.6137  0.0993  0.4531
   33CHL1    C6 2377   3.071   5.701   7.085  0.8854  0.5915  0.9574
   33CHL1    H6 2378   2.981   5.703   7.022  1.3402 -2.0763  0.0668
   33CHL1    C7 2379   3.075   5.662   7.236 -0.2943 -0.0889  0.4030
   33CHL1   H7A 2380   2.991   5.708   7.292  1.0746  0.1066  2.4138
   33CHL1   H7B 2381   3.069   5.552   7.248  1.3080 -0.2664 -0.0969
   33CHL1    C8 2382   3.206   5.718   7.301 -0.3334  0.6529  0.2380
   33CHL1    H8 2383   3.195   5.828   7.308  0.4102  0.7373  0.2356
   33CHL1   C14 2384   3.218   5.657   7.442  0.1047 -0.0818 -0.4771
   33CHL1   H14 2385   3.239   5.549   7.427  0.4495  0.0635 -1.0752
   33CHL1   C15 2386   3.101   5.683   7.538  0.7953  0.3909  0.1041
   33CHL1  H15A 2387   3.069   5.789   7.527 -0.0426  0.0352 -1.0981
   33CHL1  H15B 2388   3.020   5.608   7.521 -1.4589  2.1467  2.3738
   33CHL1   C16 2389   3.155   5.656   7.671 -1.1471  0.3085 -0.4751
   33CHL1  H16A 2390   3.151   5.745   7.738  1.2596  0.5229 -0.5397
   33CHL1  H16B 2391   3.111   5.569   7.724  1.7187 -1.0099 -0.0485
   33CHL1   C17 2392   3.308   5.640   7.655 -0.1247  0.1111  0.0271
   33CHL1   H17 2393   3.319   5.529   7.644  1.4479  0.2499 -0.0976
   33CHL1   C13 2394   3.342   5.700   7.514  0.5393 -0.1017 -0.8739
   33CHL1   C18 2395   3.353   5.860   7.529 -0.1276 -0.0257 -0.7635
   33CHL1  H18A 2396   3.453   5.878   7.574 -0.5519  0.4037  0.0320
   33CHL1  H18B 2397   3.346   5.917   7.433  1.6350  0.5978 -0.5502
   33CHL1  H18C 2398   3.279   5.897   7.603  0.6529 -0.6108  0.3334
   33CHL1   C12 2399   3.468   5.657   7.433  0.2818  0.5386 -1.1391
   33CHL1  H12A 2400   3.552   5.696   7.494 -0.0345  0.7528 -0.8344
   33CHL1  H12B 2401   3.459   5.546   7.424  0.0660  0.5106 -0.6375
   33CHL1   C11 2402   3.467   5.719   7.297 -0.0951  0.6054  0.5448
   33CHL1  H11A 2403   3.473   5.828   7.314 -4.5389  0.9052  1.5585
   33CHL1  H11B 2404   3.550   5.682   7.234 -0.8046  2.5862 -1.6870
   33CHL1    C9 2405   3.334   5.684   7.222 -0.1831  0.5342  0.3368
   33CHL1    H9 2406   3.334   5.573   7.215 -0.7098  0.3448  2.5079
   33CHL1   C10 2407   3.321   5.751   7.081 -0.2243 -0.2076 -0.2086
   33CHL1   C19 2408   3.353   5.902   7.091 -1.2689 -0.5063 -0.3853
   33CHL1  H19A 2409   3.450   5.929   7.139 -1.1022 -0.6233 -0.6518
   33CHL1  H19B 2410   3.353   5.954   6.992 -1.9421 -1.2072 -0.7668
   33CHL1  H19C 2411   3.282   5.955   7.158 -0.6792 -0.8490  0.5272
   33CHL1    C1 2412   3.430   5.681   6.992  0.5140 -0.9703  0.3146
   33CHL1   H1A 2413   3.525   5.725   7.029  0.6060  0.3393 -1.3678
   33CHL1   H1B 2414   3.443   5.572   7.004 -0.1804 -1.1159 -0.1825
   33CHL1    C2 2415   3.433   5.719   6.841 -0.1767  0.2690  0.5371
   33CHL1   H2A 2416   3.508   5.660   6.784 -0.4024  0.1948  0.3132
   33CHL1   H2B 2417   3.459   5.826   6.825 -0.7445  0.5162  1.2132
   33CHL1   C20 2418   3.392   5.685   7.780 -0.7752 -0.2486 -0.1868
   33CHL1   H20 2419   3.381   5.794   7.799 -1.8331  0.0433 -2.2255
   33CHL1   C21 2420   3.549   5.673   7.757  0.3469 -0.1981  0.7782
   33CHL1  H21A 2421   3.577   5.584   7.696  0.1660  1.3746 -1.7539
   33CHL1  H21B 2422   3.608   5.690   7.849 -0.7662 -0.2375  1.5126
   33CHL1  H21C 2423   3.589   5.753   7.691 -0.8909  0.6264  0.9971
   33CHL1   C22 2424   3.360   5.608   7.907 -0.1389 -0.2687  0.3711
   33CHL1  H22A 2425   3.387   5.666   7.997 -0.6780 -0.3222  0.5692
   33CHL1  H22B 2426   3.250   5.596   7.906 -0.4406  1.7109 -1.7794
   33CHL1   C23 2427   3.417   5.466   7.909 -0.1015 -0.0427  0.1879
   33CHL1  H23A 2428   3.392   5.414   7.814  1.0238 -0.1498 -0.0650
   33CHL1  H23B 2429   3.528   5.461   7.901 -0.2900 -1.3712 -4.5244
   33CHL1   C24 2430   3.385   5.372   8.025  0.3925  0.2355  0.7806
   33CHL1  H24A 2431   3.432   5.274   8.001 -0.0052 -0.0087  0.9773
   33CHL1  H24B 2432   3.447   5.404   8.111 -0.5071  0.1995  1.4610
   33CHL1   C25 2433   3.234   5.357   8.062  0.4942  0.1991  0.1036
   33CHL1   H25 2434   3.200   5.458   8.093  0.0058  0.2476 -0.5670
   33CHL1   C26 2435   3.143   5.312   7.945  0.2402 -0.3912 -0.2975
   33CHL1  H26A 2436   3.035   5.318   7.971  0.1314  0.0995 -0.8321
   33CHL1  H26B 2437   3.159   5.387   7.864  0.9096  1.0012  1.0708
   33CHL1  H26C 2438   3.167   5.210   7.909  0.1035  0.3629 -2.7161
   33CHL1   C27 2439   3.216   5.273   8.190 -0.7646 -0.3164 -1.0162
   33CHL1  H27A 2440   3.107   5.253   8.197 -0.7530 -0.2465 -0.6592
   33CHL1  H27B 2441   3.278   5.181   8.193 -0.2650  0.0542  0.2252
   33CHL1  H27C 2442   3.254   5.328   8.278  0.3744  1.4807 -2.5387
   34CHL1    C3 2443   1.157   4.246   6.862 -0.9988  0.2185 -0.2681
   34CHL1    H3 2444   1.124   4.352   6.867  2.4261  1.3443  1.9235
   34CHL1    O3 2445   1.172   4.233   6.728 -0.2101 -0.1106  0.2126
   34CHL1   H3' 2446   1.207   4.316   6.695  3.0769 -0.3017  2.7239
   34CHL1    C4 2447   1.299   4.229   6.933  0.7414 -0.0633  0.9056
   34CHL1   H4A 2448   1.339   4.135   6.889 -0.3217 -0.4909  0.8181
   34CHL1   H4B 2449   1.366   4.306   6.888  1.0677 -0.8204  0.0816
   34CHL1    C5 2450   1.287   4.236   7.081  0.7245  0.0049  0.8439
   34CHL1    C6 2451   1.351   4.329   7.155 -0.1624 -0.2697  0.5606
   34CHL1    H6 2452   1.422   4.391   7.099  1.1376 -4.0298 -2.3888
   34CHL1    C7 2453   1.336   4.334   7.303 -0.5371  0.1377 -0.2065
   34CHL1   H7A 2454   1.436   4.359   7.345  0.2710 -1.0712 -1.3180
   34CHL1   H7B 2455   1.270   4.410   7.349  1.6664  1.0943  1.5718
   34CHL1    C8 2456   1.282   4.196   7.366 -0.5633  0.3407  0.1907
   34CHL1    H8 2457   1.365   4.122   7.365 -2.0380 -1.6574  4.3783
   34CHL1   C14 2458   1.249   4.225   7.509  0.2891  0.3537  0.5378
   34CHL1   H14 2459   1.164   4.296   7.514 -0.6180 -0.5009 -1.5167
   34CHL1   C15 2460   1.353   4.295   7.598  0.3405 -0.6291 -0.0611
   34CHL1  H15A 2461   1.450   4.254   7.564  0.0738 -0.4712 -1.0145
   34CHL1  H15B 2462   1.346   4.405   7.594 -0.1530 -0.6868 -1.3212
   34CHL1   C16 2463   1.306   4.247   7.738 -0.8608 -0.2449  0.7826
   34CHL1  H16A 2464   1.395   4.200   7.785  0.9207  0.5374 -1.6538
   34CHL1  H16B 2465   1.275   4.328   7.807  0.3989 -0.0460  1.1388
   34CHL1   C17 2466   1.192   4.137   7.723  0.1979  1.2476 -0.5020
   34CHL1   H17 2467   1.094   4.189   7.724 -0.9185 -0.7523  0.9055
   34CHL1   C13 2468   1.216   4.090   7.579 -0.2466 -0.0578 -0.1902
   34CHL1   C18 2469   1.338   3.994   7.584 -1.1271  0.1238  0.6383
   34CHL1  H18A 2470   1.381   3.968   7.485 -1.2146 -1.5979  1.0187
   34CHL1  H18B 2471   1.418   4.036   7.649 -0.7271 -0.4509  0.5184
   34CHL1  H18C 2472   1.307   3.895   7.623 -1.3246 -0.6210 -1.3007
   34CHL1   C12 2473   1.090   4.047   7.507  0.6666 -0.0186 -0.2771
   34CHL1  H12A 2474   1.063   3.948   7.550 -0.4645  0.7501  0.8543
   34CHL1  H12B 2475   1.008   4.118   7.532 -0.6987 -1.9248  0.9223
   34CHL1   C11 2476   1.108   4.024   7.359 -0.4273 -0.2321  0.3977
   34CHL1  H11A 2477   1.164   3.930   7.343 -2.0593 -1.0823 -0.5564
   34CHL1  H11B 2478   1.007   3.994   7.325 -0.3763 -0.2933  0.2991
   34CHL1    C9 2479   1.165   4.152   7.283  0.2390  1.4093 -0.9280
   34CHL1    H9 2480   1.091   4.234   7.294 -0.5256  0.5398  0.9263
   34CHL1   C10 2481   1.183   4.134   7.133  0.0516 -0.6375 -0.2663
   34CHL1   C19 2482   1.236   3.989   7.115  0.2719  0.0846 -0.5436
   34CHL1  H19A 2483   1.169   3.902   7.129  2.3745 -1.5143  0.2281
   34CHL1  H19B 2484   1.245   3.961   7.008  0.3832  0.3337 -0.6016
   34CHL1  H19C 2485   1.331   3.975   7.171  0.3364  0.3723 -0.5753
   34CHL1    C1 2486   1.044   4.145   7.056 -0.3448  0.3713 -0.7275
   34CHL1   H1A 2487   0.982   4.057   7.086 -1.4127  1.0912 -0.7511
   34CHL1   H1B 2488   0.992   4.235   7.095 -1.3832  0.0372 -1.3119
   34CHL1    C2 2489   1.055   4.147   6.907  0.2955 -0.2376 -0.2698
   34CHL1   H2A 2490   0.961   4.176   6.855 -0.5620  0.8678  1.7563
   34CHL1   H2B 2491   1.078   4.045   6.870  0.0310 -0.7024  0.8361
   34CHL1   C20 2492   1.197   4.042   7.848  0.1721  0.0334  0.8450
   34CHL1   H20 2493   1.301   4.004   7.857  0.3424 -0.3203 -1.8409
   34CHL1   C21 2494   1.097   3.923   7.824 -0.2670  0.2666  0.7866
   34CHL1  H21A 2495   1.087   3.844   7.901 -2.2916  0.1655  0.4590
   34CHL1  H21B 2496   1.123   3.871   7.729 -1.7781  2.7235 -1.0895
   34CHL1  H21C 2497   0.996   3.964   7.807  0.0323  1.3478  1.4844
   34CHL1   C22 2498   1.151   4.116   7.976 -0.1784  0.2215  0.1287
   34CHL1  H22A 2499   1.212   4.209   7.976  0.4956 -0.1711 -2.2988
   34CHL1  H22B 2500   1.044   4.141   7.961 -0.6746 -1.8322  0.0196
   34CHL1   C23 2501   1.153   4.038   8.108  0.3238 -0.0528  0.8798
   34CHL1  H23A 2502   1.071   3.963   8.113 -0.3239  0.3358 -2.0321
   34CHL1  H23B 2503   1.246   3.979   8.113  0.1243 -0.3983  0.5746
   34CHL1   C24 2504   1.136   4.135   8.233  0.2204 -0.0315 -0.6055
   34CHL1  H24A 2505   1.238   4.179   8.240 -0.1783  0.8438 -0.0151
   34CHL1  H24B 2506   1.061   4.215   8.212 -0.7244 -0.8394 -0.3647
   34CHL1   C25 2507   1.109   4.074   8.378 -0.3285  0.3683 -0.1924
   34CHL1   H25 2508   1.193   4.007   8.407 -0.6428 -0.1409 -0.4332
   34CHL1   C26 2509   1.096   4.198   8.470  0.2053 -1.0604 -0.3920
   34CHL1  H26A 2510   1.199   4.238   8.476 -0.3867  0.5958 -0.7577
   34CHL1  H26B 2511   1.028   4.274   8.426 -0.9836 -0.1135  2.8286
   34CHL1  H26C 2512   1.054   4.168   8.568  0.0717 -0.5724 -0.2990
   34CHL1   C27 2513   0.990   3.982   8.387 -0.9578 -0.5859  0.1213
   34CHL1  H27A 2514   0.906   4.055   8.389 -0.6348 -0.1767 -0.8243
   34CHL1  H27B 2515   0.976   3.915   8.300  1.6445 -0.4636 -0.4792
   34CHL1  H27C 2516   0.994   3.941   8.490 -1.4795  1.6655  1.1174
   35CHL1    C3 2517   5.100   3.570   7.145  0.2202 -0.5014 -0.1946
   35CHL1    H3 2518   5.157   3.640   7.209  0.0073  0.0408 -0.5920
   35CHL1    O3 2519   5.142   3.593   7.007 -0.2343 -1.0920  0.4899
   35CHL1   H3' 2520   5.127   3.519   6.947  2.0620 -0.4021 -1.0809
   35CHL1    C4 2521   5.145   3.422   7.182 -0.3570 -1.0572 -0.4669
   35CHL1   H4A 2522   5.097   3.355   7.108  1.0652  0.3106 -2.7528
   35CHL1   H4B 2523   5.255   3.422   7.170 -0.1271  0.7186  1.1134
   35CHL1    C5 2524   5.117   3.392   7.327  1.3609  0.4870 -0.1405
   35CHL1    C6 2525   5.213   3.366   7.422 -0.0146  0.5870  0.2831
   35CHL1    H6 2526   5.313   3.352   7.380 -0.4273  0.4830 -0.7107
   35CHL1    C7 2527   5.188   3.326   7.565  0.0995 -0.1927 -0.2869
   35CHL1   H7A 2528   5.248   3.236   7.590  2.3604  1.3369  0.0116
   35CHL1   H7B 2529   5.234   3.408   7.623  2.0132  0.3739 -2.4430
   35CHL1    C8 2530   5.036   3.301   7.594  0.3500 -0.9372 -0.3596
   35CHL1    H8 2531   4.997   3.205   7.553 -1.9360  0.4417 -1.6897
   35CHL1   C14 2532   5.009   3.310   7.740  0.2720 -0.7510 -0.4189
   35CHL1   H14 2533   5.042   3.413   7.768 -0.7846 -0.8684  1.4086
   35CHL1   C15 2534   5.085   3.216   7.838  0.3768 -0.0458 -0.9460
   35CHL1  H15A 2535   5.110   3.120   7.788  0.1102 -1.9507  2.3059
   35CHL1  H15B 2536   5.180   3.265   7.871 -0.3899 -0.0066  1.4083
   35CHL1   C16 2537   4.997   3.198   7.959 -0.0481 -0.3209 -0.4477
   35CHL1  H16A 2538   4.980   3.090   7.981 -0.1506 -0.7129 -2.2269
   35CHL1  H16B 2539   5.046   3.239   8.050  0.6772 -1.7331 -0.1683
   35CHL1   C17 2540   4.869   3.281   7.934 -0.5667 -0.2515 -0.8294
   35CHL1   H17 2541   4.889   3.383   7.973 -0.3318 -1.2456  1.8930
   35CHL1   C13 2542   4.857   3.287   7.780 -0.8034 -0.0237 -0.8284
   35CHL1   C18 2543   4.793   3.157   7.735  0.0173 -0.7002 -0.2695
   35CHL1  H18A 2544   4.782   3.177   7.626  0.7100  1.3742 -0.0068
   35CHL1  H18B 2545   4.857   3.072   7.766 -1.1467 -1.4541  0.1021
   35CHL1  H18C 2546   4.693   3.132   7.776 -0.1085 -1.4012 -1.0012
   35CHL1   C12 2547   4.780   3.408   7.722  0.0047  0.5079  0.2300
   35CHL1  H12A 2548   4.673   3.385   7.738 -0.2598  1.1785 -0.5221
   35CHL1  H12B 2549   4.821   3.486   7.789 -1.9226  1.5071  0.2789
   35CHL1   C11 2550   4.803   3.434   7.576  0.1735 -0.2136  0.5726
   35CHL1  H11A 2551   4.746   3.363   7.512 -0.9627  2.0697 -1.0850
   35CHL1  H11B 2552   4.766   3.535   7.546  0.3893 -0.8191 -1.9647
   35CHL1    C9 2553   4.955   3.412   7.526 -0.8560 -0.1224  0.6053
   35CHL1    H9 2554   4.998   3.506   7.568 -0.2837  0.7054 -1.7056
   35CHL1   C10 2555   4.976   3.414   7.367  0.5774  0.2870  0.0261
   35CHL1   C19 2556   4.882   3.299   7.310  0.3294 -0.0904 -0.2742
   35CHL1  H19A 2557   4.778   3.334   7.325  0.8173  1.2488  0.1391
   35CHL1  H19B 2558   4.887   3.301   7.199  0.1045  3.4306 -0.3350
   35CHL1  H19C 2559   4.896   3.202   7.362  1.3728  0.6429  0.8657
   35CHL1    C1 2560   4.925   3.554   7.320 -0.2753  0.3191  0.0956
   35CHL1   H1A 2561   4.816   3.559   7.340 -0.7741  2.2204 -2.5207
   35CHL1   H1B 2562   4.987   3.625   7.379  0.7999 -2.2011  2.2450
   35CHL1    C2 2563   4.951   3.586   7.166  0.9951 -0.6975 -0.5080
   35CHL1   H2A 2564   4.916   3.689   7.143 -0.6386 -1.4465 -1.5185
   35CHL1   H2B 2565   4.900   3.510   7.104 -1.0884 -0.0196  0.2997
   35CHL1   C20 2566   4.754   3.236   8.031 -0.5362  0.4701  0.5090
   35CHL1   H20 2567   4.747   3.126   8.013  0.7874  0.4766 -0.1731
   35CHL1   C21 2568   4.617   3.300   7.998 -1.0108 -0.4583 -0.0288
   35CHL1  H21A 2569   4.541   3.251   8.063  0.3896 -1.0911  1.1983
   35CHL1  H21B 2570   4.597   3.273   7.892 -0.6060 -4.5727  0.7753
   35CHL1  H21C 2571   4.625   3.411   8.000  2.2673 -0.5979  0.4243
   35CHL1   C22 2572   4.789   3.275   8.173  0.3268  0.0402  0.2741
   35CHL1  H22A 2573   4.890   3.233   8.193  0.9461  0.6978 -1.3267
   35CHL1  H22B 2574   4.792   3.385   8.185 -0.5671  0.1586 -0.4416
   35CHL1   C23 2575   4.697   3.210   8.268  0.2705 -0.0247 -0.3040
   35CHL1  H23A 2576   4.746   3.224   8.367  0.3536 -2.6172  0.0848
   35CHL1  H23B 2577   4.597   3.259   8.272  0.9115  1.2543  2.3032
   35CHL1   C24 2578   4.674   3.061   8.258 -0.7515 -0.0744  0.1035
   35CHL1  H24A 2579   4.591   3.040   8.188 -1.0666  0.9059  0.1687
   35CHL1  H24B 2580   4.758   3.003   8.214  0.4302  0.5003  1.5097
   35CHL1   C25 2581   4.652   3.005   8.398 -0.0374  0.7162 -0.3995
   35CHL1   H25 2582   4.732   3.030   8.471  1.2790  0.0982 -1.5886
   35CHL1   C26 2583   4.512   3.042   8.454  0.1497  0.1038 -0.6910
   35CHL1  H26A 2584   4.483   2.987   8.547 -0.9777 -1.2487 -1.7944
   35CHL1  H26B 2585   4.502   3.148   8.484  1.0483  0.6791 -2.3360
   35CHL1  H26C 2586   4.435   3.020   8.377 -0.0325  2.2373 -1.1680
   35CHL1   C27 2587   4.661   2.849   8.387  0.1467 -0.1541  0.0324
   35CHL1  H27A 2588   4.592   2.814   8.307  2.4964  0.0669 -2.2451
   35CHL1  H27B 2589   4.626   2.809   8.484 -0.1144 -0.4355 -0.1754
   35CHL1  H27C 2590   4.762   2.809   8.362  0.6271  1.0569 -0.0586
   36CHL1    C3 2591   3.042   4.154   7.061 -0.1286 -0.4762  0.6722
   36CHL1    H3 2592   3.128   4.085   7.051  0.0482 -0.2362  0.5121
   36CHL1    O3 2593   2.966   4.145   6.940  0.2433 -0.1415  0.0465
   36CHL1   H3' 2594   2.927   4.058   6.933  1.2542 -0.4641 -3.4565
   36CHL1    C4 2595   2.945   4.100   7.170  0.6674 -0.3981 -0.1158
   36CHL1   H4A 2596   2.845   4.146   7.157  0.2558 -0.3100  2.6536
   36CHL1   H4B 2597   2.932   3.990   7.156 -0.8206 -0.7612  3.1814
   36CHL1    C5 2598   2.983   4.139   7.307 -0.3119  0.7264  0.5098
   36CHL1    C6 2599   2.982   4.041   7.401  0.6185 -0.3654  0.0571
   36CHL1    H6 2600   2.954   3.940   7.369  0.2460 -0.3830  0.4406
   36CHL1    C7 2601   3.018   4.064   7.544 -0.2683 -0.5115 -0.6303
   36CHL1   H7A 2602   2.946   4.000   7.599  3.2033 -2.2443  2.3829
   36CHL1   H7B 2603   3.118   4.020   7.568  0.2118  1.2777  0.9360
   36CHL1    C8 2604   3.023   4.217   7.577 -0.4157 -0.2885  0.3821
   36CHL1    H8 2605   2.916   4.247   7.572 -0.5475 -0.3992  2.0786
   36CHL1   C14 2606   3.104   4.234   7.711  0.0387 -0.1953  0.7397
   36CHL1   H14 2607   3.208   4.206   7.682  1.6350  3.1949  2.6201
   36CHL1   C15 2608   3.068   4.149   7.839 -0.1415 -0.1266  0.3193
   36CHL1  H15A 2609   2.958   4.159   7.847 -0.1781  0.7674 -0.9267
   36CHL1  H15B 2610   3.088   4.040   7.830 -0.8328 -0.2782  0.5913
   36CHL1   C16 2611   3.135   4.215   7.961  0.2423  0.2649  0.5827
   36CHL1  H16A 2612   3.053   4.238   8.032 -0.1292  1.6169 -0.2426
   36CHL1  H16B 2613   3.196   4.146   8.023  1.1756 -0.5207 -1.1354
   36CHL1   C17 2614   3.198   4.348   7.894  0.4961  0.6925  0.0632
   36CHL1   H17 2615   3.302   4.321   7.864  0.2626 -0.1311 -0.0351
   36CHL1   C13 2616   3.119   4.378   7.758 -0.2624  0.2533 -0.3920
   36CHL1   C18 2617   2.979   4.445   7.782 -0.4013 -0.2853  0.6468
   36CHL1  H18A 2618   2.917   4.450   7.690  1.1306  3.2141 -0.3779
   36CHL1  H18B 2619   2.927   4.390   7.863 -0.3157 -0.3081  0.6876
   36CHL1  H18C 2620   2.985   4.550   7.817  0.0538  1.6125 -4.2607
   36CHL1   C12 2621   3.200   4.456   7.650  0.2219  0.4945 -0.0530
   36CHL1  H12A 2622   3.199   4.565   7.670  1.2075  0.4013  0.5612
   36CHL1  H12B 2623   3.300   4.409   7.644 -1.0283 -2.3867 -0.0785
   36CHL1   C11 2624   3.132   4.440   7.520 -0.4240 -0.6311  0.2106
   36CHL1  H11A 2625   3.037   4.497   7.523  0.3585  0.9732 -2.4897
   36CHL1  H11B 2626   3.183   4.497   7.440 -1.1038 -1.2349 -0.6709
   36CHL1    C9 2627   3.099   4.297   7.474  0.2417  0.2822 -0.7161
   36CHL1    H9 2628   3.195   4.242   7.462  0.4588  0.3038  0.7803
   36CHL1   C10 2629   3.039   4.282   7.329 -0.5230  0.6445 -0.1183
   36CHL1   C19 2630   2.912   4.365   7.319  0.6575  0.4123  0.0739
   36CHL1  H19A 2631   2.845   4.349   7.406  1.2142 -1.1474  0.2341
   36CHL1  H19B 2632   2.941   4.473   7.316  1.2245  0.2456 -1.9377
   36CHL1  H19C 2633   2.864   4.342   7.222  2.1811  1.3750 -0.9498
   36CHL1    C1 2634   3.136   4.329   7.215 -0.1285 -0.6290  0.0679
   36CHL1   H1A 2635   3.153   4.438   7.229  1.7496 -0.7964 -0.5703
   36CHL1   H1B 2636   3.230   4.272   7.234  0.6301  0.9171  1.2319
   36CHL1    C2 2637   3.084   4.296   7.079 -0.2593  0.5730  0.0635
   36CHL1   H2A 2638   3.170   4.307   7.009  1.1476  1.6124  1.8361
   36CHL1   H2B 2639   2.997   4.359   7.052  0.2136  1.2307  0.0432
   36CHL1   C20 2640   3.215   4.463   7.995 -0.2828 -0.0266  0.4212
   36CHL1   H20 2641   3.113   4.495   8.023  0.4977  3.5322 -0.3779
   36CHL1   C21 2642   3.273   4.591   7.941  0.1324  0.4381  0.3825
   36CHL1  H21A 2643   3.291   4.667   8.020  0.8387  1.4361 -0.6942
   36CHL1  H21B 2644   3.206   4.631   7.861 -0.0750  0.1796  0.4257
   36CHL1  H21C 2645   3.358   4.566   7.875 -0.2861 -1.2244  0.4442
   36CHL1   C22 2646   3.294   4.434   8.115 -0.4513  0.8399 -0.0475
   36CHL1  H22A 2647   3.327   4.328   8.120 -0.9941  0.5003 -2.5743
   36CHL1  H22B 2648   3.378   4.505   8.121 -1.1609  1.9103 -1.8734
   36CHL1   C23 2649   3.198   4.450   8.238 -0.1128  0.0474  0.1860
   36CHL1  H23A 2650   3.174   4.558   8.246 -2.1545 -0.1776 -2.1037
   36CHL1  H23B 2651   3.108   4.388   8.220  0.0687 -0.0137 -0.5585
   36CHL1   C24 2652   3.266   4.395   8.364  0.3790 -0.0555 -0.7014
   36CHL1  H24A 2653   3.294   4.291   8.337  0.1219  0.0019 -1.1984
   36CHL1  H24B 2654   3.351   4.462   8.388 -0.0684  0.3117 -0.1122
   36CHL1   C25 2655   3.167   4.394   8.485 -0.3996  0.4023  0.0598
   36CHL1   H25 2656   3.079   4.335   8.452  0.1527 -0.0872 -0.5565
   36CHL1   C26 2657   3.226   4.324   8.607  0.3399  0.3656  0.4444
   36CHL1  H26A 2658   3.148   4.278   8.670 -0.3731  0.7146 -0.1665
   36CHL1  H26B 2659   3.302   4.247   8.579 -0.1471 -0.0466  0.2521
   36CHL1  H26C 2660   3.276   4.398   8.673 -0.8121  0.6138  1.0548
   36CHL1   C27 2661   3.121   4.535   8.525  0.0236  0.4631 -0.1537
   36CHL1  H27A 2662   3.067   4.601   8.454  0.1113  0.4029 -0.2765
   36CHL1  H27B 2663   3.062   4.512   8.617 -1.5216  0.7005 -1.0391
   36CHL1  H27C 2664   3.216   4.584   8.554  0.1913  1.1151 -1.7414
   37CHL1    C3 2665   4.162   4.781   6.835  0.0149 -0.3765  0.0465
   37CHL1    H3 2666   4.100   4.874   6.842  1.4932  0.7489 -1.2126
   37CHL1    O3 2667   4.176   4.749   6.704  0.3247 -0.2013 -0.1688
   37CHL1   H3' 2668   4.244   4.680   6.707  1.0124  0.4509  2.8023
   37CHL1    C4 2669   4.305   4.793   6.896  0.0558  0.3072  0.5272
   37CHL1   H4A 2670   4.352   4.694   6.875  1.1754  1.3317 -2.2701
   37CHL1   H4B 2671   4.365   4.862   6.832  0.6417 -1.1751 -0.5956
   37CHL1    C5 2672   4.312   4.829   7.042  0.1097  0.1324 -0.5542
   37CHL1    C6 2673   4.376   4.937   7.089  0.0617 -0.1707  0.2853
   37CHL1    H6 2674   4.436   4.999   7.021 -0.3318 -0.9686 -0.8211
   37CHL1    C7 2675   4.378   4.981   7.229  0.2048 -0.7187  0.7034
   37CHL1   H7A 2676   4.482   5.005   7.260  0.0466  0.3609  0.4243
   37CHL1   H7B 2677   4.314   5.071   7.240  1.5046  0.6441 -2.1133
   37CHL1    C8 2678   4.324   4.867   7.321  0.0669  0.0155  0.6095
   37CHL1    H8 2679   4.399   4.787   7.334 -0.0389 -0.1908 -0.0231
   37CHL1   C14 2680   4.296   4.924   7.457  0.2307 -0.3957 -0.4524
   37CHL1   H14 2681   4.212   4.996   7.448  0.7261  0.5056  1.6599
   37CHL1   C15 2682   4.420   4.987   7.525 -0.2428  0.1565  0.1795
   37CHL1  H15A 2683   4.514   4.930   7.509  0.9473  2.1917 -0.3559
   37CHL1  H15B 2684   4.443   5.086   7.482 -1.9609  1.5692  2.3087
   37CHL1   C16 2685   4.374   4.998   7.669 -0.3589 -0.2719 -0.6971
   37CHL1  H16A 2686   4.452   4.953   7.734 -1.5047 -1.2415  0.0461
   37CHL1  H16B 2687   4.358   5.105   7.695 -1.4602  0.6001 -4.3895
   37CHL1   C17 2688   4.244   4.913   7.685 -0.1469  0.9118 -0.1980
   37CHL1   H17 2689   4.165   4.990   7.674 -0.1252  1.3196  2.1125
   37CHL1   C13 2690   4.231   4.828   7.558  0.2269  0.0212 -0.0449
   37CHL1   C18 2691   4.327   4.706   7.577  0.8529  0.5494 -0.5931
   37CHL1  H18A 2692   4.427   4.744   7.604  0.7965 -0.0244  0.4967
   37CHL1  H18B 2693   4.291   4.635   7.655 -0.0174  2.5309  0.8850
   37CHL1  H18C 2694   4.345   4.649   7.483  0.0684  0.4277 -0.6826
   37CHL1   C12 2695   4.097   4.781   7.507 -0.2103  0.2567 -0.2482
   37CHL1  H12A 2696   4.063   4.718   7.591  1.7623  0.6009  0.8696
   37CHL1  H12B 2697   4.028   4.868   7.507  0.7683  1.0870  1.7973
   37CHL1   C11 2698   4.116   4.718   7.368 -0.2290  0.3901  0.0641
   37CHL1  H11A 2699   4.163   4.618   7.377 -0.0642  0.5235  0.7237
   37CHL1  H11B 2700   4.013   4.705   7.327 -0.7699  1.5030  1.0242
   37CHL1    C9 2701   4.197   4.804   7.269  0.8465  0.2571 -0.4700
   37CHL1    H9 2702   4.133   4.890   7.238 -2.0732 -1.5966  0.0116
   37CHL1   C10 2703   4.217   4.744   7.130 -0.1532  0.0029  0.6276
   37CHL1   C19 2704   4.282   4.607   7.154  0.5613 -0.4807 -0.0601
   37CHL1  H19A 2705   4.319   4.572   7.055 -2.3186 -2.1018 -0.6721
   37CHL1  H19B 2706   4.357   4.606   7.236  2.4276 -3.1279 -1.6464
   37CHL1  H19C 2707   4.207   4.531   7.181  1.3296 -1.1654  0.1849
   37CHL1    C1 2708   4.077   4.723   7.056  0.4263 -0.6276 -0.2602
   37CHL1   H1A 2709   4.014   4.652   7.115 -0.3459  0.1283 -0.1525
   37CHL1   H1B 2710   4.023   4.819   7.070  1.9736 -0.0552  2.6020
   37CHL1    C2 2711   4.083   4.680   6.909  0.1970  0.0635 -0.4798
   37CHL1   H2A 2712   3.980   4.672   6.867 -0.5791  0.8632  1.1337
   37CHL1   H2B 2713   4.127   4.579   6.911  0.6824  0.2291 -1.8976
   37CHL1   C20 2714   4.234   4.846   7.823  0.0172  0.0910  0.9484
   37CHL1   H20 2715   4.296   4.754   7.827 -0.3743 -0.3497 -1.5682
   37CHL1   C21 2716   4.090   4.798   7.862  0.4267  0.1777  0.2200
   37CHL1  H21A 2717   4.062   4.727   7.781  0.2211  2.2216 -1.6070
   37CHL1  H21B 2718   4.014   4.879   7.863  0.9694  0.7000  1.0569
   37CHL1  H21C 2719   4.085   4.743   7.958 -2.0860  1.2160  0.7679
   37CHL1   C22 2720   4.284   4.943   7.933 -0.2492 -0.5720 -0.1006
   37CHL1  H22A 2721   4.252   4.898   8.029 -1.2077  1.8270  0.8042
   37CHL1  H22B 2722   4.394   4.953   7.921 -0.5082  1.7360 -1.1533
   37CHL1   C23 2723   4.210   5.078   7.947 -0.0186  0.4479 -0.6212
   37CHL1  H23A 2724   4.218   5.131   7.849  0.4319 -1.3390 -1.5990
   37CHL1  H23B 2725   4.105   5.047   7.965 -0.5207  2.0402 -0.6647
   37CHL1   C24 2726   4.261   5.154   8.071  0.0118 -0.2343 -0.6431
   37CHL1  H24A 2727   4.190   5.240   8.077 -1.1187 -1.2550  1.2691
   37CHL1  H24B 2728   4.239   5.093   8.161  0.6736  1.4739  0.7376
   37CHL1   C25 2729   4.414   5.193   8.082 -0.1269  0.1355 -0.6926
   37CHL1   H25 2730   4.464   5.108   8.030  1.5264  2.4728 -3.2349
   37CHL1   C26 2731   4.456   5.315   8.006  0.1339  0.1895 -0.5662
   37CHL1  H26A 2732   4.565   5.335   8.019 -0.0291  1.2000 -0.6692
   37CHL1  H26B 2733   4.446   5.308   7.896  4.0050  1.1989 -1.1452
   37CHL1  H26C 2734   4.401   5.406   8.038 -2.1793 -0.3993 -2.5554
   37CHL1   C27 2735   4.462   5.190   8.228  0.0160 -0.9504  0.0781
   37CHL1  H27A 2736   4.433   5.098   8.283 -1.5558 -1.6098 -1.7540
   37CHL1  H27B 2737   4.570   5.214   8.243 -0.7711  2.9170  0.7099
   37CHL1  H27C 2738   4.413   5.268   8.290 -1.1394 -2.2885  0.9078
   38CHL1    C3 2739   6.714   0.268   6.554 -0.3645  0.1038 -0.1510
   38CHL1    H3 2740   6.821   0.275   6.528 -1.0247  0.6521 -3.0990
   38CHL1    O3 2741   6.647   0.259   6.430 -0.2878  0.5306  0.2385
   38CHL1   H3' 2742   6.554   0.257   6.452 -0.4195  0.4939 -0.3120
   38CHL1    C4 2743   6.675   0.146   6.637 -0.2247 -0.1659  0.4964
   38CHL1   H4A 2744   6.564   0.132   6.634 -0.3723  0.7001  1.2911
   38CHL1   H4B 2745   6.714   0.059   6.580 -3.1745 -0.1242 -1.8328
   38CHL1    C5 2746   6.719   0.148   6.778  0.5014  0.7970 -0.7913
   38CHL1    C6 2747   6.803   0.055   6.831  0.3944  0.2349  0.1466
   38CHL1    H6 2748   6.835  -0.033   6.774  1.8951 -0.7441  2.3638
   38CHL1    C7 2749   6.827   0.050   6.981  0.4064  0.5431  0.1381
   38CHL1   H7A 2750   6.814  -0.054   7.018  0.6648  0.7763  0.9070
   38CHL1   H7B 2751   6.932   0.083   6.994  1.3798 -1.3831 -2.1195
   38CHL1    C8 2752   6.748   0.144   7.072  0.2127 -0.1030  0.6754
   38CHL1    H8 2753   6.647   0.097   7.081  0.4371 -0.7467 -0.0417
   38CHL1   C14 2754   6.814   0.163   7.202 -0.5710 -0.1902 -0.1233
   38CHL1   H14 2755   6.911   0.214   7.186 -0.2587 -0.7348  0.0018
   38CHL1   C15 2756   6.855   0.040   7.284 -0.7360 -0.3367 -0.3372
   38CHL1  H15A 2757   6.764  -0.022   7.291 -1.4420  0.8469  2.0426
   38CHL1  H15B 2758   6.929  -0.021   7.227 -0.5646 -0.2051 -0.2570
   38CHL1   C16 2759   6.897   0.099   7.420 -0.8153  0.5835  0.4722
   38CHL1  H16A 2760   6.866   0.029   7.500  0.1296 -1.8386 -1.1338
   38CHL1  H16B 2761   7.008   0.093   7.418 -0.6743  2.5241 -1.1846
   38CHL1   C17 2762   6.852   0.246   7.422 -0.6798  0.0671  0.4749
   38CHL1   H17 2763   6.938   0.302   7.381 -1.8314  0.5374 -1.4743
   38CHL1   C13 2764   6.751   0.260   7.302  0.4569 -0.3816 -0.2810
   38CHL1   C18 2765   6.606   0.215   7.342  0.4107 -0.0827 -0.3373
   38CHL1  H18A 2766   6.621   0.112   7.379 -0.0489 -0.6083 -1.5885
   38CHL1  H18B 2767   6.578   0.281   7.427  1.3335  2.7920 -2.1195
   38CHL1  H18C 2768   6.528   0.214   7.264 -0.2506 -1.8335  0.3091
   38CHL1   C12 2769   6.749   0.392   7.226  0.5373 -0.4883 -0.4808
   38CHL1  H12A 2770   6.697   0.465   7.292  2.8897 -0.2791  1.2661
   38CHL1  H12B 2771   6.850   0.433   7.204  0.6115  0.0283  0.7324
   38CHL1   C11 2772   6.676   0.380   7.090  0.3660  0.4679 -0.2364
   38CHL1  H11A 2773   6.568   0.362   7.107  0.2851 -1.4823 -2.3957
   38CHL1  H11B 2774   6.689   0.481   7.046  2.1341  0.4347  0.1313
   38CHL1    C9 2775   6.736   0.275   6.995 -0.2145  0.0598  0.3792
   38CHL1    H9 2776   6.839   0.303   6.965 -0.2746  2.0402  1.7766
   38CHL1   C10 2777   6.655   0.258   6.863 -1.1273 -1.1879  0.2182
   38CHL1   C19 2778   6.500   0.234   6.888 -0.4729  0.2685 -0.3601
   38CHL1  H19A 2779   6.449   0.321   6.935 -2.1619  0.0039 -1.6005
   38CHL1  H19B 2780   6.456   0.220   6.786  0.3088  1.8239 -0.9481
   38CHL1  H19C 2781   6.484   0.139   6.943 -1.5673 -0.4574 -1.8483
   38CHL1    C1 2782   6.685   0.387   6.773  0.4219  0.6746  0.3354
   38CHL1   H1A 2783   6.632   0.473   6.820  1.0849  1.3398 -0.1137
   38CHL1   H1B 2784   6.794   0.408   6.773  0.4580  0.5491 -0.6146
   38CHL1    C2 2785   6.655   0.386   6.624 -0.7556  0.0490 -0.4018
   38CHL1   H2A 2786   6.687   0.476   6.568  0.1642 -1.5912 -2.6977
   38CHL1   H2B 2787   6.544   0.388   6.617 -0.7843  2.0760  0.0647
   38CHL1   C20 2788   6.816   0.294   7.564  0.1209  0.7029  1.0136
   38CHL1   H20 2789   6.729   0.233   7.598 -1.1874  1.2045 -1.1774
   38CHL1   C21 2790   6.773   0.440   7.562 -0.1485 -0.1837 -0.3940
   38CHL1  H21A 2791   6.766   0.473   7.668 -1.7513 -2.8919  0.4344
   38CHL1  H21B 2792   6.679   0.461   7.506  0.8794 -0.2383 -2.2214
   38CHL1  H21C 2793   6.853   0.492   7.504  0.2115  0.1875  0.4196
   38CHL1   C22 2794   6.931   0.265   7.663 -0.9154 -0.1655 -0.7194
   38CHL1  H22A 2795   6.973   0.163   7.644  1.5466  0.9074 -1.4981
   38CHL1  H22B 2796   7.018   0.331   7.643 -0.8230 -0.1989 -0.4354
   38CHL1   C23 2797   6.899   0.270   7.814 -0.0678 -0.2202  0.1414
   38CHL1  H23A 2798   6.875   0.377   7.832  1.6085  0.3829 -0.8988
   38CHL1  H23B 2799   6.815   0.205   7.846  0.4770 -0.5731  0.8846
   38CHL1   C24 2800   7.018   0.234   7.904  0.1503 -0.3141  0.0698
   38CHL1  H24A 2801   7.054   0.133   7.875 -0.5542 -0.6135  0.2166
   38CHL1  H24B 2802   7.110   0.290   7.877 -0.7604  0.4591 -1.6313
   38CHL1   C25 2803   6.990   0.240   8.057 -0.0776  0.7987 -0.0763
   38CHL1   H25 2804   6.900   0.180   8.082 -0.3812  0.8535 -0.9986
   38CHL1   C26 2805   7.101   0.171   8.136 -0.0146  0.3960 -1.1003
   38CHL1  H26A 2806   7.121   0.071   8.090 -0.7199  0.2135 -1.0284
   38CHL1  H26B 2807   7.195   0.229   8.139 -0.4697  1.1117  0.7890
   38CHL1  H26C 2808   7.061   0.146   8.237  0.8482 -0.1960 -0.8969
   38CHL1   C27 2809   6.978   0.379   8.113 -0.3916  0.4614  0.1895
   38CHL1  H27A 2810   6.914   0.439   8.044 -0.2511  0.9119  0.4507
   38CHL1  H27B 2811   6.945   0.371   8.219  0.7462  0.9473  0.5862
   38CHL1  H27C 2812   7.078   0.423   8.127  0.0217 -0.1850 -0.6184
   39CHL1    C3 2813   5.099   6.784   6.772 -0.0980  0.0281 -0.4702
   39CHL1    H3 2814   5.153   6.880   6.787 -1.5813  0.5648  2.0882
   39CHL1    O3 2815   5.093   6.743   6.636  0.2919  0.5203 -0.2604
   39CHL1   H3' 2816   5.035   6.667   6.642  0.6622  0.3393  2.0437
   39CHL1    C4 2817   5.168   6.672   6.858 -0.2593  0.8876 -0.2832
   39CHL1   H4A 2818   5.120   6.578   6.823  0.3634  1.3555 -2.5831
   39CHL1   H4B 2819   5.271   6.660   6.818 -0.0888 -1.4559  0.7186
   39CHL1    C5 2820   5.159   6.692   7.007 -0.6011  0.6880 -0.0130
   39CHL1    C6 2821   5.272   6.686   7.083  0.0480  0.7944  0.7978
   39CHL1    H6 2822   5.368   6.656   7.039 -0.8253  0.7118 -1.1610
   39CHL1    C7 2823   5.270   6.703   7.227  0.0500 -0.6902  0.1273
   39CHL1   H7A 2824   5.335   6.630   7.280 -1.9788 -1.4232  1.7810
   39CHL1   H7B 2825   5.297   6.805   7.259 -1.4133 -0.9454  2.4215
   39CHL1    C8 2826   5.137   6.684   7.295 -0.0327 -0.4061  0.1726
   39CHL1    H8 2827   5.114   6.575   7.299  0.2085 -0.4954 -0.6644
   39CHL1   C14 2828   5.147   6.738   7.438  0.5179 -0.1981 -0.6743
   39CHL1   H14 2829   5.173   6.845   7.423 -1.0516  0.6164  1.7315
   39CHL1   C15 2830   5.259   6.688   7.528  0.1963  0.7149 -0.0453
   39CHL1  H15A 2831   5.266   6.577   7.520  2.0125  0.7223  1.0531
   39CHL1  H15B 2832   5.354   6.731   7.493  1.1994 -0.5840  0.9685
   39CHL1   C16 2833   5.213   6.743   7.670 -0.0454 -0.6495 -0.3024
   39CHL1  H16A 2834   5.229   6.659   7.740  1.6164  0.4433  0.7013
   39CHL1  H16B 2835   5.282   6.823   7.706  2.9864 -3.2785  0.1212
   39CHL1   C17 2836   5.063   6.793   7.656 -0.7869 -0.0104 -0.1222
   39CHL1   H17 2837   5.075   6.904   7.656  0.6561 -0.1357  0.9459
   39CHL1   C13 2838   5.014   6.735   7.518  0.2551  0.1920  0.2826
   39CHL1   C18 2839   4.963   6.586   7.539  0.0824 -0.7978 -0.4948
   39CHL1  H18A 2840   4.934   6.533   7.445 -1.2663  1.2839 -1.3301
   39CHL1  H18B 2841   5.056   6.547   7.584  1.1431  0.5704 -1.4291
   39CHL1  H18C 2842   4.873   6.584   7.604  2.6750 -0.4192  3.4108
   39CHL1   C12 2843   4.908   6.816   7.437 -0.3609 -0.0902 -0.4822
   39CHL1  H12A 2844   4.809   6.807   7.488  0.1258  0.1946  0.5296
   39CHL1  H12B 2845   4.945   6.920   7.441  0.4769 -0.3851 -0.4128
   39CHL1   C11 2846   4.894   6.766   7.289 -0.1134 -0.3311  0.2244
   39CHL1  H11A 2847   4.848   6.666   7.300  0.2988 -0.4813  0.6207
   39CHL1  H11B 2848   4.835   6.838   7.228  0.8094 -0.5863 -1.0078
   39CHL1    C9 2849   5.028   6.760   7.212 -0.4598  0.0584 -0.4425
   39CHL1    H9 2850   5.060   6.867   7.218 -2.2305  0.5313  3.2822
   39CHL1   C10 2851   5.019   6.720   7.058  0.0180  0.4713 -0.1702
   39CHL1   C19 2852   4.938   6.585   7.050  0.2896 -0.4286 -0.5738
   39CHL1  H19A 2853   4.986   6.507   7.112 -0.9046  0.7679  1.9951
   39CHL1  H19B 2854   4.837   6.605   7.092  1.2750  3.8152  0.1800
   39CHL1  H19C 2855   4.932   6.539   6.948 -1.1578 -1.7599  0.0677
   39CHL1    C1 2856   4.953   6.838   6.973 -0.1436 -0.7941 -0.1166
   39CHL1   H1A 2857   4.850   6.856   7.011 -0.3825 -0.2646 -0.9951
   39CHL1   H1B 2858   5.010   6.934   6.975 -1.0564 -0.2008 -1.2030
   39CHL1    C2 2859   4.959   6.804   6.822  0.0700  0.2741 -0.1421
   39CHL1   H2A 2860   4.917   6.888   6.763  1.0814  0.3668 -0.7550
   39CHL1   H2B 2861   4.892   6.720   6.795  1.7515 -0.4088 -2.5251
   39CHL1   C20 2862   4.976   6.753   7.776  0.1510 -0.5975  0.5145
   39CHL1   H20 2863   4.962   6.644   7.792  1.3240 -0.4730  2.7943
   39CHL1   C21 2864   4.838   6.822   7.768  0.4607  0.4890  0.1639
   39CHL1  H21A 2865   4.784   6.824   7.865  1.6007 -2.1804  0.9469
   39CHL1  H21B 2866   4.774   6.755   7.707  0.5470 -0.8739  1.4981
   39CHL1  H21C 2867   4.831   6.926   7.730  0.4086  0.9148  1.3076
   39CHL1   C22 2868   5.028   6.800   7.915  0.1785  0.6275  0.4592
   39CHL1  H22A 2869   5.134   6.767   7.926  0.4359  1.0465 -0.6607
   39CHL1  H22B 2870   5.024   6.911   7.913 -0.2530  0.6488  1.6273
   39CHL1   C23 2871   4.950   6.733   8.033 -0.2888 -0.0884  0.3434
   39CHL1  H23A 2872   4.840   6.738   8.016 -0.1045 -0.9749 -1.3475
   39CHL1  H23B 2873   4.966   6.623   8.033 -0.7708 -0.1641 -0.2122
   39CHL1   C24 2874   4.992   6.795   8.162 -0.3687 -0.5280  0.0534
   39CHL1  H24A 2875   4.965   6.903   8.172  0.4377 -0.4282  1.3579
   39CHL1  H24B 2876   4.925   6.745   8.236 -0.0922  1.0597  1.4552
   39CHL1   C25 2877   5.135   6.774   8.209  0.1478 -0.6070  0.6562
   39CHL1   H25 2878   5.199   6.833   8.139  0.3062 -1.7860 -0.2195
   39CHL1   C26 2879   5.151   6.835   8.347  0.0183  0.5184 -0.4473
   39CHL1  H26A 2880   5.158   6.945   8.356  0.6070  0.5966 -1.7360
   39CHL1  H26B 2881   5.072   6.787   8.409  1.1420 -1.7318 -0.6537
   39CHL1  H26C 2882   5.242   6.795   8.397  0.0766 -1.8547 -2.2715
   39CHL1   C27 2883   5.184   6.632   8.199 -0.3415 -0.1677  0.0267
   39CHL1  H27A 2884   5.203   6.605   8.093  1.6055 -1.1957  0.5883
   39CHL1  H27B 2885   5.280   6.619   8.253  0.1161  1.3042 -0.3722
   39CHL1  H27C 2886   5.123   6.555   8.250  0.8773 -1.9761 -1.1455
   40CHL1    C3 2887   3.137   4.854   6.836 -0.0575  0.2810 -0.2979
   40CHL1    H3 2888   3.191   4.948   6.858 -0.6560  0.3498  0.9628
   40CHL1    O3 2889   3.165   4.813   6.706  0.1813  0.1121 -0.3090
   40CHL1   H3' 2890   3.135   4.722   6.716  0.8331 -0.3649 -2.1714
   40CHL1    C4 2891   3.182   4.750   6.942  0.2205  0.2853 -0.3503
   40CHL1   H4A 2892   3.165   4.646   6.907  1.8228 -0.3617  0.6501
   40CHL1   H4B 2893   3.292   4.767   6.942  0.7829 -2.5593  1.4668
   40CHL1    C5 2894   3.116   4.776   7.079 -0.6007 -0.0793 -0.2778
   40CHL1    C6 2895   3.173   4.797   7.197 -0.0896 -0.1974  0.4082
   40CHL1    H6 2896   3.283   4.798   7.191 -0.1017 -1.2434 -0.0957
   40CHL1    C7 2897   3.108   4.823   7.330 -0.1418  0.4017 -0.6320
   40CHL1   H7A 2898   3.154   4.765   7.413 -1.2025  1.4664  0.7509
   40CHL1   H7B 2899   3.123   4.932   7.350  0.8960 -0.0282  1.1295
   40CHL1    C8 2900   2.957   4.776   7.331 -0.1692  0.4058 -0.3135
   40CHL1    H8 2901   2.973   4.666   7.325  1.6216  0.4964  1.5619
   40CHL1   C14 2902   2.886   4.833   7.454 -0.2470  0.2024  0.0454
   40CHL1   H14 2903   2.894   4.943   7.440 -2.0759  0.1008 -2.7103
   40CHL1   C15 2904   2.955   4.804   7.592 -0.1466  0.0057 -0.3287
   40CHL1  H15A 2905   2.995   4.700   7.597  0.6035  0.2720 -0.5758
   40CHL1  H15B 2906   3.044   4.870   7.603  0.4023 -0.9117  0.9800
   40CHL1   C16 2907   2.844   4.829   7.690 -0.6362 -0.9705 -1.1796
   40CHL1  H16A 2908   2.824   4.738   7.750 -1.3093  0.0705  0.2338
   40CHL1  H16B 2909   2.874   4.922   7.743  0.0131  1.1592 -4.8996
   40CHL1   C17 2910   2.718   4.859   7.607  0.5116 -0.0384 -0.1506
   40CHL1   H17 2911   2.704   4.968   7.590  0.3159 -0.1812 -0.9376
   40CHL1   C13 2912   2.745   4.787   7.475 -0.0786  0.2664  0.8241
   40CHL1   C18 2913   2.730   4.627   7.490 -0.7546 -0.4503  0.3517
   40CHL1  H18A 2914   2.778   4.589   7.397  0.0569  2.1945 -0.4002
   40CHL1  H18B 2915   2.789   4.595   7.578 -0.1068  3.9772  1.7848
   40CHL1  H18C 2916   2.624   4.595   7.480 -1.1014  0.0650  2.1098
   40CHL1   C12 2917   2.667   4.833   7.344  0.8392 -0.2198 -0.1373
   40CHL1  H12A 2918   2.563   4.794   7.336  1.2987 -1.6791  0.6654
   40CHL1  H12B 2919   2.673   4.944   7.345 -1.2940 -0.0441 -0.9507
   40CHL1   C11 2920   2.735   4.782   7.216 -0.1712  0.7798 -0.1173
   40CHL1  H11A 2921   2.720   4.671   7.217  0.1785  0.6452 -2.7532
   40CHL1  H11B 2922   2.677   4.818   7.129 -0.3873  0.3534 -0.1535
   40CHL1    C9 2923   2.884   4.820   7.205 -0.1876  0.1218 -0.7691
   40CHL1    H9 2924   2.890   4.930   7.221  0.0326 -0.1175  0.9829
   40CHL1   C10 2925   2.957   4.786   7.075 -0.1680  0.1675  0.2853
   40CHL1   C19 2926   2.902   4.651   7.031  0.2837 -0.3367  0.1037
   40CHL1  H19A 2927   2.796   4.645   6.998  0.8562 -2.7796 -1.6041
   40CHL1  H19B 2928   2.955   4.619   6.939 -1.5462 -0.9029 -0.8113
   40CHL1  H19C 2929   2.919   4.577   7.112  2.6592 -1.8166 -1.6224
   40CHL1    C1 2930   2.919   4.898   6.973 -0.7869  0.6010  0.0933
   40CHL1   H1A 2931   2.809   4.896   6.960 -0.6592 -0.2667 -1.0026
   40CHL1   H1B 2932   2.942   5.000   7.012  0.9880 -0.3571  1.7433
   40CHL1    C2 2933   2.981   4.872   6.835 -0.1568 -0.0981  0.0754
   40CHL1   H2A 2934   2.967   4.962   6.771 -3.8126  0.1622  1.0009
   40CHL1   H2B 2935   2.924   4.791   6.785  1.3281 -1.0555 -0.1224
   40CHL1   C20 2936   2.591   4.815   7.686 -0.0988  0.2807  0.2291
   40CHL1   H20 2937   2.598   4.708   7.715 -1.6306  0.7637  2.6696
   40CHL1   C21 2938   2.455   4.820   7.602 -0.5322  0.5642 -0.6124
   40CHL1  H21A 2939   2.368   4.827   7.672  0.4005 -2.1845  0.9802
   40CHL1  H21B 2940   2.443   4.731   7.536 -0.5370  1.5783 -2.0123
   40CHL1  H21C 2941   2.470   4.911   7.541  0.2531  0.8681  0.0186
   40CHL1   C22 2942   2.567   4.894   7.820 -0.3028  0.1172 -0.0498
   40CHL1  H22A 2943   2.665   4.900   7.872  0.6945 -0.7569 -1.7488
   40CHL1  H22B 2944   2.551   5.003   7.805  1.5460  0.7712  2.0733
   40CHL1   C23 2945   2.458   4.837   7.908 -0.9660 -0.0198  1.0933
   40CHL1  H23A 2946   2.359   4.878   7.878 -1.7366 -2.0483  0.7480
   40CHL1  H23B 2947   2.454   4.729   7.885 -0.3940  0.0439  0.6647
   40CHL1   C24 2948   2.485   4.850   8.056  0.3553 -0.1336 -0.8614
   40CHL1  H24A 2949   2.583   4.809   8.090  0.1003  0.2828  0.4640
   40CHL1  H24B 2950   2.493   4.959   8.076  0.8383  0.0964 -2.2190
   40CHL1   C25 2951   2.371   4.790   8.149 -0.7640  0.2865  0.5620
   40CHL1   H25 2952   2.274   4.819   8.102 -0.2623  1.1170  0.0091
   40CHL1   C26 2953   2.358   4.640   8.143  0.0370 -0.9502 -0.1613
   40CHL1  H26A 2954   2.269   4.619   8.207 -1.1919  1.8317 -0.8066
   40CHL1  H26B 2955   2.323   4.596   8.047 -1.9571 -5.0696  2.1432
   40CHL1  H26C 2956   2.454   4.596   8.178  1.4369  1.5050 -0.6770
   40CHL1   C27 2957   2.372   4.840   8.295 -0.1274  0.0468  0.2534
   40CHL1  H27A 2958   2.339   4.946   8.301 -0.8320 -0.1998  0.9240
   40CHL1  H27B 2959   2.303   4.785   8.362 -0.8945  1.4130  0.6278
   40CHL1  H27C 2960   2.472   4.816   8.337 -0.5693 -0.1443  1.2079
   41CHL1    C3 2961   6.595   5.721   6.942  0.4023  0.1109  0.3385
   41CHL1    H3 2962   6.704   5.706   6.933 -0.1544 -3.4636 -2.6851
   41CHL1    O3 2963   6.548   5.773   6.816 -0.0852  0.0190 -0.2052
   41CHL1   H3' 2964   6.590   5.704   6.764  1.1333 -1.5944  2.6401
   41CHL1    C4 2965   6.533   5.582   6.970  0.2640 -0.1593  0.2132
   41CHL1   H4A 2966   6.423   5.593   6.970  0.2669  0.0349  1.3126
   41CHL1   H4B 2967   6.557   5.520   6.881 -0.4192  0.3212 -0.3109
   41CHL1    C5 2968   6.573   5.514   7.101  0.7539  0.5665  0.3020
   41CHL1    C6 2969   6.610   5.382   7.110 -0.1228  0.2099  0.3825
   41CHL1    H6 2970   6.609   5.318   7.021  0.0311 -0.8255  1.1005
   41CHL1    C7 2971   6.653   5.315   7.232  0.3581  0.4101 -0.7604
   41CHL1   H7A 2972   6.612   5.212   7.244 -0.9764  1.2071  2.7386
   41CHL1   H7B 2973   6.762   5.297   7.227  0.5700  1.7807 -3.9829
   41CHL1    C8 2974   6.603   5.396   7.359 -0.4536 -0.0155  0.4036
   41CHL1    H8 2975   6.495   5.374   7.361 -0.1531 -1.8830 -0.9703
   41CHL1   C14 2976   6.672   5.341   7.482  0.0557 -1.1068 -0.4591
   41CHL1   H14 2977   6.778   5.366   7.462  0.0628 -0.7270  0.0332
   41CHL1   C15 2978   6.675   5.187   7.502  0.0059 -0.1492  0.1186
   41CHL1  H15A 2979   6.569   5.156   7.490 -0.2689  0.1954  1.5034
   41CHL1  H15B 2980   6.738   5.123   7.437 -0.2084 -0.4112  0.1653
   41CHL1   C16 2981   6.705   5.180   7.659 -0.6536  0.8555 -0.0014
   41CHL1  H16A 2982   6.615   5.136   7.706 -1.6029  1.5340 -1.1243
   41CHL1  H16B 2983   6.797   5.126   7.690 -1.1448  0.3897  0.6762
   41CHL1   C17 2984   6.725   5.332   7.716  0.6271  0.3669 -0.3199
   41CHL1   H17 2985   6.827   5.363   7.685  0.4678  1.0154 -0.2118
   41CHL1   C13 2986   6.638   5.411   7.617 -0.2072  0.1531 -0.5011
   41CHL1   C18 2987   6.487   5.391   7.653 -0.2180 -0.0316 -0.2588
   41CHL1  H18A 2988   6.426   5.383   7.561  0.0868 -1.2299 -0.3659
   41CHL1  H18B 2989   6.473   5.298   7.711 -2.1719 -0.5874 -1.5488
   41CHL1  H18C 2990   6.452   5.477   7.713  1.5342 -0.4172  1.4208
   41CHL1   C12 2991   6.681   5.560   7.604  0.4117  0.4420  0.2162
   41CHL1  H12A 2992   6.654   5.612   7.699  0.6958 -0.8004  0.9972
   41CHL1  H12B 2993   6.789   5.562   7.578  0.3039 -0.5517 -0.3652
   41CHL1   C11 2994   6.599   5.619   7.481  0.2369  0.0201  0.3856
   41CHL1  H11A 2995   6.489   5.603   7.489  0.5851 -1.6562  4.9216
   41CHL1  H11B 2996   6.630   5.725   7.488  0.5660 -0.1553  2.3458
   41CHL1    C9 2997   6.628   5.549   7.343 -0.3137 -0.8435  0.0942
   41CHL1    H9 2998   6.736   5.570   7.334 -0.8053  2.4532  0.6378
   41CHL1   C10 2999   6.567   5.607   7.219  0.5387  0.4137  0.5363
   41CHL1   C19 3000   6.408   5.621   7.247  0.2735  0.5450  0.4789
   41CHL1  H19A 3001   6.373   5.520   7.277  2.0667 -0.4104 -0.4345
   41CHL1  H19B 3002   6.391   5.702   7.322 -0.9527  1.2770 -0.5551
   41CHL1  H19C 3003   6.350   5.653   7.158  1.0310  0.4713 -0.0560
   41CHL1    C1 3004   6.633   5.752   7.177 -0.1551 -0.0000  0.6395
   41CHL1   H1A 3005   6.629   5.819   7.266  3.2701  1.8896 -0.4206
   41CHL1   H1B 3006   6.740   5.723   7.167 -0.0653 -0.3881  2.3149
   41CHL1    C2 3007   6.575   5.824   7.050  0.3735  0.5312  0.2010
   41CHL1   H2A 3008   6.610   5.927   7.030  1.9111  0.1364  0.7080
   41CHL1   H2B 3009   6.466   5.835   7.067  0.5329  0.9804  0.9635
   41CHL1   C20 3010   6.710   5.348   7.866  0.3431 -0.2514  0.2371
   41CHL1   H20 3011   6.611   5.386   7.898  0.5811  0.3546  0.2766
   41CHL1   C21 3012   6.811   5.464   7.902  0.1633  0.6392  0.1927
   41CHL1  H21A 3013   6.819   5.468   8.013 -1.6792 -2.3886  0.5579
   41CHL1  H21B 3014   6.775   5.563   7.868 -0.0668  0.7541  0.7567
   41CHL1  H21C 3015   6.916   5.458   7.869  0.4010 -3.4035  1.1243
   41CHL1   C22 3016   6.737   5.222   7.949  0.6853  0.0147 -0.0797
   41CHL1  H22A 3017   6.666   5.141   7.919 -3.2018  2.2461  2.1968
   41CHL1  H22B 3018   6.842   5.190   7.935  0.8653  0.2120  0.7871
   41CHL1   C23 3019   6.713   5.248   8.098  0.0040  0.0855  0.2139
   41CHL1  H23A 3020   6.810   5.288   8.133  1.4105 -1.5636 -1.6198
   41CHL1  H23B 3021   6.635   5.327   8.104  0.1310  0.3158 -0.8272
   41CHL1   C24 3022   6.688   5.128   8.187 -0.0217  0.1534 -0.2358
   41CHL1  H24A 3023   6.577   5.122   8.181 -0.1149  0.3100  1.0081
   41CHL1  H24B 3024   6.733   5.030   8.162 -0.2389 -1.0526  3.4338
   41CHL1   C25 3025   6.710   5.161   8.340  0.2255  0.8554  0.0125
   41CHL1   H25 3026   6.656   5.082   8.395  1.0304  0.0400 -0.3521
   41CHL1   C26 3027   6.866   5.157   8.367  0.0633 -0.3600 -0.4740
   41CHL1  H26A 3028   6.886   5.184   8.473 -1.2173 -0.5463 -0.1781
   41CHL1  H26B 3029   6.913   5.060   8.339  0.7990 -0.3973  0.8095
   41CHL1  H26C 3030   6.922   5.229   8.303  1.1396  0.8084  1.6551
   41CHL1   C27 3031   6.659   5.299   8.373 -0.3368  0.3312  0.2848
   41CHL1  H27A 3032   6.693   5.375   8.300  1.6123  0.9998  1.7995
   41CHL1  H27B 3033   6.549   5.304   8.384 -0.2779 -1.8129  2.9466
   41CHL1  H27C 3034   6.714   5.345   8.458 -0.8189  1.0343  0.2217
   42CHL1    C3 3035   0.833   2.696   6.898  0.6633 -0.0414  0.3166
   42CHL1    H3 3036   0.927   2.642   6.924  0.9020  0.1013 -0.2241
   42CHL1    O3 3037   0.810   2.699   6.760  0.2415 -0.0882 -0.2992
   42CHL1   H3' 3038   0.795   2.608   6.732  2.5323 -0.8188  0.6720
   42CHL1    C4 3039   0.708   2.633   6.955  0.9530  0.3256 -1.1671
   42CHL1   H4A 3040   0.616   2.689   6.929  0.6305 -0.2170 -1.2184
   42CHL1   H4B 3041   0.690   2.538   6.900 -0.6626 -0.2694  0.3072
   42CHL1    C5 3042   0.720   2.613   7.101 -0.8771  1.2163  0.5953
   42CHL1    C6 3043   0.720   2.488   7.156 -0.5481 -0.5707  0.4992
   42CHL1    H6 3044   0.689   2.403   7.093  1.2546 -1.8600  1.2798
   42CHL1    C7 3045   0.739   2.458   7.305 -0.2314 -1.1606 -0.3280
   42CHL1   H7A 3046   0.654   2.399   7.343 -0.1924 -0.3082  1.1484
   42CHL1   H7B 3047   0.840   2.414   7.321  1.2056  1.7238 -0.7354
   42CHL1    C8 3048   0.730   2.591   7.386  0.3429 -0.1878  0.1683
   42CHL1    H8 3049   0.622   2.613   7.374 -0.0168 -2.0971 -0.3982
   42CHL1   C14 3050   0.768   2.567   7.530  0.0221  1.0840  0.2166
   42CHL1   H14 3051   0.874   2.537   7.516 -0.5169 -1.7018  1.4504
   42CHL1   C15 3052   0.699   2.446   7.608 -0.2704 -0.0672  0.8461
   42CHL1  H15A 3053   0.594   2.445   7.574  0.5009 -1.5727 -1.7366
   42CHL1  H15B 3054   0.741   2.347   7.581 -1.6092 -0.4375  0.0460
   42CHL1   C16 3055   0.728   2.479   7.753  0.7337  0.3781  0.5167
   42CHL1  H16A 3056   0.628   2.489   7.801  1.0698 -2.3181  2.0191
   42CHL1  H16B 3057   0.781   2.394   7.800 -2.8008 -3.1744 -1.3098
   42CHL1   C17 3058   0.811   2.602   7.753 -0.5421 -0.0293 -0.4475
   42CHL1   H17 3059   0.917   2.569   7.743 -0.0883  1.3636 -0.3483
   42CHL1   C13 3060   0.776   2.684   7.619  0.0940  0.2634 -0.5436
   42CHL1   C18 3061   0.642   2.748   7.642  0.4417 -0.5599 -0.8173
   42CHL1  H18A 3062   0.597   2.804   7.557 -0.5405  1.7007  1.0753
   42CHL1  H18B 3063   0.559   2.681   7.673  1.3066 -0.6966  1.3749
   42CHL1  H18C 3064   0.651   2.825   7.721  0.8250  0.2425 -1.6226
   42CHL1   C12 3065   0.872   2.785   7.556 -0.5599 -0.9092  0.2629
   42CHL1  H12A 3066   0.882   2.874   7.623 -1.7401 -0.1909 -0.4754
   42CHL1  H12B 3067   0.966   2.731   7.532 -1.4662 -2.2707 -0.3128
   42CHL1   C11 3068   0.829   2.832   7.414  0.1334  0.0345  0.3888
   42CHL1  H11A 3069   0.727   2.874   7.423 -0.6788 -1.7869  0.1437
   42CHL1  H11B 3070   0.904   2.905   7.378 -0.3986  2.2633  3.4564
   42CHL1    C9 3071   0.811   2.705   7.324  0.4866 -0.1730 -0.2227
   42CHL1    H9 3072   0.908   2.657   7.302  0.8170  0.3327  0.0861
   42CHL1   C10 3073   0.754   2.741   7.180 -0.2639 -0.2872 -1.0969
   42CHL1   C19 3074   0.613   2.816   7.190  0.3659 -0.9046 -0.5133
   42CHL1  H19A 3075   0.566   2.851   7.095  1.6504  1.2512 -0.4362
   42CHL1  H19B 3076   0.544   2.759   7.256  0.1134 -0.5755 -0.4856
   42CHL1  H19C 3077   0.630   2.916   7.237 -1.1781 -0.7536 -0.1996
   42CHL1    C1 3078   0.853   2.840   7.105 -0.2853  0.0577 -0.2619
   42CHL1   H1A 3079   0.856   2.940   7.153 -0.6138 -0.4903  0.9668
   42CHL1   H1B 3080   0.952   2.794   7.127 -1.3907 -1.3917  2.2397
   42CHL1    C2 3081   0.838   2.835   6.955 -0.1348  0.4561  0.4009
   42CHL1   H2A 3082   0.923   2.889   6.909 -1.0135  2.5253  1.1047
   42CHL1   H2B 3083   0.737   2.881   6.942 -0.2284  0.0333 -0.4907
   42CHL1   C20 3084   0.826   2.672   7.895  0.4250 -0.0740  0.6298
   42CHL1   H20 3085   0.871   2.771   7.873 -1.3849  1.0997  1.9086
   42CHL1   C21 3086   0.941   2.611   7.976  0.2530 -0.4230 -0.0293
   42CHL1  H21A 3087   0.944   2.656   8.078 -1.9459  0.4467 -0.3018
   42CHL1  H21B 3088   1.043   2.614   7.931  0.0618  2.2067 -0.4438
   42CHL1  H21C 3089   0.907   2.505   7.977 -2.5113  0.3592  2.3244
   42CHL1   C22 3090   0.707   2.670   7.982  0.0418  0.3425  0.2134
   42CHL1  H22A 3091   0.611   2.685   7.930 -0.4617 -0.0866  1.0023
   42CHL1  H22B 3092   0.702   2.568   8.026 -1.6876  0.7298  0.9705
   42CHL1   C23 3093   0.700   2.762   8.102 -0.0574 -0.3327 -0.5552
   42CHL1  H23A 3094   0.800   2.766   8.150  0.9751 -1.9038 -2.4232
   42CHL1  H23B 3095   0.694   2.869   8.073  0.1854  0.1606  1.1263
   42CHL1   C24 3096   0.585   2.730   8.207 -0.0060  0.2265  0.1057
   42CHL1  H24A 3097   0.487   2.739   8.155 -0.3908 -0.2059  0.7399
   42CHL1  H24B 3098   0.580   2.623   8.238  0.7286 -0.2558 -1.3284
   42CHL1   C25 3099   0.589   2.804   8.338 -0.2704 -0.3164  0.3717
   42CHL1   H25 3100   0.634   2.903   8.316  0.2237 -0.3689  1.1043
   42CHL1   C26 3101   0.452   2.847   8.391  0.5359 -0.1645 -0.4677
   42CHL1  H26A 3102   0.419   2.937   8.334  3.0647  1.8708  1.0485
   42CHL1  H26B 3103   0.371   2.771   8.399 -0.7456  1.3212  1.4965
   42CHL1  H26C 3104   0.465   2.890   8.493  1.2327  0.8796 -0.9810
   42CHL1   C27 3105   0.678   2.742   8.449  0.3547  0.6413  0.9123
   42CHL1  H27A 3106   0.779   2.706   8.421  0.4966  2.5161 -1.3179
   42CHL1  H27B 3107   0.633   2.650   8.491  0.3503  0.2808  0.1365
   42CHL1  H27C 3108   0.683   2.825   8.524 -1.2225  2.3950 -0.8016
   43CHL1    C3 3109   3.298   6.240   6.637 -0.1736 -0.5302 -0.5269
   43CHL1    H3 3110   3.209   6.185   6.674 -1.8048  1.5659 -1.1305
   43CHL1    O3 3111   3.293   6.267   6.499  0.2316 -0.5963  0.3534
   43CHL1   H3' 3112   3.369   6.323   6.482 -1.2197  1.6052  0.7228
   43CHL1    C4 3113   3.297   6.382   6.697 -0.2513  0.0124  0.4946
   43CHL1   H4A 3114   3.389   6.426   6.654  0.5586 -0.5818  1.5649
   43CHL1   H4B 3115   3.205   6.436   6.666 -0.8009 -1.0182  0.2882
   43CHL1    C5 3116   3.310   6.377   6.848 -0.4544 -0.5035  0.2264
   43CHL1    C6 3117   3.210   6.415   6.934  0.2610  0.3535  0.9723
   43CHL1    H6 3118   3.121   6.460   6.887  0.8663  0.1428 -0.4472
   43CHL1    C7 3119   3.212   6.407   7.078 -0.3336 -0.0450 -0.0159
   43CHL1   H7A 3120   3.160   6.498   7.115 -2.2891 -1.1119  0.0429
   43CHL1   H7B 3121   3.148   6.320   7.107 -1.6431  1.0874  0.6037
   43CHL1    C8 3122   3.360   6.389   7.125  0.7620  0.0941 -0.3330
   43CHL1    H8 3123   3.414   6.486   7.117 -1.1529  1.1392 -1.1575
   43CHL1   C14 3124   3.345   6.342   7.269  0.6361  0.8631 -0.5131
   43CHL1   H14 3125   3.299   6.242   7.261  0.4671  0.8484  0.5122
   43CHL1   C15 3126   3.261   6.423   7.368  0.1017  0.0418 -0.0769
   43CHL1  H15A 3127   3.294   6.528   7.354  2.0992 -0.8192 -2.4315
   43CHL1  H15B 3128   3.150   6.427   7.358 -0.1458  2.1464  2.4859
   43CHL1   C16 3129   3.297   6.369   7.505 -0.2158  0.2406 -0.0373
   43CHL1  H16A 3130   3.325   6.458   7.564 -1.5017 -0.9290  2.4671
   43CHL1  H16B 3131   3.213   6.307   7.544 -0.9977 -0.4050 -2.5540
   43CHL1   C17 3132   3.422   6.276   7.493  0.5363 -0.1492  0.0239
   43CHL1   H17 3133   3.398   6.167   7.492  1.1199 -0.2832  0.1573
   43CHL1   C13 3134   3.467   6.310   7.344 -1.0217  0.4547 -1.0468
   43CHL1   C18 3135   3.566   6.427   7.348  0.1506  0.2777 -0.4225
   43CHL1  H18A 3136   3.533   6.512   7.412 -1.6551 -0.2615 -0.5813
   43CHL1  H18B 3137   3.666   6.401   7.389 -0.2163  1.5412  1.4381
   43CHL1  H18C 3138   3.587   6.475   7.250  1.4697  0.4315 -0.0835
   43CHL1   C12 3139   3.539   6.196   7.274 -0.8285  0.4289 -0.2612
   43CHL1  H12A 3140   3.643   6.185   7.311 -0.3930  1.1694 -1.2191
   43CHL1  H12B 3141   3.477   6.109   7.303  0.7860 -0.6629  0.0820
   43CHL1   C11 3142   3.556   6.223   7.123 -0.0088 -0.0288 -0.1180
   43CHL1  H11A 3143   3.639   6.294   7.105  0.2351 -0.3041 -0.0831
   43CHL1  H11B 3144   3.587   6.131   7.069  2.1128  0.7372 -0.2668
   43CHL1    C9 3145   3.427   6.271   7.047 -0.4066  0.6204 -0.0127
   43CHL1    H9 3146   3.352   6.189   7.054  2.2696 -2.0703 -0.7456
   43CHL1   C10 3147   3.443   6.311   6.896 -0.0219  0.2349 -1.0739
   43CHL1   C19 3148   3.572   6.400   6.880  0.2561 -0.0368  0.3559
   43CHL1  H19A 3149   3.577   6.463   6.971  0.5242  0.4373  0.0174
   43CHL1  H19B 3150   3.663   6.336   6.873  0.0809 -0.2588  0.0558
   43CHL1  H19C 3151   3.556   6.472   6.797  2.1852  0.2334  0.1857
   43CHL1    C1 3152   3.461   6.174   6.823  0.0631  0.0578 -0.6386
   43CHL1   H1A 3153   3.564   6.137   6.841  0.4605  1.0786 -0.7754
   43CHL1   H1B 3154   3.393   6.095   6.862  0.1202  0.8600  1.1908
   43CHL1    C2 3155   3.433   6.177   6.673  0.0833  0.7556 -0.1809
   43CHL1   H2A 3156   3.433   6.072   6.638 -0.4928  0.4652  0.6407
   43CHL1   H2B 3157   3.516   6.224   6.617  0.4240  0.3501 -0.0212
   43CHL1   C20 3158   3.511   6.305   7.619  0.6937 -0.0909  1.0609
   43CHL1   H20 3159   3.534   6.414   7.624  2.3450 -0.2217 -1.6568
   43CHL1   C21 3160   3.631   6.217   7.609 -0.1727 -0.7978  0.4926
   43CHL1  H21A 3161   3.686   6.190   7.702  1.8550 -0.8322 -0.6470
   43CHL1  H21B 3162   3.707   6.272   7.550  0.9649  1.2683  3.6204
   43CHL1  H21C 3163   3.604   6.118   7.566  0.1591 -0.6348 -0.1099
   43CHL1   C22 3164   3.431   6.277   7.750 -0.4705 -0.2712 -0.3159
   43CHL1  H22A 3165   3.508   6.291   7.829 -0.1444 -1.5322 -0.3949
   43CHL1  H22B 3166   3.340   6.339   7.762  0.4016  0.5883  2.6225
   43CHL1   C23 3167   3.381   6.129   7.784 -0.7284 -0.3099 -0.4170
   43CHL1  H23A 3168   3.325   6.089   7.696 -3.0595  1.3815  0.2071
   43CHL1  H23B 3169   3.470   6.061   7.788  0.5499  1.2658 -0.9341
   43CHL1   C24 3170   3.299   6.122   7.912 -0.1690 -0.0470 -0.3245
   43CHL1  H24A 3171   3.220   6.198   7.892 -0.3689 -0.7335 -2.3411
   43CHL1  H24B 3172   3.246   6.024   7.924 -0.0490  0.0345  1.0550
   43CHL1   C25 3173   3.386   6.143   8.035 -0.2510 -0.5216 -0.3457
   43CHL1   H25 3174   3.439   6.239   8.018  2.2461 -1.6895  0.3286
   43CHL1   C26 3175   3.298   6.189   8.154 -0.2883 -0.3591  0.0880
   43CHL1  H26A 3176   3.361   6.195   8.245 -0.1289 -1.1706  0.0376
   43CHL1  H26B 3177   3.251   6.287   8.132 -0.6847 -0.8903 -1.5772
   43CHL1  H26C 3178   3.217   6.117   8.180 -0.8611  0.8774  1.9609
   43CHL1   C27 3179   3.485   6.027   8.063  0.3785 -0.6137  0.8152
   43CHL1  H27A 3180   3.553   6.002   7.979 -0.4994 -0.9614  0.1853
   43CHL1  H27B 3181   3.549   6.057   8.148 -0.4448  0.9791  0.9107
   43CHL1  H27C 3182   3.420   5.941   8.089 -1.3550  0.0128 -1.1728
   44CHL1    C3 3183   3.916   5.421   6.583  0.0571  0.2370  0.3759
   44CHL1    H3 3184   4.024   5.393   6.582  0.1558  0.5459  1.3838
   44CHL1    O3 3185   3.869   5.435   6.447  0.1766  0.0178 -0.4424
   44CHL1   H3' 3186   3.774   5.418   6.447  0.3881 -1.2656 -0.2067
   44CHL1    C4 3187   3.844   5.306   6.660 -0.0824  0.0833  0.7743
   44CHL1   H4A 3188   3.736   5.327   6.644  0.0407 -0.3722 -0.8932
   44CHL1   H4B 3189   3.864   5.210   6.608  1.8546  1.0847 -0.4769
   44CHL1    C5 3190   3.880   5.293   6.806 -0.0677 -0.4595  0.2728
   44CHL1    C6 3191   3.934   5.180   6.856  0.6463 -0.1052  0.1843
   44CHL1    H6 3192   3.959   5.099   6.787  3.6473  2.2729 -1.7997
   44CHL1    C7 3193   3.956   5.154   7.005 -0.3220  0.0315  0.0334
   44CHL1   H7A 3194   3.927   5.054   7.043 -1.0493  0.5735  0.9510
   44CHL1   H7B 3195   4.064   5.174   7.023 -0.2400  0.2758 -0.7049
   44CHL1    C8 3196   3.879   5.261   7.087  0.3044  0.1986  0.0957
   44CHL1    H8 3197   3.771   5.235   7.089  0.5171 -0.6650  0.8300
   44CHL1   C14 3198   3.942   5.258   7.229  0.5210  0.1306 -0.7662
   44CHL1   H14 3199   4.043   5.301   7.212  0.8184  0.0070  0.5793
   44CHL1   C15 3200   3.972   5.122   7.307  0.0478 -0.0332 -0.0475
   44CHL1  H15A 3201   3.916   5.032   7.273 -1.9660  1.0714  0.1872
   44CHL1  H15B 3202   4.080   5.101   7.287 -0.0192  0.3074 -0.8145
   44CHL1   C16 3203   3.954   5.165   7.458 -0.2875  0.1089 -0.0469
   44CHL1  H16A 3204   3.864   5.122   7.506  0.7192 -1.6618  0.3736
   44CHL1  H16B 3205   4.039   5.128   7.519 -0.5787 -1.6442 -0.6296
   44CHL1   C17 3206   3.951   5.318   7.456  0.1706  0.1164  0.6536
   44CHL1   H17 3207   4.057   5.353   7.454 -0.2842  1.5190 -0.3126
   44CHL1   C13 3208   3.876   5.357   7.326  0.2087 -0.2796  0.5074
   44CHL1   C18 3209   3.730   5.319   7.327  0.1720  0.3237 -0.0471
   44CHL1  H18A 3210   3.670   5.337   7.235 -1.4123  0.5122  0.9998
   44CHL1  H18B 3211   3.709   5.212   7.346 -2.3221  0.6959 -0.4405
   44CHL1  H18C 3212   3.683   5.382   7.405  0.4129 -0.1641  0.5034
   44CHL1   C12 3213   3.899   5.504   7.268  0.3163  0.4961 -0.1741
   44CHL1  H12A 3214   3.846   5.584   7.324  0.1602  1.4594 -1.6430
   44CHL1  H12B 3215   4.007   5.530   7.264  0.5803 -0.4471  0.4555
   44CHL1   C11 3216   3.859   5.521   7.121  0.0561  0.0636  0.0707
   44CHL1  H11A 3217   3.749   5.540   7.124  0.0522 -0.0915  1.2088
   44CHL1  H11B 3218   3.896   5.620   7.086  1.4080 -0.9767 -1.5986
   44CHL1    C9 3219   3.900   5.411   7.028 -0.0440  0.4406  0.0009
   44CHL1    H9 3220   4.009   5.429   7.018 -0.1614  0.6258 -1.1024
   44CHL1   C10 3221   3.849   5.424   6.884  0.1237  0.0921  0.6642
   44CHL1   C19 3222   3.697   5.438   6.870  0.4729  0.2839 -0.0156
   44CHL1  H19A 3223   3.668   5.473   6.768 -1.4404 -2.3526 -0.4972
   44CHL1  H19B 3224   3.641   5.344   6.889  0.9930 -0.3783 -1.5808
   44CHL1  H19C 3225   3.647   5.519   6.927 -0.4039 -1.1215  1.2912
   44CHL1    C1 3226   3.934   5.539   6.811  0.5046  0.0908 -0.1554
   44CHL1   H1A 3227   3.912   5.637   6.857 -1.4412 -1.2737  2.0872
   44CHL1   H1B 3228   4.042   5.517   6.820  0.2279 -1.8983 -1.0159
   44CHL1    C2 3229   3.908   5.551   6.661  0.5821 -0.7575  0.0745
   44CHL1   H2A 3230   3.970   5.630   6.613  0.2410  0.8860  2.1720
   44CHL1   H2B 3231   3.803   5.587   6.663  0.8471  0.0729 -0.4243
   44CHL1   C20 3232   3.901   5.379   7.588  0.0800  0.2550 -0.0653
   44CHL1   H20 3233   3.794   5.394   7.565  0.0539 -0.4356 -0.4110
   44CHL1   C21 3234   3.969   5.519   7.612  0.0456 -0.1347  0.1472
   44CHL1  H21A 3235   3.915   5.575   7.691 -0.3924  0.6886 -0.7163
   44CHL1  H21B 3236   3.929   5.570   7.522 -2.0767  0.9639  1.6279
   44CHL1  H21C 3237   4.079   5.510   7.627 -0.1969 -1.9057  1.0710
   44CHL1   C22 3238   3.906   5.287   7.712 -0.8519  0.5875 -0.7693
   44CHL1  H22A 3239   3.870   5.182   7.699  1.6053 -0.6977  1.6200
   44CHL1  H22B 3240   4.011   5.282   7.748 -0.9874  0.6393 -0.3623
   44CHL1   C23 3241   3.834   5.338   7.842  0.2001  0.5553  0.3509
   44CHL1  H23A 3242   3.886   5.428   7.881  0.6843 -0.0888  1.2427
   44CHL1  H23B 3243   3.730   5.373   7.828 -1.0264 -1.9928  2.2480
   44CHL1   C24 3244   3.839   5.235   7.958  0.2015 -0.4703  0.3230
   44CHL1  H24A 3245   3.790   5.138   7.934 -0.0887 -0.3836  0.5587
   44CHL1  H24B 3246   3.945   5.218   7.987 -0.1354  0.2999  2.1816
   44CHL1   C25 3247   3.770   5.292   8.082  0.1045  0.4429 -0.0256
   44CHL1   H25 3248   3.675   5.338   8.049 -0.8224 -1.2103  0.2439
   44CHL1   C26 3249   3.747   5.176   8.190  0.0071  0.2643 -0.4690
   44CHL1  H26A 3250   3.847   5.151   8.231 -0.6769  1.2140  1.8882
   44CHL1  H26B 3251   3.689   5.210   8.278 -4.1819 -0.9372 -2.4599
   44CHL1  H26C 3252   3.702   5.084   8.146 -0.0420 -0.8459  1.7965
   44CHL1   C27 3253   3.857   5.397   8.147  0.8853  0.7696 -0.0106
   44CHL1  H27A 3254   3.865   5.495   8.095  1.4470 -1.1164 -3.8505
   44CHL1  H27B 3255   3.824   5.414   8.252  1.9564 -0.5975  0.5733
   44CHL1  H27C 3256   3.957   5.349   8.153  0.1240 -0.7271  1.4540
   45CHL1    C3 3257   3.542   2.458   6.762 -0.1308  0.3627 -0.3737
   45CHL1    H3 3258   3.477   2.368   6.769 -0.2836  0.5473  0.8097
   45CHL1    O3 3259   3.550   2.497   6.628  0.0200 -0.5815 -0.4198
   45CHL1   H3' 3260   3.557   2.417   6.575  0.0786  0.5007 -2.1305
   45CHL1    C4 3261   3.481   2.573   6.843 -1.4366  1.0793  0.8097
   45CHL1   H4A 3262   3.544   2.663   6.856 -0.2943 -0.0454  4.5222
   45CHL1   H4B 3263   3.386   2.606   6.796 -1.8001  1.2067  1.6113
   45CHL1    C5 3264   3.458   2.521   6.980 -0.1180  0.1802 -0.8256
   45CHL1    C6 3265   3.338   2.512   7.037  0.5973  0.1175  0.3700
   45CHL1    H6 3266   3.248   2.538   6.980  0.9496 -3.0529 -1.8668
   45CHL1    C7 3267   3.321   2.468   7.179 -0.3600  0.0942 -0.2285
   45CHL1   H7A 3268   3.244   2.526   7.235  0.2896  0.3871  0.3802
   45CHL1   H7B 3269   3.274   2.368   7.190 -1.9104  0.8985  0.9479
   45CHL1    C8 3270   3.438   2.467   7.266  0.4077  0.6058 -0.3202
   45CHL1    H8 3271   3.462   2.573   7.288 -1.1657  0.9528 -0.1730
   45CHL1   C14 3272   3.402   2.402   7.405 -0.1071  0.8281  0.6541
   45CHL1   H14 3273   3.361   2.301   7.385  1.3939  0.2144  0.4909
   45CHL1   C15 3274   3.293   2.470   7.497 -0.5107 -0.5009 -0.5642
   45CHL1  H15A 3275   3.307   2.579   7.482 -0.1069 -0.5885 -0.8343
   45CHL1  H15B 3276   3.191   2.440   7.466 -0.7990 -1.9800  1.5571
   45CHL1   C16 3277   3.327   2.406   7.637 -0.6063 -0.0235  0.5155
   45CHL1  H16A 3278   3.341   2.483   7.716 -1.6718  0.4330  0.2673
   45CHL1  H16B 3279   3.258   2.323   7.662 -0.2938  0.1279  1.9818
   45CHL1   C17 3280   3.467   2.331   7.621 -0.2010 -0.0404  0.7998
   45CHL1   H17 3281   3.446   2.229   7.583  0.5140  0.2873 -0.5510
   45CHL1   C13 3282   3.528   2.384   7.494  0.1380  0.2390  0.2386
   45CHL1   C18 3283   3.595   2.517   7.526  0.2938  0.2141 -0.4009
   45CHL1  H18A 3284   3.620   2.564   7.428  1.1228 -1.3297 -0.9686
   45CHL1  H18B 3285   3.532   2.584   7.589  2.5949 -0.2795  2.6469
   45CHL1  H18C 3286   3.686   2.489   7.583  0.6483 -0.1781 -1.1499
   45CHL1   C12 3287   3.624   2.290   7.408  0.2071 -0.1691 -0.4522
   45CHL1  H12A 3288   3.710   2.273   7.477  0.3949  0.0478 -0.6324
   45CHL1  H12B 3289   3.570   2.195   7.388  2.3619 -1.6593  0.4614
   45CHL1   C11 3290   3.667   2.356   7.286  0.5629 -0.2931  0.2160
   45CHL1  H11A 3291   3.738   2.435   7.317 -1.0730  1.7639 -0.9931
   45CHL1  H11B 3292   3.736   2.289   7.231  3.0189  0.8954  1.6658
   45CHL1    C9 3293   3.552   2.398   7.197  0.4321  0.5657 -0.2749
   45CHL1    H9 3294   3.507   2.304   7.157  1.6163  0.8709 -2.4872
   45CHL1   C10 3295   3.581   2.465   7.058  0.2981  1.3200  0.1997
   45CHL1   C19 3296   3.673   2.593   7.080  0.3203  0.2900  0.2131
   45CHL1  H19A 3297   3.690   2.637   6.980 -1.9932 -0.4071 -0.5595
   45CHL1  H19B 3298   3.607   2.670   7.127 -0.6701 -0.1140 -0.4667
   45CHL1  H19C 3299   3.764   2.564   7.137  0.2500  1.3081  0.8699
   45CHL1    C1 3300   3.667   2.372   6.964  0.1516 -0.2895  0.3265
   45CHL1   H1A 3301   3.769   2.361   7.007  0.5106  1.0904 -0.0908
   45CHL1   H1B 3302   3.620   2.272   6.958 -1.4503  0.3576  1.3052
   45CHL1    C2 3303   3.673   2.423   6.820 -0.3281  0.7264  0.1259
   45CHL1   H2A 3304   3.712   2.334   6.766 -0.1512  0.0568  1.3247
   45CHL1   H2B 3305   3.746   2.507   6.820 -0.2800  0.7102  1.2936
   45CHL1   C20 3306   3.547   2.323   7.750  0.1257 -0.3472  0.0147
   45CHL1   H20 3307   3.575   2.424   7.786 -0.2925 -0.7042  1.4296
   45CHL1   C21 3308   3.679   2.246   7.729  0.2223 -0.1796 -0.4870
   45CHL1  H21A 3309   3.667   2.145   7.684 -0.6954  0.5968 -2.0845
   45CHL1  H21B 3310   3.740   2.230   7.821 -1.1915 -1.4598  0.2820
   45CHL1  H21C 3311   3.749   2.304   7.666 -0.8861  2.3298  0.4756
   45CHL1   C22 3312   3.469   2.255   7.869 -0.5455  0.6155  0.0895
   45CHL1  H22A 3313   3.366   2.297   7.869 -0.5204  0.7697  2.1544
   45CHL1  H22B 3314   3.457   2.147   7.848 -2.1741  1.2890 -3.0132
   45CHL1   C23 3315   3.522   2.290   8.009 -0.3031  0.4417  0.3152
   45CHL1  H23A 3316   3.625   2.250   8.013 -0.5133 -0.0587  0.8657
   45CHL1  H23B 3317   3.524   2.400   8.027 -2.5127  0.9142 -1.7347
   45CHL1   C24 3318   3.437   2.210   8.110 -0.5553 -0.0599  0.6289
   45CHL1  H24A 3319   3.333   2.245   8.100 -1.3279 -1.9979  1.4458
   45CHL1  H24B 3320   3.445   2.102   8.086 -1.3541 -0.3195  1.4951
   45CHL1   C25 3321   3.480   2.229   8.255 -0.6083  0.1880  0.2868
   45CHL1   H25 3322   3.469   2.339   8.270 -0.1247  0.0424  1.9770
   45CHL1   C26 3323   3.376   2.158   8.345  0.0649 -0.1045 -0.3556
   45CHL1  H26A 3324   3.392   2.169   8.454 -1.7644  0.0413 -0.0772
   45CHL1  H26B 3325   3.271   2.189   8.328 -0.3020 -1.4242 -0.6542
   45CHL1  H26C 3326   3.374   2.048   8.332  0.2191 -0.4670  2.2484
   45CHL1   C27 3327   3.624   2.176   8.277 -0.7197 -0.2635 -0.1784
   45CHL1  H27A 3328   3.631   2.077   8.227 -0.7200 -0.7867  0.8460
   45CHL1  H27B 3329   3.697   2.250   8.236 -0.6077 -1.2385 -1.8322
   45CHL1  H27C 3330   3.652   2.167   8.384  3.2599  0.4433 -0.9711
   46CHL1    C3 3331   4.386   6.641   6.815  0.1254  0.4524 -0.0883
   46CHL1    H3 3332   4.328   6.546   6.820 -0.4941  0.8556  0.5733
   46CHL1    O3 3333   4.402   6.673   6.675 -0.2174  0.4129  0.3102
   46CHL1   H3' 3334   4.494   6.656   6.657  0.0725 -0.4641  2.3482
   46CHL1    C4 3335   4.313   6.758   6.887  0.0674  0.1223 -0.4295
   46CHL1   H4A 3336   4.371   6.848   6.856  0.4455 -0.1704 -0.5764
   46CHL1   H4B 3337   4.213   6.766   6.840 -0.5995 -1.3026  0.6582
   46CHL1    C5 3338   4.307   6.728   7.037 -0.2217 -0.7569  0.2161
   46CHL1    C6 3339   4.192   6.726   7.105  0.0028 -0.2543  0.3936
   46CHL1    H6 3340   4.098   6.748   7.053  0.3483  0.5153  0.0700
   46CHL1    C7 3341   4.175   6.703   7.252 -0.3306 -0.2375 -0.4818
   46CHL1   H7A 3342   4.108   6.778   7.299  0.9317 -0.0413  1.1224
   46CHL1   H7B 3343   4.153   6.597   7.280 -2.9184 -0.0209 -1.4243
   46CHL1    C8 3344   4.313   6.730   7.326 -0.3719  0.8171 -0.8666
   46CHL1    H8 3345   4.332   6.839   7.332 -0.8585  0.8326  0.9286
   46CHL1   C14 3346   4.310   6.683   7.470  0.4174  0.0988 -0.8296
   46CHL1   H14 3347   4.296   6.573   7.462 -1.8541  0.1397  1.2860
   46CHL1   C15 3348   4.199   6.731   7.567  0.1041 -0.1116 -0.2266
   46CHL1  H15A 3349   4.177   6.838   7.549  1.2670  0.1019 -0.4530
   46CHL1  H15B 3350   4.115   6.659   7.555  1.8124 -2.3949  0.6697
   46CHL1   C16 3351   4.248   6.688   7.703  0.0025  0.1557  0.0640
   46CHL1  H16A 3352   4.249   6.783   7.762 -2.9190  0.9477 -0.9721
   46CHL1  H16B 3353   4.182   6.620   7.762 -1.8756  1.4819 -0.3945
   46CHL1   C17 3354   4.399   6.645   7.685  0.1919  0.4701  0.0048
   46CHL1   H17 3355   4.387   6.536   7.665 -0.2586  0.6685 -0.8518
   46CHL1   C13 3356   4.441   6.696   7.547  0.0168 -0.5846  0.1180
   46CHL1   C18 3357   4.466   6.845   7.573 -0.1915 -0.6128 -0.4766
   46CHL1  H18A 3358   4.484   6.901   7.479 -0.6413 -0.2079 -0.3305
   46CHL1  H18B 3359   4.377   6.894   7.618  1.2250 -0.1098  2.0071
   46CHL1  H18C 3360   4.555   6.864   7.637  0.0474 -0.3672 -0.8760
   46CHL1   C12 3361   4.549   6.616   7.474 -0.0223 -0.4863 -0.3512
   46CHL1  H12A 3362   4.653   6.632   7.512  0.9588  0.4322 -3.1612
   46CHL1  H12B 3363   4.526   6.508   7.473  0.3830 -0.6085 -2.5342
   46CHL1   C11 3364   4.561   6.660   7.330 -0.3881 -0.0634 -0.1399
   46CHL1  H11A 3365   4.613   6.758   7.329 -1.4377  0.5178 -1.6911
   46CHL1  H11B 3366   4.633   6.591   7.280  0.3067 -0.9547  1.9594
   46CHL1    C9 3367   4.435   6.655   7.254  1.1421  0.2521  0.8823
   46CHL1    H9 3368   4.402   6.549   7.246  2.3170 -0.0492 -0.4307
   46CHL1   C10 3369   4.443   6.701   7.106  0.2431  0.4987  0.0742
   46CHL1   C19 3370   4.529   6.827   7.097 -0.7169 -0.1466 -0.5104
   46CHL1  H19A 3371   4.528   6.877   6.997  1.7596  1.6711  0.2810
   46CHL1  H19B 3372   4.488   6.892   7.177  1.5937  0.7224  0.0397
   46CHL1  H19C 3373   4.635   6.810   7.126 -0.6752  1.5630  0.4975
   46CHL1    C1 3374   4.507   6.587   7.020  0.2651  0.9331 -0.1783
   46CHL1   H1A 3375   4.601   6.554   7.069 -0.7205  2.0880  2.7327
   46CHL1   H1B 3376   4.440   6.498   7.028  1.9961 -0.7098 -2.5092
   46CHL1    C2 3377   4.530   6.629   6.868 -0.5593 -0.0871  0.6624
   46CHL1   H2A 3378   4.582   6.550   6.809 -0.4512 -0.0825  0.7507
   46CHL1   H2B 3379   4.592   6.722   6.866 -2.1255  0.9962 -1.1579
   46CHL1   C20 3380   4.484   6.652   7.810 -0.4136 -0.2782 -0.2515
   46CHL1   H20 3381   4.528   6.754   7.806  1.5144 -1.1096 -1.6170
   46CHL1   C21 3382   4.598   6.541   7.800 -0.4062 -0.5802  0.2387
   46CHL1  H21A 3383   4.666   6.558   7.713  0.4431  0.0786  1.0133
   46CHL1  H21B 3384   4.553   6.439   7.797 -0.6967 -0.5034  1.5265
   46CHL1  H21C 3385   4.665   6.553   7.888 -1.0299 -0.1127  0.6515
   46CHL1   C22 3386   4.399   6.639   7.942 -0.7819 -0.0353 -0.4687
   46CHL1  H22A 3387   4.331   6.725   7.954  0.2082  0.9930 -1.8713
   46CHL1  H22B 3388   4.326   6.555   7.937 -3.1291  1.8734 -0.0849
   46CHL1   C23 3389   4.490   6.630   8.064  0.1772 -0.5911  0.2505
   46CHL1  H23A 3390   4.553   6.538   8.065  0.7886 -0.1762  1.0475
   46CHL1  H23B 3391   4.566   6.710   8.051 -0.8509  0.3618 -0.0859
   46CHL1   C24 3392   4.400   6.625   8.184 -1.4650 -0.0862  0.0462
   46CHL1  H24A 3393   4.357   6.728   8.192 -0.2652  0.7027 -2.4783
   46CHL1  H24B 3394   4.319   6.550   8.173 -0.1171 -1.9669  2.1262
   46CHL1   C25 3395   4.482   6.581   8.309 -0.0254 -0.0034  0.4367
   46CHL1   H25 3396   4.548   6.496   8.280  2.5914  2.2647 -0.7040
   46CHL1   C26 3397   4.559   6.693   8.374 -0.5312 -0.1580 -0.9627
   46CHL1  H26A 3398   4.629   6.735   8.298 -0.1963  1.4529  0.1865
   46CHL1  H26B 3399   4.503   6.783   8.408 -0.6846  0.6315 -3.1453
   46CHL1  H26C 3400   4.619   6.656   8.460 -0.0019  1.7578 -0.4700
   46CHL1   C27 3401   4.376   6.533   8.406 -0.5915 -0.1446 -0.0883
   46CHL1  H27A 3402   4.428   6.490   8.495  0.4737 -1.0996 -1.1330
   46CHL1  H27B 3403   4.293   6.599   8.440 -1.7126 -1.3459 -0.4114
   46CHL1  H27C 3404   4.327   6.440   8.369  1.5162 -1.2899 -0.2037
   47CHL1    C3 3405   3.556   4.459   6.741 -0.2946  0.5346  0.1292
   47CHL1    H3 3406   3.623   4.548   6.743 -0.4685  0.8011 -2.4442
   47CHL1    O3 3407   3.499   4.445   6.613 -0.1882  0.5989  0.0721
   47CHL1   H3' 3408   3.480   4.351   6.620  2.0702 -0.0714 -1.6057
   47CHL1    C4 3409   3.636   4.330   6.779 -0.3873  0.3150  0.7865
   47CHL1   H4A 3410   3.565   4.245   6.766 -1.2879  1.2463 -0.6807
   47CHL1   H4B 3411   3.715   4.313   6.702 -1.3451  3.0739 -0.9589
   47CHL1    C5 3412   3.691   4.337   6.916  0.4214 -0.1225  0.2001
   47CHL1    C6 3413   3.820   4.337   6.939 -0.1664 -0.0689  0.4962
   47CHL1    H6 3414   3.884   4.313   6.853 -2.2743 -1.0655 -0.8738
   47CHL1    C7 3415   3.882   4.359   7.079  0.0164 -0.0194 -0.1935
   47CHL1   H7A 3416   3.968   4.291   7.094 -0.7357 -0.9317  0.1175
   47CHL1   H7B 3417   3.910   4.466   7.087 -2.5261  0.6516  0.8477
   47CHL1    C8 3418   3.778   4.337   7.195 -0.1078  0.1657 -0.4740
   47CHL1    H8 3419   3.763   4.227   7.198 -0.6744  0.2395 -0.4370
   47CHL1   C14 3420   3.821   4.388   7.332 -0.1675  0.5405  0.3979
   47CHL1   H14 3421   3.813   4.499   7.326 -1.5842  0.5023  1.2477
   47CHL1   C15 3422   3.955   4.351   7.392  0.6390  0.1089  0.5448
   47CHL1  H15A 3423   3.976   4.243   7.381  1.5274  0.2656  0.5981
   47CHL1  H15B 3424   4.048   4.401   7.357 -1.0946  1.1333 -3.0671
   47CHL1   C16 3425   3.946   4.388   7.545 -0.1008  1.2192 -0.0294
   47CHL1  H16A 3426   3.992   4.301   7.596 -0.5960  0.1930 -1.2615
   47CHL1  H16B 3427   4.009   4.478   7.559 -0.1492  1.1490  0.6558
   47CHL1   C17 3428   3.794   4.418   7.576  0.6052  0.4489 -0.7083
   47CHL1   H17 3429   3.781   4.528   7.565 -0.7827  0.3816  0.1049
   47CHL1   C13 3430   3.719   4.363   7.452  0.3398 -0.4691  0.2271
   47CHL1   C18 3431   3.697   4.210   7.472 -0.1702  0.3712  0.2991
   47CHL1  H18A 3432   3.617   4.194   7.548  0.6395  2.7492  1.7691
   47CHL1  H18B 3433   3.672   4.156   7.378  0.2952 -1.8473  1.3754
   47CHL1  H18C 3434   3.787   4.160   7.515 -0.8098 -0.1447  1.0678
   47CHL1   C12 3435   3.592   4.428   7.418  0.5937  0.1399  0.7210
   47CHL1  H12A 3436   3.506   4.400   7.482 -0.6384  0.5079 -0.7050
   47CHL1  H12B 3437   3.606   4.539   7.420  1.4283  0.0421  0.7010
   47CHL1   C11 3438   3.541   4.390   7.277  0.3703  0.0291  0.4486
   47CHL1  H11A 3439   3.503   4.286   7.290 -2.5970  1.0736  0.8180
   47CHL1  H11B 3440   3.452   4.454   7.258  0.6389 -0.1345 -1.5729
   47CHL1    C9 3441   3.650   4.398   7.163  0.4971  0.5617 -0.6105
   47CHL1    H9 3442   3.681   4.504   7.151  1.3198  0.2700 -1.0684
   47CHL1   C10 3443   3.589   4.362   7.026 -0.2281 -0.1976 -0.2981
   47CHL1   C19 3444   3.499   4.231   7.040  0.0508 -0.6027  0.4818
   47CHL1  H19A 3445   3.400   4.262   7.080 -0.4091  0.1366 -1.1221
   47CHL1  H19B 3446   3.473   4.178   6.945 -1.8335 -1.3021  1.3420
   47CHL1  H19C 3447   3.545   4.149   7.099  2.1720  0.1066 -0.0856
   47CHL1    C1 3448   3.489   4.478   6.985  0.3648 -0.0806 -0.1080
   47CHL1   H1A 3449   3.397   4.478   7.049  0.2169 -0.9785 -0.3017
   47CHL1   H1B 3450   3.539   4.576   6.992 -0.5702  0.3770  0.4299
   47CHL1    C2 3451   3.443   4.474   6.840  0.1970 -0.0639  0.4464
   47CHL1   H2A 3452   3.394   4.569   6.809 -2.4766 -1.4520  0.1371
   47CHL1   H2B 3453   3.362   4.398   6.826 -3.3570  2.8968  2.9125
   47CHL1   C20 3454   3.750   4.370   7.725 -0.1631  0.2805  0.1748
   47CHL1   H20 3455   3.756   4.259   7.714 -1.8894  0.3428 -2.3317
   47CHL1   C21 3456   3.602   4.411   7.749  0.4071 -0.7084 -0.6670
   47CHL1  H21A 3457   3.598   4.522   7.743 -0.1327 -0.7742 -1.6385
   47CHL1  H21B 3458   3.570   4.387   7.853  2.5308 -1.4880 -0.1508
   47CHL1  H21C 3459   3.530   4.361   7.681  0.7187 -1.9414 -0.1119
   47CHL1   C22 3460   3.845   4.424   7.834  0.2733  0.6453  0.3223
   47CHL1  H22A 3461   3.950   4.418   7.798 -0.5237  0.1458 -2.0840
   47CHL1  H22B 3462   3.810   4.527   7.857 -1.1043  0.1227  0.6415
   47CHL1   C23 3463   3.829   4.352   7.967  0.0993 -0.0574 -0.2506
   47CHL1  H23A 3464   3.726   4.378   8.002  0.0655 -0.9074  0.3057
   47CHL1  H23B 3465   3.830   4.242   7.949  2.0552 -0.2329  0.7306
   47CHL1   C24 3466   3.940   4.385   8.071  0.1800  0.6206  0.8108
   47CHL1  H24A 3467   4.017   4.309   8.046  1.1228  1.3161  1.5352
   47CHL1  H24B 3468   3.975   4.487   8.045 -2.0756  0.6781 -2.6074
   47CHL1   C25 3469   3.914   4.367   8.216  0.0729 -0.6024 -0.3704
   47CHL1   H25 3470   3.893   4.260   8.236  0.3337 -0.1512  2.6428
   47CHL1   C26 3471   4.033   4.404   8.306  0.1474 -0.2418  0.4729
   47CHL1  H26A 3472   4.122   4.347   8.270 -0.9220 -1.9967  0.4716
   47CHL1  H26B 3473   4.063   4.511   8.309  1.2750 -0.5439  0.5683
   47CHL1  H26C 3474   4.027   4.372   8.412  0.9829  0.7408  0.8336
   47CHL1   C27 3475   3.798   4.457   8.260 -0.0168  0.1704 -0.3829
   47CHL1  H27A 3476   3.820   4.563   8.239 -0.7259  0.8220  1.8281
   47CHL1  H27B 3477   3.709   4.429   8.201  0.8249 -3.5303 -0.1709
   47CHL1  H27C 3478   3.783   4.443   8.369  0.9730 -0.2145 -0.2799
   48CHL1    C3 3479   0.605   0.756   6.240  0.4927  0.0343 -0.0183
   48CHL1    H3 3480   0.521   0.689   6.271  0.4064  0.0464 -0.2250
   48CHL1    O3 3481   0.589   0.776   6.104  0.4486  0.4572 -0.2954
   48CHL1   H3' 3482   0.561   0.693   6.065 -2.8750  1.7639 -1.0237
   48CHL1    C4 3483   0.587   0.886   6.316 -0.9276 -0.1676 -0.0379
   48CHL1   H4A 3484   0.670   0.948   6.277 -1.5379  0.2917 -0.6176
   48CHL1   H4B 3485   0.488   0.933   6.300  0.1597  2.9428  1.6048
   48CHL1    C5 3486   0.605   0.844   6.460 -0.9089  0.0023  0.0947
   48CHL1    C6 3487   0.504   0.865   6.546  0.1119  0.3750  0.0366
   48CHL1    H6 3488   0.406   0.900   6.512 -1.2576 -2.2636  1.0003
   48CHL1    C7 3489   0.505   0.827   6.690 -0.4088  0.7017 -0.4004
   48CHL1   H7A 3490   0.449   0.899   6.755 -0.8474 -2.6953  3.4379
   48CHL1   H7B 3491   0.450   0.731   6.699  0.5181  0.0983 -1.0341
   48CHL1    C8 3492   0.648   0.813   6.748  0.7959  0.6235  0.0763
   48CHL1    H8 3493   0.696   0.913   6.760  2.5503 -0.1989  0.1427
   48CHL1   C14 3494   0.637   0.744   6.889 -0.8487  0.1074 -0.0490
   48CHL1   H14 3495   0.610   0.638   6.868  3.0500 -1.1695  0.5619
   48CHL1   C15 3496   0.538   0.798   6.986 -0.6103  0.3778 -0.3765
   48CHL1  H15A 3497   0.536   0.909   6.984  1.0824  0.4256 -1.9413
   48CHL1  H15B 3498   0.440   0.750   6.965 -0.5881 -0.2083  0.7750
   48CHL1   C16 3499   0.592   0.753   7.123  0.5943 -0.3192  0.2325
   48CHL1  H16A 3500   0.603   0.844   7.185 -0.2647 -0.8001  1.1231
   48CHL1  H16B 3501   0.518   0.704   7.190  0.1441  0.5245  0.3792
   48CHL1   C17 3502   0.725   0.678   7.093 -0.3919 -0.5549 -0.2414
   48CHL1   H17 3503   0.697   0.574   7.067 -0.5615 -0.5322 -0.1541
   48CHL1   C13 3504   0.775   0.735   6.957 -0.1486  0.9546  0.2827
   48CHL1   C18 3505   0.841   0.875   6.976  0.6178  1.0081  0.1809
   48CHL1  H18A 3506   0.880   0.916   6.880  2.1088  0.2536  0.4170
   48CHL1  H18B 3507   0.777   0.950   7.026 -0.3930  0.3382 -0.0879
   48CHL1  H18C 3508   0.930   0.858   7.041 -0.6845 -2.2829  1.3123
   48CHL1   C12 3509   0.868   0.647   6.866  0.3944 -0.5132  0.1028
   48CHL1  H12A 3510   0.977   0.644   6.886  0.9299  3.1386 -1.4502
   48CHL1  H12B 3511   0.832   0.542   6.872 -0.5636 -0.1305  3.9168
   48CHL1   C11 3512   0.866   0.702   6.715  1.0259 -0.2336  0.0590
   48CHL1  H11A 3513   0.923   0.797   6.716 -0.5594  0.7532 -0.5676
   48CHL1  H11B 3514   0.923   0.633   6.649  1.8898  0.4805  0.0462
   48CHL1    C9 3515   0.727   0.725   6.651  0.3884  0.0873 -0.2705
   48CHL1    H9 3516   0.671   0.629   6.641 -0.6568  0.4995  1.3659
   48CHL1   C10 3517   0.736   0.785   6.502  0.4735  0.4888  0.2109
   48CHL1   C19 3518   0.836   0.897   6.503  0.1058 -0.8364  0.4945
   48CHL1  H19A 3519   0.938   0.857   6.522  0.8892 -0.0936 -1.8051
   48CHL1  H19B 3520   0.849   0.940   6.401  1.5109 -0.8481  0.6457
   48CHL1  H19C 3521   0.813   0.980   6.574  1.4872  0.3976 -0.4309
   48CHL1    C1 3522   0.769   0.673   6.409  0.3905 -0.2844  0.3418
   48CHL1   H1A 3523   0.871   0.635   6.428  1.0377  1.2983  0.2446
   48CHL1   H1B 3524   0.702   0.587   6.427  2.5478 -1.8323  1.4038
   48CHL1    C2 3525   0.745   0.698   6.258  0.1309 -0.1183 -0.2827
   48CHL1   H2A 3526   0.774   0.612   6.194  0.0091  0.1229 -0.6646
   48CHL1   H2B 3527   0.817   0.773   6.217 -0.1877  1.2581  1.4882
   48CHL1   C20 3528   0.818   0.672   7.217 -0.0975  0.1033 -0.3276
   48CHL1   H20 3529   0.862   0.774   7.228  1.9930 -0.9878  2.3542
   48CHL1   C21 3530   0.936   0.572   7.190 -0.2035  0.4622  0.0251
   48CHL1  H21A 3531   0.990   0.602   7.098 -4.7673  0.7389 -2.8729
   48CHL1  H21B 3532   0.907   0.465   7.183  0.5996  0.0514  2.2842
   48CHL1  H21C 3533   1.010   0.569   7.272  1.9071 -1.0557 -1.8182
   48CHL1   C22 3534   0.733   0.635   7.340 -0.5647 -0.2457 -0.6252
   48CHL1  H22A 3535   0.665   0.719   7.363 -0.2409 -0.0260 -0.4506
   48CHL1  H22B 3536   0.674   0.542   7.327 -2.5249  0.8571  0.0117
   48CHL1   C23 3537   0.817   0.626   7.476 -0.2926 -0.0643  0.0215
   48CHL1  H23A 3538   0.874   0.530   7.468 -2.2449 -1.1558 -1.4174
   48CHL1  H23B 3539   0.893   0.707   7.477  1.2292 -1.2236 -3.8247
   48CHL1   C24 3540   0.740   0.629   7.610 -0.4815  0.8169  0.2096
   48CHL1  H24A 3541   0.651   0.692   7.588  0.2907  1.1305 -2.3875
   48CHL1  H24B 3542   0.697   0.528   7.623 -2.0704  1.5895  1.3238
   48CHL1   C25 3543   0.806   0.673   7.744  0.0230 -0.4567  0.1599
   48CHL1   H25 3544   0.729   0.653   7.821 -1.1369  0.2958 -0.7483
   48CHL1   C26 3545   0.932   0.593   7.780 -0.0309  0.5338 -0.8772
   48CHL1  H26A 3546   1.010   0.613   7.703  0.5396  1.5618 -0.0694
   48CHL1  H26B 3547   0.974   0.639   7.873 -0.5821 -0.4127 -0.1374
   48CHL1  H26C 3548   0.922   0.485   7.803  2.7743  0.1143 -1.2086
   48CHL1   C27 3549   0.827   0.824   7.748 -0.6261 -0.2129  0.8529
   48CHL1  H27A 3550   0.878   0.851   7.842 -1.7839  0.2642  1.3575
   48CHL1  H27B 3551   0.905   0.851   7.673  0.1356  2.0995  2.3843
   48CHL1  H27C 3552   0.734   0.882   7.731 -1.6420 -1.2230  2.6978
   49CHL1    C3 3553   6.179   0.937   6.641  0.3449 -0.3409 -0.2853
   49CHL1    H3 3554   6.131   1.026   6.688 -1.0996 -0.9192 -0.6156
   49CHL1    O3 3555   6.167   0.947   6.502 -0.0494 -0.1263  0.3791
   49CHL1   H3' 3556   6.168   1.041   6.483 -0.8592 -0.1340  0.2936
   49CHL1    C4 3557   6.330   0.950   6.663 -0.0020 -0.2911 -0.0362
   49CHL1   H4A 3558   6.378   0.862   6.615  0.9748  0.6570 -0.8366
   49CHL1   H4B 3559   6.375   1.040   6.618 -0.9301 -0.1336 -0.6891
   49CHL1    C5 3560   6.367   0.944   6.807 -0.6389  0.3806 -0.3455
   49CHL1    C6 3561   6.440   1.040   6.873 -0.1155  0.1103 -0.3792
   49CHL1    H6 3562   6.467   1.127   6.811  0.2255 -1.4401 -2.5477
   49CHL1    C7 3563   6.481   1.031   7.016 -0.3366 -0.3048  0.4231
   49CHL1   H7A 3564   6.584   1.070   7.031  0.2437 -2.2600  1.8017
   49CHL1   H7B 3565   6.416   1.102   7.071 -1.2294  0.0390 -1.0185
   49CHL1    C8 3566   6.455   0.900   7.091 -0.4044 -0.0941  0.2359
   49CHL1    H8 3567   6.538   0.831   7.066 -0.6996 -1.1139  1.9222
   49CHL1   C14 3568   6.460   0.922   7.244 -0.4511  0.8004  0.9582
   49CHL1   H14 3569   6.380   0.997   7.262 -0.7310  0.1320  2.6331
   49CHL1   C15 3570   6.586   0.984   7.303  0.5475 -0.0692 -0.5106
   49CHL1  H15A 3571   6.676   0.931   7.266  2.2845  2.6981 -0.5549
   49CHL1  H15B 3572   6.592   1.093   7.282  1.2369 -0.0317 -0.1521
   49CHL1   C16 3573   6.561   0.949   7.457 -1.1668 -0.1528  0.1698
   49CHL1  H16A 3574   6.653   0.909   7.504 -0.2078  0.7098 -0.9211
   49CHL1  H16B 3575   6.543   1.047   7.507  0.3491  2.9230 -4.6050
   49CHL1   C17 3576   6.442   0.848   7.465 -0.5708  0.2534  0.2963
   49CHL1   H17 3577   6.346   0.900   7.486  0.0409  1.1548  0.9575
   49CHL1   C13 3578   6.431   0.796   7.320 -0.0441 -0.3724  0.3866
   49CHL1   C18 3579   6.531   0.679   7.297 -0.0139  0.2307  0.3279
   49CHL1  H18A 3580   6.504   0.599   7.370 -0.5073 -0.6018 -0.7358
   49CHL1  H18B 3581   6.535   0.644   7.192  2.0453 -2.3130  1.1360
   49CHL1  H18C 3582   6.630   0.712   7.334 -0.3928  2.2134 -0.3064
   49CHL1   C12 3583   6.290   0.745   7.277 -0.1566  0.5157 -0.1092
   49CHL1  H12A 3584   6.256   0.649   7.319 -0.0569  0.0630 -1.0379
   49CHL1  H12B 3585   6.216   0.822   7.307  0.8880 -0.0981  5.0592
   49CHL1   C11 3586   6.289   0.711   7.125  0.3589 -0.8993  0.6340
   49CHL1  H11A 3587   6.346   0.617   7.110  0.4035 -0.9342  1.0124
   49CHL1  H11B 3588   6.182   0.685   7.107  0.5716 -0.5333 -1.3910
   49CHL1    C9 3589   6.318   0.836   7.040 -0.1601 -0.1323 -0.5946
   49CHL1    H9 3590   6.239   0.909   7.067  0.4469 -0.3589  2.0970
   49CHL1   C10 3591   6.312   0.818   6.889  0.5482  0.1385  0.0626
   49CHL1   C19 3592   6.388   0.688   6.849  0.5559  0.0382  0.4580
   49CHL1  H19A 3593   6.328   0.608   6.895  1.4278 -0.9365 -0.0666
   49CHL1  H19B 3594   6.392   0.670   6.739  1.1671 -0.8270  0.6163
   49CHL1  H19C 3595   6.491   0.690   6.891  0.2997  0.1774  1.0849
   49CHL1    C1 3596   6.166   0.790   6.845 -0.4305 -0.0063 -0.0013
   49CHL1   H1A 3597   6.134   0.689   6.879 -1.1036  0.0854 -0.3382
   49CHL1   H1B 3598   6.103   0.870   6.890 -1.7743  0.0467 -1.8467
   49CHL1    C2 3599   6.132   0.799   6.692  0.1860 -0.4261  0.8726
   49CHL1   H2A 3600   6.023   0.786   6.677  0.0733 -1.0604  2.0802
   49CHL1   H2B 3601   6.180   0.716   6.636 -1.0760 -0.0182 -0.9031
   49CHL1   C20 3602   6.461   0.752   7.587 -0.0493 -0.4374  0.9547
   49CHL1   H20 3603   6.554   0.697   7.561 -0.2115 -0.0574 -0.5239
   49CHL1   C21 3604   6.329   0.662   7.588 -0.2063  0.0107  0.1884
   49CHL1  H21A 3605   6.343   0.585   7.667 -1.7072  1.1267  1.6076
   49CHL1  H21B 3606   6.314   0.597   7.499 -0.7215 -1.1777  1.1103
   49CHL1  H21C 3607   6.239   0.726   7.599  0.6751  1.4918 -0.8559
   49CHL1   C22 3608   6.481   0.827   7.724  0.4957  0.0207 -0.5697
   49CHL1  H22A 3609   6.525   0.927   7.705  0.6936  0.1628  0.6041
   49CHL1  H22B 3610   6.381   0.846   7.767  0.6040 -0.0733 -0.2761
   49CHL1   C23 3611   6.570   0.744   7.816 -0.1978  0.4582 -0.6242
   49CHL1  H23A 3612   6.509   0.664   7.863  0.9885  1.0669  2.1746
   49CHL1  H23B 3613   6.643   0.697   7.747 -1.3273  0.2585 -1.7402
   49CHL1   C24 3614   6.636   0.824   7.926 -0.5131  0.1829  0.2830
   49CHL1  H24A 3615   6.708   0.759   7.980  0.0723 -0.6061 -1.3656
   49CHL1  H24B 3616   6.695   0.903   7.875  0.9605  0.5453  2.4223
   49CHL1   C25 3617   6.525   0.879   8.024 -0.8725 -0.0826  0.9373
   49CHL1   H25 3618   6.444   0.922   7.961 -0.6107  0.8140  1.1977
   49CHL1   C26 3619   6.463   0.778   8.115  0.0803  0.8283 -0.3041
   49CHL1  H26A 3620   6.450   0.684   8.056  0.1511  0.4780  0.2326
   49CHL1  H26B 3621   6.544   0.737   8.179  0.0542  1.3755  0.0861
   49CHL1  H26C 3622   6.387   0.803   8.191  2.7581  1.4617  2.3684
   49CHL1   C27 3623   6.580   0.997   8.100  0.2546  0.0037 -0.8128
   49CHL1  H27A 3624   6.502   1.059   8.149  0.8723  0.2903 -0.1809
   49CHL1  H27B 3625   6.651   0.948   8.170 -1.9584 -0.0408  1.5426
   49CHL1  H27C 3626   6.639   1.072   8.042 -1.3941  1.6410 -0.4483
   50CHL1    C3 3627   5.654   1.132   6.790 -0.2120 -0.5453 -0.0815
   50CHL1    H3 3628   5.633   1.236   6.822  1.7123  0.4086 -1.6789
   50CHL1    O3 3629   5.622   1.119   6.649 -0.2579 -0.4021 -0.1477
   50CHL1   H3' 3630   5.649   1.030   6.622  1.3959 -0.1741  0.6342
   50CHL1    C4 3631   5.806   1.117   6.807  0.0992 -0.6234 -0.6196
   50CHL1   H4A 3632   5.830   1.024   6.750 -2.1825  0.2238 -3.1818
   50CHL1   H4B 3633   5.861   1.202   6.760 -1.1380 -0.2403 -1.4248
   50CHL1    C5 3634   5.842   1.108   6.955  0.1250 -0.0803  0.6079
   50CHL1    C6 3635   5.949   1.180   6.996  0.0695 -0.4192 -0.0686
   50CHL1    H6 3636   6.008   1.234   6.920  0.6101 -0.0367  0.6156
   50CHL1    C7 3637   5.995   1.200   7.132  0.4012 -0.2164  0.6578
   50CHL1   H7A 3638   6.106   1.194   7.130  0.3874 -2.5616  2.6204
   50CHL1   H7B 3639   5.958   1.299   7.167  0.2087  0.6645 -1.8265
   50CHL1    C8 3640   5.946   1.098   7.232 -0.0443 -0.2438 -0.2479
   50CHL1    H8 3641   6.008   1.007   7.218  0.5399  0.5764 -4.5225
   50CHL1   C14 3642   5.964   1.136   7.376 -1.1543 -0.6195 -0.3522
   50CHL1   H14 3643   5.908   1.232   7.387  1.4418  0.8919  0.7124
   50CHL1   C15 3644   6.109   1.175   7.431  0.0011  0.0117  0.5157
   50CHL1  H15A 3645   6.182   1.105   7.384 -0.1677  0.6676 -0.7620
   50CHL1  H15B 3646   6.139   1.274   7.391  0.2259  0.1751  1.0844
   50CHL1   C16 3647   6.102   1.166   7.580 -0.3138  0.2358  0.4443
   50CHL1  H16A 3648   6.182   1.104   7.626  0.7265  1.0185 -0.2660
   50CHL1  H16B 3649   6.120   1.264   7.630  0.7281  0.2911 -0.0164
   50CHL1   C17 3650   5.956   1.117   7.612  0.0139  0.5788  0.2119
   50CHL1   H17 3651   5.887   1.204   7.607  1.0009  1.3993  0.3734
   50CHL1   C13 3652   5.912   1.039   7.484 -0.3102  0.9358 -0.0184
   50CHL1   C18 3653   5.992   0.912   7.473 -0.0415  0.6871 -0.4488
   50CHL1  H18A 3654   5.967   0.862   7.377 -0.5437  0.1090 -0.0303
   50CHL1  H18B 3655   6.099   0.939   7.483 -0.1118  0.8582 -0.1385
   50CHL1  H18C 3656   5.959   0.844   7.554 -1.0246  1.5600 -0.0944
   50CHL1   C12 3657   5.766   1.031   7.456 -0.1089 -0.0608 -0.4088
   50CHL1  H12A 3658   5.721   0.959   7.528 -0.4332 -1.8478 -2.2905
   50CHL1  H12B 3659   5.731   1.136   7.468  1.5017  0.2929  1.9534
   50CHL1   C11 3660   5.737   0.981   7.315  0.2761 -0.2291  0.5493
   50CHL1  H11A 3661   5.779   0.879   7.307 -2.8400 -1.6229  0.7763
   50CHL1  H11B 3662   5.628   0.963   7.308  0.3755 -0.5110 -0.5116
   50CHL1    C9 3663   5.793   1.065   7.204  0.5563 -0.5041 -0.0644
   50CHL1    H9 3664   5.747   1.165   7.217  0.1629 -0.6378 -0.3970
   50CHL1   C10 3665   5.756   1.026   7.061 -0.0824 -0.0456  0.5515
   50CHL1   C19 3666   5.795   0.882   7.032 -0.8000  0.7438  0.1512
   50CHL1  H19A 3667   5.810   0.865   6.924 -0.9483 -0.9085  0.3649
   50CHL1  H19B 3668   5.895   0.872   7.078 -0.6106  0.1217 -0.3898
   50CHL1  H19C 3669   5.727   0.801   7.067  1.0578  0.0953  2.4881
   50CHL1    C1 3670   5.604   1.040   7.031  0.1813  0.1055  0.0407
   50CHL1   H1A 3671   5.538   0.971   7.088  3.4162 -1.4943  2.1128
   50CHL1   H1B 3672   5.569   1.137   7.071 -2.0513  0.2929 -2.0936
   50CHL1    C2 3673   5.576   1.032   6.877  0.1904 -0.4720  0.0394
   50CHL1   H2A 3674   5.467   1.055   6.870  0.3169 -0.3674 -2.7058
   50CHL1   H2B 3675   5.598   0.927   6.850  0.0411 -0.3651 -0.5098
   50CHL1   C20 3676   5.949   1.043   7.742 -0.0799  0.8843 -0.3552
   50CHL1   H20 3677   6.010   0.951   7.732 -0.6531  0.2599  1.4113
   50CHL1   C21 3678   5.804   1.010   7.772  0.3210 -0.0381  0.2439
   50CHL1  H21A 3679   5.804   0.980   7.879  0.6156  2.8394  1.1368
   50CHL1  H21B 3680   5.760   0.925   7.717  1.6766  0.1476 -1.1836
   50CHL1  H21C 3681   5.742   1.101   7.757 -1.2242 -1.1321 -0.2630
   50CHL1   C22 3682   6.004   1.128   7.864  0.3123 -0.1830 -0.3576
   50CHL1  H22A 3683   6.099   1.177   7.835  0.4332  1.0252  1.8555
   50CHL1  H22B 3684   5.926   1.206   7.876  2.5428  1.9702  1.1784
   50CHL1   C23 3685   6.030   1.053   7.995  0.0256  0.1811 -0.0076
   50CHL1  H23A 3686   5.939   1.008   8.041 -0.8287 -0.1034 -1.9000
   50CHL1  H23B 3687   6.099   0.967   7.995  2.2338  1.8348  1.5833
   50CHL1   C24 3688   6.098   1.148   8.101  0.2616  0.4414 -0.5760
   50CHL1  H24A 3689   6.204   1.158   8.069  0.4170 -1.3252 -0.6771
   50CHL1  H24B 3690   6.052   1.249   8.099 -1.9650 -0.3412  3.0992
   50CHL1   C25 3691   6.113   1.099   8.242 -0.9821 -0.8997 -0.5329
   50CHL1   H25 3692   6.153   0.995   8.248  1.4939  0.0584  0.8132
   50CHL1   C26 3693   6.214   1.192   8.311  0.2586  0.1109 -0.5694
   50CHL1  H26A 3694   6.228   1.163   8.417  2.9785 -0.5472 -1.0406
   50CHL1  H26B 3695   6.316   1.176   8.269  0.6705  2.6904 -0.6926
   50CHL1  H26C 3696   6.179   1.297   8.307 -1.8526 -0.5524 -1.5005
   50CHL1   C27 3697   5.980   1.110   8.322 -0.2616  0.2381 -0.1679
   50CHL1  H27A 3698   5.921   1.035   8.266 -0.0245  0.5320 -0.8159
   50CHL1  H27B 3699   5.984   1.063   8.423  0.4202 -2.2489 -1.2732
   50CHL1  H27C 3700   5.934   1.211   8.325 -0.4847  0.1530 -0.6028
   51CHL1    C3 3701   5.609   3.794   6.896  0.7716 -0.8685  0.0958
   51CHL1    H3 3702   5.530   3.868   6.916  1.3914 -0.2920  0.4646
   51CHL1    O3 3703   5.638   3.799   6.756 -0.5400 -0.1375  0.7507
   51CHL1   H3' 3704   5.700   3.726   6.755 -1.9643 -1.4066 -0.8553
   51CHL1    C4 3705   5.737   3.821   6.979  0.2217  0.1344 -0.0763
   51CHL1   H4A 3706   5.811   3.749   6.938  1.1498 -0.7237  2.8876
   51CHL1   H4B 3707   5.767   3.927   6.963 -1.8468  1.1525  2.3056
   51CHL1    C5 3708   5.732   3.793   7.128  0.6358 -0.1431 -0.2961
   51CHL1    C6 3709   5.776   3.872   7.224  0.0377 -0.5963 -0.0619
   51CHL1    H6 3710   5.824   3.967   7.195 -0.9627 -0.3381 -0.9459
   51CHL1    C7 3711   5.785   3.833   7.372  0.0222  0.8729  0.0255
   51CHL1   H7A 3712   5.884   3.864   7.412  0.1978 -0.0990  0.3608
   51CHL1   H7B 3713   5.710   3.890   7.431 -0.5278 -0.7795  0.9966
   51CHL1    C8 3714   5.766   3.676   7.396  0.1122  0.0798  0.3339
   51CHL1    H8 3715   5.855   3.616   7.368 -0.5995 -1.2780  0.8785
   51CHL1   C14 3716   5.740   3.666   7.548 -0.0613  0.0664 -0.0208
   51CHL1   H14 3717   5.650   3.728   7.567 -0.8320 -0.4692 -1.7416
   51CHL1   C15 3718   5.840   3.718   7.656 -0.0051 -0.0118  0.4355
   51CHL1  H15A 3719   5.942   3.675   7.647  0.0759  0.1220  0.7334
   51CHL1  H15B 3720   5.848   3.828   7.663 -1.6451  0.0376  2.4006
   51CHL1   C16 3721   5.789   3.656   7.784 -0.2751 -0.3488  0.1005
   51CHL1  H16A 3722   5.866   3.618   7.854  0.1567  1.8314  0.8695
   51CHL1  H16B 3723   5.745   3.742   7.839  0.5301 -0.7373  1.4004
   51CHL1   C17 3724   5.676   3.552   7.745  0.2464  0.0029  0.4184
   51CHL1   H17 3725   5.572   3.591   7.743 -0.3301 -1.5009 -0.5924
   51CHL1   C13 3726   5.705   3.522   7.594 -0.4006  0.1082  0.0530
   51CHL1   C18 3727   5.824   3.425   7.562  0.4593 -0.7283 -0.3129
   51CHL1  H18A 3728   5.848   3.425   7.453 -3.1915  2.1614 -1.3385
   51CHL1  H18B 3729   5.916   3.461   7.613  0.8308 -0.3154 -1.2426
   51CHL1  H18C 3730   5.798   3.321   7.590 -0.8034 -1.2236 -2.9789
   51CHL1   C12 3731   5.583   3.482   7.512  0.0981 -0.7886  0.0899
   51CHL1  H12A 3732   5.551   3.382   7.549 -2.0042 -0.2881 -0.2293
   51CHL1  H12B 3733   5.502   3.555   7.534  0.3785 -0.7232  0.9496
   51CHL1   C11 3734   5.606   3.475   7.362 -0.4196 -0.0549 -0.0064
   51CHL1  H11A 3735   5.673   3.396   7.322 -0.7245  0.9227 -2.7404
   51CHL1  H11B 3736   5.504   3.469   7.318 -0.5939  1.3898  0.1503
   51CHL1    C9 3737   5.651   3.623   7.320 -0.0154  0.0277  0.2370
   51CHL1    H9 3738   5.559   3.681   7.345 -1.1218 -2.6170  2.8586
   51CHL1   C10 3739   5.677   3.653   7.166 -0.2205  0.1275 -0.3948
   51CHL1   C19 3740   5.778   3.547   7.120 -0.7021  0.5488 -0.1192
   51CHL1  H19A 3741   5.755   3.441   7.147 -1.2095  0.4356 -0.9589
   51CHL1  H19B 3742   5.781   3.544   7.009  0.1356  0.1409 -0.0988
   51CHL1  H19C 3743   5.882   3.562   7.158 -0.2587 -0.0022 -1.0635
   51CHL1    C1 3744   5.537   3.629   7.084 -0.6920 -0.7688 -0.4629
   51CHL1   H1A 3745   5.504   3.524   7.103 -2.0643 -0.2994 -0.1195
   51CHL1   H1B 3746   5.460   3.694   7.132  1.1853  1.3861 -0.1916
   51CHL1    C2 3747   5.548   3.657   6.936  0.0629 -0.2352  0.9394
   51CHL1   H2A 3748   5.455   3.656   6.876  0.9571 -1.1496 -0.4862
   51CHL1   H2B 3749   5.610   3.579   6.887 -0.5819 -0.4280  0.4307
   51CHL1   C20 3750   5.674   3.443   7.847  0.3869  0.1838 -0.1157
   51CHL1   H20 3751   5.769   3.388   7.832 -0.1379 -0.6099 -0.6308
   51CHL1   C21 3752   5.563   3.344   7.810  0.9824  0.2242 -0.3117
   51CHL1  H21A 3753   5.578   3.291   7.713  1.3330  0.5365 -0.4313
   51CHL1  H21B 3754   5.462   3.390   7.812  1.8941  2.2937  1.0157
   51CHL1  H21C 3755   5.564   3.264   7.888 -0.2973 -1.8519 -2.3149
   51CHL1   C22 3756   5.660   3.495   7.993 -0.0182  0.6485  0.0711
   51CHL1  H22A 3757   5.745   3.560   8.023 -0.3304  1.1379 -0.0852
   51CHL1  H22B 3758   5.561   3.542   8.012 -0.1723 -0.4676  2.3309
   51CHL1   C23 3759   5.658   3.392   8.105 -0.2990 -0.0003 -0.0335
   51CHL1  H23A 3760   5.565   3.333   8.108  0.5183 -1.2846  1.2308
   51CHL1  H23B 3761   5.742   3.321   8.086 -0.9795  0.0688 -4.5092
   51CHL1   C24 3762   5.654   3.479   8.232  0.2154 -0.1351 -0.5213
   51CHL1  H24A 3763   5.735   3.554   8.232 -1.3110  1.6352  1.8962
   51CHL1  H24B 3764   5.554   3.528   8.228 -1.4370 -3.0469  1.3538
   51CHL1   C25 3765   5.657   3.403   8.360 -0.4486 -0.7811  0.1374
   51CHL1   H25 3766   5.759   3.360   8.368  0.1295  0.4500 -0.4054
   51CHL1   C26 3767   5.650   3.515   8.466 -0.0135  0.4234  0.1593
   51CHL1  H26A 3768   5.725   3.595   8.450  2.0221 -0.9238  2.3827
   51CHL1  H26B 3769   5.545   3.551   8.471 -0.3377 -0.5901  0.8812
   51CHL1  H26C 3770   5.683   3.479   8.566 -0.6935  0.4394  0.3943
   51CHL1   C27 3771   5.547   3.301   8.374 -0.2526  0.2508 -0.1701
   51CHL1  H27A 3772   5.568   3.266   8.477  1.8599 -1.9803 -1.2550
   51CHL1  H27B 3773   5.452   3.357   8.369  0.2851  1.1883 -0.2527
   51CHL1  H27C 3774   5.536   3.216   8.304 -2.9185 -0.5386  1.1124
   52CHL1    C3 3775   0.302   2.012   6.944 -0.9383 -0.5572 -0.1972
   52CHL1    H3 3776   0.375   1.935   6.977  0.0549  1.2167  2.1190
   52CHL1    O3 3777   0.327   2.040   6.809  0.0102 -0.2546  0.1493
   52CHL1   H3' 3778   0.284   2.125   6.803  0.4110  0.0087  0.8500
   52CHL1    C4 3779   0.162   1.961   6.963 -0.2356 -0.3137 -0.5307
   52CHL1   H4A 3780   0.096   2.036   6.915 -0.0004 -1.0716 -2.1025
   52CHL1   H4B 3781   0.146   1.869   6.902 -0.5808 -1.4497  1.1848
   52CHL1    C5 3782   0.116   1.936   7.109 -0.5854 -0.7596 -0.1337
   52CHL1    C6 3783   0.071   1.815   7.144 -0.1714 -0.1767 -0.0659
   52CHL1    H6 3784   0.059   1.734   7.070 -1.1683  1.3107 -1.6016
   52CHL1    C7 3785   0.048   1.781   7.291 -0.5843 -0.0268  0.8011
   52CHL1   H7A 3786  -0.049   1.728   7.304 -1.6742  1.4390 -0.8248
   52CHL1   H7B 3787   0.133   1.716   7.319 -0.7821 -0.8133 -0.3266
   52CHL1    C8 3788   0.045   1.912   7.378  0.1398  0.1510  0.4174
   52CHL1    H8 3789  -0.049   1.966   7.355 -0.0197 -0.7120 -1.0753
   52CHL1   C14 3790   0.041   1.872   7.527 -0.3663 -0.0940 -0.2876
   52CHL1   H14 3791   0.143   1.830   7.535 -0.3782 -0.1507 -0.4299
   52CHL1   C15 3792  -0.058   1.762   7.574 -0.0687 -0.4676  0.3268
   52CHL1  H15A 3793  -0.156   1.775   7.524  1.0284  0.9227 -1.6328
   52CHL1  H15B 3794  -0.023   1.658   7.555 -0.6821 -0.8243  1.0689
   52CHL1   C16 3795  -0.061   1.778   7.724 -0.0843  0.0821 -0.1026
   52CHL1  H16A 3796  -0.169   1.794   7.741  0.0558  0.3673  0.5761
   52CHL1  H16B 3797  -0.015   1.693   7.778  0.4156  0.6678  0.4048
   52CHL1   C17 3798   0.005   1.918   7.759  0.6596  0.7397  0.0421
   52CHL1   H17 3799   0.104   1.882   7.793  0.3961 -2.0514 -1.8387
   52CHL1   C13 3800   0.025   1.989   7.621  0.3041  0.3975 -0.8589
   52CHL1   C18 3801  -0.104   2.063   7.595  0.6045 -0.3717  0.7082
   52CHL1  H18A 3802  -0.195   2.002   7.612 -0.0078  0.3072 -0.0372
   52CHL1  H18B 3803  -0.110   2.147   7.667 -0.6568  1.1601 -1.1054
   52CHL1  H18C 3804  -0.118   2.118   7.499 -1.3549  0.0071  1.1758
   52CHL1   C12 3805   0.157   2.062   7.608  0.1317 -1.0513 -0.2466
   52CHL1  H12A 3806   0.160   2.145   7.682  2.4307 -1.5546  0.3014
   52CHL1  H12B 3807   0.239   1.997   7.646  1.2089 -0.5214 -1.5901
   52CHL1   C11 3808   0.185   2.117   7.467 -0.4777 -0.4225 -0.6202
   52CHL1  H11A 3809   0.119   2.205   7.448  1.7697  1.3600 -0.4898
   52CHL1  H11B 3810   0.287   2.158   7.459 -0.9335  1.0785  0.8319
   52CHL1    C9 3811   0.159   2.003   7.355 -0.1035 -0.4330  0.3260
   52CHL1    H9 3812   0.246   1.936   7.371 -0.8418 -0.8445  3.2186
   52CHL1   C10 3813   0.159   2.055   7.208  0.0581  0.6201 -0.2251
   52CHL1   C19 3814   0.048   2.164   7.187 -0.1458  0.2333 -0.6479
   52CHL1  H19A 3815  -0.048   2.139   7.238 -0.6051  0.6174 -1.3109
   52CHL1  H19B 3816   0.077   2.255   7.243  0.7235 -0.8437  0.7184
   52CHL1  H19C 3817   0.035   2.190   7.080  1.1282 -0.5383 -1.0140
   52CHL1    C1 3818   0.295   2.122   7.173  0.1561 -0.2255  0.1129
   52CHL1   H1A 3819   0.307   2.220   7.225 -1.2940  1.0346 -1.7936
   52CHL1   H1B 3820   0.374   2.057   7.216  1.6244  1.5360  0.2291
   52CHL1    C2 3821   0.323   2.144   7.020 -0.2485  1.1896 -0.5200
   52CHL1   H2A 3822   0.429   2.178   7.018  0.1618 -0.0496 -0.2177
   52CHL1   H2B 3823   0.257   2.225   6.983  1.1764  3.4310  1.4796
   52CHL1   C20 3824  -0.073   1.989   7.875 -0.2270  0.1534  0.4530
   52CHL1   H20 3825  -0.171   2.021   7.835 -0.6354 -2.3229 -0.6953
   52CHL1   C21 3826   0.005   2.117   7.919  0.7696  0.7404 -0.5670
   52CHL1  H21A 3827  -0.067   2.181   7.974  0.5987  0.4717 -0.4751
   52CHL1  H21B 3828   0.037   2.186   7.838  3.4237  1.7460  1.1897
   52CHL1  H21C 3829   0.099   2.093   7.973  0.9518 -0.1811 -1.2758
   52CHL1   C22 3830  -0.103   1.897   7.999 -0.5951 -0.0377  0.1341
   52CHL1  H22A 3831  -0.185   1.824   7.981 -1.3506  0.6786  0.6112
   52CHL1  H22B 3832  -0.022   1.821   8.008 -0.3835  0.3700  1.9305
   52CHL1   C23 3833  -0.117   1.968   8.134  0.2022  0.7449  0.3510
   52CHL1  H23A 3834  -0.014   2.007   8.153 -0.1157  1.6126  0.3660
   52CHL1  H23B 3835  -0.178   2.061   8.134 -0.5429  0.2623  0.7703
   52CHL1   C24 3836  -0.159   1.869   8.251 -0.2982 -0.3013 -0.4033
   52CHL1  H24A 3837  -0.255   1.819   8.225 -0.8318 -0.2326  1.3307
   52CHL1  H24B 3838  -0.075   1.796   8.251  0.2134  0.2810 -0.0716
   52CHL1   C25 3839  -0.175   1.947   8.382  0.5603 -0.1838 -0.3899
   52CHL1   H25 3840  -0.263   2.014   8.391  0.5212 -0.4723  2.0808
   52CHL1   C26 3841  -0.206   1.837   8.487 -0.8532 -1.1424 -0.0017
   52CHL1  H26A 3842  -0.199   1.891   8.584 -2.4117 -2.2209  0.7465
   52CHL1  H26B 3843  -0.306   1.794   8.468 -1.1101 -1.1493  1.2933
   52CHL1  H26C 3844  -0.131   1.755   8.487  0.8353  0.2759  2.1129
   52CHL1   C27 3845  -0.049   2.030   8.422 -0.4810  1.0540  0.2267
   52CHL1  H27A 3846  -0.034   2.112   8.348 -0.9705 -0.9841 -2.2993
   52CHL1  H27B 3847  -0.044   2.061   8.528 -1.5489 -0.9104  0.9174
   52CHL1  H27C 3848   0.043   1.969   8.406 -1.5965 -1.0267  1.2850
   53CHL1    C3 3849   4.940   1.429   7.024  0.3392  0.6429  0.0956
   53CHL1    H3 3850   5.038   1.377   7.024 -0.1210 -0.2345  0.4208
   53CHL1    O3 3851   4.871   1.399   6.907 -0.5353 -0.2536 -0.0509
   53CHL1   H3' 3852   4.896   1.461   6.838 -0.2169  0.5988  0.8134
   53CHL1    C4 3853   4.860   1.375   7.141 -0.5648 -0.3822  0.6568
   53CHL1   H4A 3854   4.760   1.422   7.145 -1.0522 -1.4455  1.8356
   53CHL1   H4B 3855   4.838   1.267   7.124 -1.1531 -0.2767  0.7517
   53CHL1    C5 3856   4.922   1.402   7.273  0.2011  0.0255 -0.8807
   53CHL1    C6 3857   4.955   1.299   7.356  0.0071 -0.4197  0.3653
   53CHL1    H6 3858   4.939   1.200   7.312  1.0282  0.2146 -1.5701
   53CHL1    C7 3859   5.022   1.319   7.492  0.2142 -0.2011  0.1869
   53CHL1   H7A 3860   4.968   1.263   7.572 -0.1804  1.3074  1.0228
   53CHL1   H7B 3861   5.124   1.281   7.472 -0.2541 -0.2418 -2.4338
   53CHL1    C8 3862   5.011   1.468   7.529 -0.1195 -1.0263 -0.4380
   53CHL1    H8 3863   4.906   1.494   7.554  0.0818 -2.0207  1.6992
   53CHL1   C14 3864   5.104   1.488   7.645 -0.1190  0.1462 -0.5152
   53CHL1   H14 3865   5.205   1.464   7.606 -0.1239 -0.9460  0.1016
   53CHL1   C15 3866   5.099   1.388   7.758  0.9566 -0.5821 -0.3205
   53CHL1  H15A 3867   4.998   1.392   7.803  0.1822 -0.9484 -1.9405
   53CHL1  H15B 3868   5.134   1.285   7.737  1.5486 -0.3900 -0.2945
   53CHL1   C16 3869   5.184   1.462   7.865 -0.2446  0.5399 -0.1030
   53CHL1  H16A 3870   5.111   1.458   7.949 -1.4580 -0.1837 -1.1492
   53CHL1  H16B 3871   5.270   1.397   7.890 -1.0601 -0.5272 -0.0285
   53CHL1   C17 3872   5.220   1.608   7.826 -0.1414 -0.5406  0.0958
   53CHL1   H17 3873   5.322   1.596   7.785  0.2490 -0.1130  0.9266
   53CHL1   C13 3874   5.128   1.636   7.702  0.2489  0.0794  0.7912
   53CHL1   C18 3875   5.000   1.696   7.751 -0.3726  1.0241 -0.6143
   53CHL1  H18A 3876   4.913   1.684   7.682 -0.6728 -1.3632  0.1153
   53CHL1  H18B 3877   4.974   1.649   7.848 -1.9759 -2.1005 -2.4207
   53CHL1  H18C 3878   4.995   1.807   7.759 -3.0303  1.0935 -2.0270
   53CHL1   C12 3879   5.189   1.723   7.595 -0.2893  0.4060  0.1633
   53CHL1  H12A 3880   5.195   1.829   7.626  0.6411  0.5113 -0.3436
   53CHL1  H12B 3881   5.293   1.698   7.563  0.3104  3.5995 -0.6891
   53CHL1   C11 3882   5.100   1.707   7.469  0.0907  0.3895  0.8327
   53CHL1  H11A 3883   5.006   1.758   7.496  0.3811  1.5519 -0.2869
   53CHL1  H11B 3884   5.136   1.763   7.380 -0.4420 -2.2149 -1.1382
   53CHL1    C9 3885   5.067   1.559   7.417  0.2892  0.1380 -0.5264
   53CHL1    H9 3886   5.169   1.524   7.388 -0.8746 -2.9382 -1.2714
   53CHL1   C10 3887   4.967   1.553   7.297 -0.9545  0.4666 -0.6571
   53CHL1   C19 3888   4.846   1.639   7.333 -0.4727 -0.2916  0.1565
   53CHL1  H19A 3889   4.792   1.597   7.421 -0.9221 -0.0367  0.0060
   53CHL1  H19B 3890   4.871   1.747   7.337  0.9439 -0.5393 -0.9741
   53CHL1  H19C 3891   4.773   1.645   7.249 -1.9138  2.0491  1.4717
   53CHL1    C1 3892   5.032   1.615   7.167  0.0415 -0.9364  0.5376
   53CHL1   H1A 3893   5.045   1.725   7.184  1.8020 -0.8713 -0.9217
   53CHL1   H1B 3894   5.138   1.582   7.161  0.5089  0.6305 -0.6809
   53CHL1    C2 3895   4.958   1.586   7.031  0.0371  0.4436  0.3177
   53CHL1   H2A 3896   5.000   1.628   6.937  0.0719  0.7127  0.4521
   53CHL1   H2B 3897   4.851   1.618   7.037 -1.1101 -2.8136 -0.7423
   53CHL1   C20 3898   5.226   1.717   7.941 -0.1156 -0.4821 -0.6534
   53CHL1   H20 3899   5.130   1.764   7.971  1.0812  0.6945  1.6073
   53CHL1   C21 3900   5.316   1.835   7.888  0.1368  0.0215 -0.4607
   53CHL1  H21A 3901   5.322   1.913   7.967 -1.4348  1.1510 -1.3917
   53CHL1  H21B 3902   5.275   1.876   7.793 -0.7839 -2.4149 -1.2201
   53CHL1  H21C 3903   5.423   1.806   7.878 -0.1037 -0.6208 -1.3660
   53CHL1   C22 3904   5.302   1.663   8.066  0.3894 -0.4972 -0.7454
   53CHL1  H22A 3905   5.318   1.743   8.142  0.2319  0.2784 -1.5255
   53CHL1  H22B 3906   5.230   1.594   8.115  0.4788  0.7421  1.2566
   53CHL1   C23 3907   5.443   1.597   8.055  0.2207 -0.7275 -0.5086
   53CHL1  H23A 3908   5.451   1.530   7.967 -1.7608 -2.1785  0.3739
   53CHL1  H23B 3909   5.519   1.679   8.053  0.6902 -1.1251  0.3477
   53CHL1   C24 3910   5.465   1.510   8.181 -0.2888  0.0964  0.1141
   53CHL1  H24A 3911   5.454   1.589   8.259 -0.4480  1.1446 -0.9283
   53CHL1  H24B 3912   5.385   1.434   8.169 -0.0028  0.0946 -2.3013
   53CHL1   C25 3913   5.601   1.444   8.181 -1.4672 -0.4434  0.0808
   53CHL1   H25 3914   5.680   1.501   8.126 -1.6260 -0.9983 -0.7519
   53CHL1   C26 3915   5.634   1.418   8.328  0.4824 -0.4240 -0.5400
   53CHL1  H26A 3916   5.729   1.363   8.349  1.1246  1.2733  1.2370
   53CHL1  H26B 3917   5.643   1.519   8.373  1.1646 -0.8033  0.2120
   53CHL1  H26C 3918   5.546   1.365   8.370  0.4349  0.3238  0.3225
   53CHL1   C27 3919   5.582   1.306   8.113  0.4560  0.0826 -0.1915
   53CHL1  H27A 3920   5.518   1.239   8.173 -0.7823 -0.0910 -1.6402
   53CHL1  H27B 3921   5.528   1.309   8.016 -0.6313 -0.5874  0.3811
   53CHL1  H27C 3922   5.687   1.271   8.102 -0.0405 -2.2334  1.7265
   54CHL1    C3 3923   4.499   0.808   6.991  0.6500 -0.7105 -0.4997
   54CHL1    H3 3924   4.416   0.742   7.023 -0.4397  0.3492 -1.0467
   54CHL1    O3 3925   4.498   0.810   6.850  0.0311 -0.1041 -0.1603
   54CHL1   H3' 3926   4.552   0.888   6.835 -0.4094  0.2452  0.0491
   54CHL1    C4 3927   4.477   0.945   7.038 -0.5939 -0.1405  0.3277
   54CHL1   H4A 3928   4.562   1.008   7.005 -0.7446  0.6862  1.4465
   54CHL1   H4B 3929   4.383   0.978   6.990  0.0513 -0.7251 -1.4088
   54CHL1    C5 3930   4.481   0.952   7.186 -0.3268 -0.2833  0.0478
   54CHL1    C6 3931   4.381   1.011   7.255 -0.1549  0.2626  0.8814
   54CHL1    H6 3932   4.288   1.035   7.201  0.5266  1.7461  0.3168
   54CHL1    C7 3933   4.378   1.027   7.408  0.4189 -0.1729 -0.0364
   54CHL1   H7A 3934   4.366   1.136   7.430  0.7933 -0.1763  0.1903
   54CHL1   H7B 3935   4.293   0.973   7.455 -1.4843  1.1584 -1.7100
   54CHL1    C8 3936   4.512   0.988   7.472  0.0904 -0.3153  0.1892
   54CHL1    H8 3937   4.579   1.075   7.484  0.0191 -0.4512  1.8881
   54CHL1   C14 3938   4.498   0.946   7.627 -0.4733  0.4945 -0.5180
   54CHL1   H14 3939   4.442   0.850   7.624  0.2705  0.0499 -0.3405
   54CHL1   C15 3940   4.413   1.045   7.724 -0.4715  0.0950 -0.3680
   54CHL1  H15A 3941   4.437   1.146   7.684  1.5687 -1.5184 -3.6769
   54CHL1  H15B 3942   4.311   1.006   7.704  0.6486 -2.7215 -1.1281
   54CHL1   C16 3943   4.472   1.008   7.865 -0.3061 -0.3262  0.0614
   54CHL1  H16A 3944   4.527   1.097   7.903  0.0243 -0.8071  0.7273
   54CHL1  H16B 3945   4.399   0.984   7.944 -0.4460  0.0085  0.0374
   54CHL1   C17 3946   4.587   0.903   7.844  0.6659 -0.6337 -1.0115
   54CHL1   H17 3947   4.532   0.807   7.837 -2.4498  0.8849  0.5505
   54CHL1   C13 3948   4.637   0.917   7.703 -0.0347 -0.4334 -0.5939
   54CHL1   C18 3949   4.720   1.053   7.708 -0.8390  0.0458 -0.5027
   54CHL1  H18A 3950   4.672   1.131   7.771  1.3249  0.8419  0.2462
   54CHL1  H18B 3951   4.822   1.035   7.749 -0.8236  2.9824  0.9811
   54CHL1  H18C 3952   4.737   1.098   7.608  2.8335  0.6351  0.2506
   54CHL1   C12 3953   4.714   0.811   7.623  0.0369  0.2196 -0.1058
   54CHL1  H12A 3954   4.814   0.796   7.668 -0.0563 -4.2410 -0.8986
   54CHL1  H12B 3955   4.655   0.717   7.629 -0.9560  0.6693 -2.1256
   54CHL1   C11 3956   4.732   0.856   7.480 -0.4474 -0.0450  0.6274
   54CHL1  H11A 3957   4.794   0.948   7.473  0.4403 -0.6887 -0.3345
   54CHL1  H11B 3958   4.789   0.777   7.426 -0.6381 -0.7010  1.3711
   54CHL1    C9 3959   4.593   0.881   7.405 -0.5500 -0.6006  0.0784
   54CHL1    H9 3960   4.540   0.785   7.423 -0.2570 -0.7297  0.2641
   54CHL1   C10 3961   4.610   0.902   7.254 -0.4532  0.2083 -0.1553
   54CHL1   C19 3962   4.703   1.025   7.232 -0.9307  0.9581  0.6571
   54CHL1  H19A 3963   4.700   1.060   7.127  0.5488 -0.2131  0.1882
   54CHL1  H19B 3964   4.692   1.116   7.295  0.7644  2.2860 -0.8758
   54CHL1  H19C 3965   4.810   0.999   7.245 -0.6634  2.1336  0.9041
   54CHL1    C1 3966   4.664   0.770   7.184 -0.0976  0.0752 -0.5290
   54CHL1   H1A 3967   4.765   0.740   7.221  0.1436  1.5215  0.0872
   54CHL1   H1B 3968   4.604   0.684   7.221 -0.2478 -0.6575 -2.4156
   54CHL1    C2 3969   4.638   0.754   7.031  0.3903  0.3743  0.3412
   54CHL1   H2A 3970   4.652   0.649   6.997  0.2313  0.0443  1.2519
   54CHL1   H2B 3971   4.709   0.821   6.979  0.7462  0.9018  1.4711
   54CHL1   C20 3972   4.690   0.897   7.961  0.2565 -0.3068  0.1997
   54CHL1   H20 3973   4.747   0.992   7.964  1.1627 -0.8482  0.9940
   54CHL1   C21 3974   4.785   0.784   7.949 -0.3265 -0.0799  0.7322
   54CHL1  H21A 3975   4.749   0.680   7.934  1.5297 -0.9354  1.7783
   54CHL1  H21B 3976   4.845   0.787   8.042  0.4477  0.5123  0.2322
   54CHL1  H21C 3977   4.851   0.791   7.859 -1.7270 -1.5055 -0.4729
   54CHL1   C22 3978   4.623   0.902   8.102  0.2809 -0.2227  0.2744
   54CHL1  H22A 3979   4.691   0.919   8.188  1.1136  2.2894 -0.7762
   54CHL1  H22B 3980   4.560   0.994   8.102  2.3146  1.2853 -1.1635
   54CHL1   C23 3981   4.535   0.779   8.126 -0.1325 -0.1320 -0.3091
   54CHL1  H23A 3982   4.470   0.743   8.043  1.3755  0.5391 -1.8270
   54CHL1  H23B 3983   4.596   0.686   8.138 -1.2663 -0.8078  0.4355
   54CHL1   C24 3984   4.429   0.801   8.251 -0.0533  0.1276  0.3170
   54CHL1  H24A 3985   4.356   0.877   8.217  0.9079  0.9971  0.1301
   54CHL1  H24B 3986   4.377   0.703   8.250  2.4794 -1.2989 -0.0938
   54CHL1   C25 3987   4.481   0.812   8.389  0.2180 -0.3131  0.0228
   54CHL1   H25 3988   4.552   0.897   8.399 -0.5170  0.2011  0.9358
   54CHL1   C26 3989   4.358   0.837   8.485 -0.2846 -0.4521 -0.0748
   54CHL1  H26A 3990   4.324   0.943   8.484 -0.5842 -0.5514 -1.5415
   54CHL1  H26B 3991   4.273   0.771   8.460 -0.6230  0.2414 -0.7778
   54CHL1  H26C 3992   4.393   0.825   8.590 -1.8561 -1.3591  0.3619
   54CHL1   C27 3993   4.543   0.680   8.428  0.4683  0.3191  0.0404
   54CHL1  H27A 3994   4.480   0.593   8.397  0.6157  0.7629 -1.6328
   54CHL1  H27B 3995   4.638   0.655   8.376  0.7255  2.2562 -0.4971
   54CHL1  H27C 3996   4.555   0.674   8.538  1.4714  1.7118  0.0351
   55CHL1    C3 3997   5.523   1.473   6.931  0.2649  0.2770 -0.1892
   55CHL1    H3 3998   5.520   1.364   6.953 -0.5492  0.2860 -0.2249
   55CHL1    O3 3999   5.465   1.489   6.801  0.7418 -1.1331 -0.5365
   55CHL1   H3' 4000   5.445   1.582   6.802 -0.7162 -1.4172 -0.6010
   55CHL1    C4 4001   5.447   1.549   7.037  0.0607 -0.9954  0.9450
   55CHL1   H4A 4002   5.441   1.654   7.001 -0.6409 -1.5177 -0.5160
   55CHL1   H4B 4003   5.343   1.512   7.025  0.8626 -2.3213 -3.3794
   55CHL1    C5 4004   5.516   1.550   7.166 -0.7902  1.0730 -0.5384
   55CHL1    C6 4005   5.442   1.503   7.264 -0.2329 -0.2887 -0.4082
   55CHL1    H6 4006   5.337   1.480   7.244 -0.9054  2.1679  0.0557
   55CHL1    C7 4007   5.488   1.500   7.404  0.1183 -0.1284  0.0068
   55CHL1   H7A 4008   5.411   1.543   7.471 -1.0285 -1.9013 -0.0966
   55CHL1   H7B 4009   5.500   1.396   7.441 -0.6308 -0.3258 -0.2892
   55CHL1    C8 4010   5.620   1.578   7.420  0.1627 -0.1100  0.7133
   55CHL1    H8 4011   5.595   1.686   7.428  3.0750  0.5200  2.5114
   55CHL1   C14 4012   5.679   1.535   7.550 -0.6945  0.5044  0.3210
   55CHL1   H14 4013   5.693   1.426   7.540  0.2838  0.6799 -0.3151
   55CHL1   C15 4014   5.599   1.552   7.679 -1.5759  0.3541 -0.2002
   55CHL1  H15A 4015   5.558   1.655   7.676 -0.1904  0.9980  1.4925
   55CHL1  H15B 4016   5.524   1.475   7.707  1.8924 -2.1930  3.1752
   55CHL1   C16 4017   5.705   1.543   7.791 -0.0477  0.0364 -0.2630
   55CHL1  H16A 4018   5.693   1.619   7.871 -1.4447  0.9824 -1.3264
   55CHL1  H16B 4019   5.698   1.444   7.842 -1.4776  0.5850  0.6912
   55CHL1   C17 4020   5.843   1.545   7.728 -0.1712 -0.2271  0.2954
   55CHL1   H17 4021   5.873   1.439   7.718 -1.2270 -0.6622  1.4492
   55CHL1   C13 4022   5.819   1.593   7.581 -0.1178  0.1982  0.7593
   55CHL1   C18 4023   5.806   1.740   7.582 -0.0211 -0.3320  0.5982
   55CHL1  H18A 4024   5.772   1.776   7.483 -0.7806 -1.1010  0.5696
   55CHL1  H18B 4025   5.730   1.785   7.649  0.5748 -0.3080  1.2819
   55CHL1  H18C 4026   5.907   1.785   7.597  0.6503 -1.9954  1.2923
   55CHL1   C12 4027   5.921   1.545   7.479  0.0475 -0.0676 -0.1269
   55CHL1  H12A 4028   6.016   1.603   7.487 -1.1095  1.9464 -0.3282
   55CHL1  H12B 4029   5.944   1.439   7.502 -1.0153  0.0841  1.8616
   55CHL1   C11 4030   5.870   1.576   7.329 -0.5397  0.1571 -0.1675
   55CHL1  H11A 4031   5.887   1.686   7.326  1.8186 -0.0495  1.7759
   55CHL1  H11B 4032   5.934   1.522   7.255 -0.2471 -0.2354  0.3646
   55CHL1    C9 4033   5.722   1.539   7.309 -0.4738  0.5068  0.0200
   55CHL1    H9 4034   5.723   1.428   7.314 -0.7989  0.5508  1.6761
   55CHL1   C10 4035   5.666   1.579   7.175 -0.6256 -0.1289 -0.3584
   55CHL1   C19 4036   5.682   1.736   7.151 -0.0723  0.1567 -0.5172
   55CHL1  H19A 4037   5.672   1.792   7.246  0.6763 -1.5965  0.6572
   55CHL1  H19B 4038   5.785   1.760   7.118  0.7287  0.3839  1.9546
   55CHL1  H19C 4039   5.609   1.776   7.077 -1.3281  0.3460  0.7733
   55CHL1    C1 4040   5.734   1.491   7.059  0.1596  0.3418 -0.7668
   55CHL1   H1A 4041   5.841   1.512   7.037 -0.2916  0.7676 -2.7245
   55CHL1   H1B 4042   5.723   1.384   7.089  4.3969 -0.3668 -1.0293
   55CHL1    C2 4043   5.670   1.511   6.918  0.0639  0.1290 -0.4240
   55CHL1   H2A 4044   5.716   1.446   6.840  2.1979 -0.2520  1.0693
   55CHL1   H2B 4045   5.691   1.615   6.888  1.6094 -0.2845 -0.8647
   55CHL1   C20 4046   5.952   1.609   7.811  0.7352 -0.0811  0.5252
   55CHL1   H20 4047   5.934   1.719   7.809  0.1328 -0.1881 -0.7230
   55CHL1   C21 4048   6.094   1.596   7.746 -0.3984  1.2478 -0.0762
   55CHL1  H21A 4049   6.114   1.491   7.718  0.9501  1.7451 -1.0679
   55CHL1  H21B 4050   6.171   1.623   7.821 -1.1100 -0.7934  1.4755
   55CHL1  H21C 4051   6.114   1.662   7.659  0.8204 -0.7749 -1.4022
   55CHL1   C22 4052   5.951   1.550   7.956 -0.8352  0.7674  0.2613
   55CHL1  H22A 4053   5.851   1.550   8.004 -0.1178 -1.9141  1.9689
   55CHL1  H22B 4054   5.971   1.441   7.958  0.4944  0.9898 -0.0027
   55CHL1   C23 4055   6.039   1.625   8.061 -0.5383 -0.4568 -0.5382
   55CHL1  H23A 4056   6.144   1.621   8.025 -0.9426  1.4006 -2.0607
   55CHL1  H23B 4057   6.014   1.732   8.046  0.3360 -0.3859 -1.5623
   55CHL1   C24 4058   6.022   1.585   8.207 -0.2648  0.3840  0.0581
   55CHL1  H24A 4059   5.916   1.598   8.238  0.3541 -1.1320  3.2489
   55CHL1  H24B 4060   6.043   1.476   8.218  0.8359  0.5775  0.0176
   55CHL1   C25 4061   6.104   1.649   8.315  0.7726 -0.2274 -0.2071
   55CHL1   H25 4062   6.103   1.758   8.297 -0.1590  0.0155  1.1038
   55CHL1   C26 4063   6.048   1.608   8.458  0.0699 -0.9339 -0.5306
   55CHL1  H26A 4064   6.023   1.500   8.460 -0.2276 -0.8583  0.4553
   55CHL1  H26B 4065   6.124   1.630   8.536  0.2562 -0.8615 -0.7323
   55CHL1  H26C 4066   5.953   1.661   8.480  0.1520 -0.6972 -0.7367
   55CHL1   C27 4067   6.243   1.596   8.309 -0.2026 -0.3785  0.0380
   55CHL1  H27A 4068   6.244   1.496   8.357 -0.2603 -0.4558 -0.1211
   55CHL1  H27B 4069   6.286   1.595   8.206  0.4668  0.8857  0.2914
   55CHL1  H27C 4070   6.302   1.671   8.366 -2.9518  0.7178  1.6252
   56CHL1    C3 4071   5.036   1.103   6.811  0.2911 -0.1148 -0.0282
   56CHL1    H3 4072   4.978   1.189   6.851 -2.5669 -0.7649 -2.4409
   56CHL1    O3 4073   5.024   1.109   6.666 -0.5166  0.2260 -0.0532
   56CHL1   H3' 4074   5.075   1.036   6.632  1.2334  1.0315  0.7227
   56CHL1    C4 4075   5.184   1.120   6.846 -0.1483 -0.2825 -0.5733
   56CHL1   H4A 4076   5.245   1.052   6.782 -0.1412  2.2089 -3.4194
   56CHL1   H4B 4077   5.214   1.222   6.816 -0.2167  0.2589  1.0842
   56CHL1    C5 4078   5.206   1.094   6.993 -0.0668 -0.3525 -0.2376
   56CHL1    C6 4079   5.275   1.179   7.066  0.0671  1.1755 -0.1276
   56CHL1    H6 4080   5.310   1.268   7.010 -0.8476  0.3953 -2.0206
   56CHL1    C7 4081   5.309   1.175   7.210  0.2025  0.5457  0.1893
   56CHL1   H7A 4082   5.419   1.181   7.220  0.5390 -3.2876  0.4612
   56CHL1   H7B 4083   5.246   1.252   7.260 -1.1632  0.9554 -2.0346
   56CHL1    C8 4084   5.287   1.034   7.264 -0.0388  0.5851  0.1334
   56CHL1    H8 4085   5.373   0.972   7.230 -0.4968 -0.8184  1.4088
   56CHL1   C14 4086   5.281   1.034   7.419  0.0741 -0.6273  0.7888
   56CHL1   H14 4087   5.185   1.086   7.437  0.1862  0.0102 -0.3677
   56CHL1   C15 4088   5.386   1.125   7.492 -0.2291  0.4997 -0.1022
   56CHL1  H15A 4089   5.489   1.102   7.456 -0.7405 -0.9429 -0.7236
   56CHL1  H15B 4090   5.356   1.231   7.483 -1.8744 -0.0322 -1.4079
   56CHL1   C16 4091   5.368   1.073   7.640  0.3916 -0.2881  0.5560
   56CHL1  H16A 4092   5.462   1.043   7.692 -1.0903 -1.7205  2.6263
   56CHL1  H16B 4093   5.323   1.148   7.708 -0.4890 -2.5331  2.6370
   56CHL1   C17 4094   5.267   0.949   7.632 -0.7108 -0.5214 -0.3740
   56CHL1   H17 4095   5.166   0.991   7.653 -0.6105 -0.4894  0.0501
   56CHL1   C13 4096   5.270   0.901   7.483 -0.0653 -0.2308 -0.6627
   56CHL1   C18 4097   5.397   0.823   7.449 -0.2067 -0.2406 -0.1668
   56CHL1  H18A 4098   5.383   0.713   7.464 -0.5686 -0.0890  0.6531
   56CHL1  H18B 4099   5.439   0.838   7.347  0.1396  1.5298  0.2075
   56CHL1  H18C 4100   5.480   0.863   7.511  0.9309 -1.3053 -0.9411
   56CHL1   C12 4101   5.138   0.837   7.424 -0.3935  0.5289 -0.6687
   56CHL1  H12A 4102   5.119   0.745   7.484 -0.5408  0.6591 -0.5109
   56CHL1  H12B 4103   5.056   0.899   7.467 -0.0212  0.9574 -0.5706
   56CHL1   C11 4104   5.139   0.825   7.275 -0.3831  0.1628 -0.3151
   56CHL1  H11A 4105   5.214   0.749   7.245 -1.3762 -1.0482  0.1813
   56CHL1  H11B 4106   5.040   0.783   7.248 -0.0937  0.0668 -1.2638
   56CHL1    C9 4107   5.159   0.962   7.207  0.6744 -0.5697  0.8169
   56CHL1    H9 4108   5.072   1.021   7.243  0.3152 -0.8550  0.4245
   56CHL1   C10 4109   5.149   0.961   7.046  0.0312  0.6428 -1.3940
   56CHL1   C19 4110   5.231   0.845   6.982  0.8833  0.3315  0.7053
   56CHL1  H19A 4111   5.182   0.752   7.018 -1.5702  0.8473 -1.0833
   56CHL1  H19B 4112   5.230   0.854   6.872 -1.9051 -1.6476  0.4670
   56CHL1  H19C 4113   5.334   0.853   7.022 -0.2127  0.0999  3.9044
   56CHL1    C1 4114   4.995   0.950   7.007 -0.5385  0.5119  0.1482
   56CHL1   H1A 4115   4.956   0.848   7.030  1.2625 -0.5305 -1.1163
   56CHL1   H1B 4116   4.940   1.020   7.073 -0.3732  0.7755  0.0099
   56CHL1    C2 4117   4.971   0.971   6.863 -0.1238  0.7353  0.1050
   56CHL1   H2A 4118   4.862   0.961   6.841 -0.0614 -2.6480  0.6687
   56CHL1   H2B 4119   5.016   0.888   6.804  0.2650  2.0139 -1.4381
   56CHL1   C20 4120   5.295   0.854   7.759 -0.1957  0.0009 -0.0017
   56CHL1   H20 4121   5.386   0.796   7.734  0.5456  0.5967  1.2178
   56CHL1   C21 4122   5.183   0.749   7.762 -0.1848  0.9635 -0.6732
   56CHL1  H21A 4123   5.081   0.789   7.745 -0.7627 -0.0521  0.2553
   56CHL1  H21B 4124   5.177   0.696   7.860  3.2277  1.3911 -0.0790
   56CHL1  H21C 4125   5.204   0.679   7.678  0.9383 -0.3658  0.6510
   56CHL1   C22 4126   5.324   0.934   7.884  0.3001 -0.1507 -0.1783
   56CHL1  H22A 4127   5.361   0.872   7.968  2.1229 -1.2578 -1.7301
   56CHL1  H22B 4128   5.400   1.014   7.869  0.9040 -1.1612 -3.0244
   56CHL1   C23 4129   5.193   1.002   7.935  0.7223  0.5999 -0.1124
   56CHL1  H23A 4130   5.154   1.061   7.849 -0.0879 -0.2504 -0.3327
   56CHL1  H23B 4131   5.115   0.924   7.941  1.8156 -0.7281 -2.1072
   56CHL1   C24 4132   5.215   1.074   8.070 -0.5524 -0.1887 -0.2987
   56CHL1  H24A 4133   5.273   1.007   8.137 -3.5282 -0.0633  2.6367
   56CHL1  H24B 4134   5.291   1.153   8.049  2.8577 -2.2500  2.8899
   56CHL1   C25 4135   5.086   1.116   8.146 -0.9953  0.3493 -0.2162
   56CHL1   H25 4136   5.014   1.162   8.075 -0.2531  1.2975 -0.3678
   56CHL1   C26 4137   5.017   0.997   8.209 -0.1132  0.2154  0.3550
   56CHL1  H26A 4138   4.929   1.025   8.272  0.4387 -0.0301  1.2465
   56CHL1  H26B 4139   5.085   0.938   8.273 -1.8945 -0.1781  1.9693
   56CHL1  H26C 4140   4.973   0.926   8.135  0.5003 -0.7904  0.9299
   56CHL1   C27 4141   5.125   1.225   8.253  0.0867  0.2232 -0.0134
   56CHL1  H27A 4142   5.037   1.250   8.316  0.1103  0.5513 -0.1078
   56CHL1  H27B 4143   5.192   1.174   8.326  0.5101  0.8847  0.0751
   56CHL1  H27C 4144   5.179   1.316   8.220  1.6178 -0.0909  1.4670
   57SAPC     N 4145   3.427   6.676  10.651 -0.5341 -0.0299  0.1894
   57SAPC   C12 4146   3.515   6.785  10.594 -0.3125  0.5427  0.1761
   57SAPC  H12A 4147   3.527   6.768  10.488  2.2938 -0.8146  0.6017
   57SAPC  H12B 4148   3.607   6.777  10.649 -0.9246 -3.6993  0.9072
   57SAPC   C13 4149   3.499   6.546  10.612 -0.0483 -0.0856  0.5596
   57SAPC  H13A 4150   3.606   6.552  10.626  0.1969 -0.5217 -0.9456
   57SAPC  H13B 4151   3.452   6.462  10.660 -0.0495 -0.7078 -0.4937
   57SAPC  H13C 4152   3.483   6.531  10.506 -0.7140 -1.4705  0.8322
   57SAPC   C14 4153   3.416   6.686  10.801  0.0164  0.6216  0.1028
   57SAPC  H14A 4154   3.514   6.686  10.847 -0.2873  0.8976  0.7559
   57SAPC  H14B 4155   3.380   6.782  10.833 -0.1027  0.4836  0.3875
   57SAPC  H14C 4156   3.364   6.608  10.854  3.6887  0.0032  3.2979
   57SAPC   C15 4157   3.287   6.684  10.592 -0.8387  0.8419 -0.2397
   57SAPC  H15A 4158   3.228   6.602  10.630  1.4474 -0.9755 -0.3792
   57SAPC  H15B 4159   3.254   6.785  10.612  1.3885  2.2912 -3.1422
   57SAPC  H15C 4160   3.301   6.689  10.485 -2.8683 -1.2658 -0.6830
   57SAPC   C11 4161   3.459   6.931  10.604  0.2236  0.5050 -0.1263
   57SAPC  H11A 4162   3.545   7.001  10.593 -0.2294  0.9085 -1.1668
   57SAPC  H11B 4163   3.426   6.942  10.710  2.4926  1.1162  0.5822
   57SAPC     P 4164   3.223   7.042  10.552 -0.1774 -0.2754  0.0558
   57SAPC   O13 4165   3.132   7.049  10.433  0.6930 -0.0882 -0.4251
   57SAPC   O14 4166   3.165   6.977  10.671  0.4370 -0.1884 -0.3947
   57SAPC   O12 4167   3.356   6.968  10.510  0.1361  0.5284 -0.6816
   57SAPC   O11 4168   3.273   7.184  10.595  0.1077  0.0864  0.5459
   57SAPC    C1 4169   3.225   7.302  10.521  0.2028 -0.5949  0.0154
   57SAPC    HA 4170   3.121   7.281  10.488 -1.3393  1.0734  3.2786
   57SAPC    HB 4171   3.208   7.385  10.593 -1.8446 -0.9890  0.0546
   57SAPC    C2 4172   3.322   7.340  10.410 -0.2995  0.2751  0.3247
   57SAPC    HS 4173   3.308   7.448  10.386  0.4893  0.5134  0.8948
   57SAPC   O21 4174   3.308   7.241  10.304 -0.2229 -0.0257 -0.5062
   57SAPC   C21 4175   3.214   7.273  10.221  0.0439  0.0691  0.2683
   57SAPC   O22 4176   3.125   7.358  10.245 -0.0192  0.6298  1.2788
   57SAPC   C22 4177   3.220   7.199  10.094 -0.2761  0.2664  0.3494
   57SAPC   H2R 4178   3.317   7.145  10.090 -1.2038 -1.4985  0.6343
   57SAPC   H2S 4179   3.144   7.118  10.100  1.1359 -1.4550 -2.5689
   57SAPC    C3 4180   3.470   7.329  10.461  0.0908 -0.5567 -0.0426
   57SAPC    HX 4181   3.491   7.223  10.488  0.6958 -1.2273 -2.7699
   57SAPC    HY 4182   3.490   7.404  10.540  0.1246  0.7674 -1.2565
   57SAPC   O31 4183   3.564   7.371  10.360 -0.2029  0.2848  0.4154
   57SAPC   C31 4184   3.648   7.285  10.305  0.0852 -0.0951 -0.1214
   57SAPC   O32 4185   3.643   7.165  10.317 -0.2532  0.3790 -0.2755
   57SAPC   C32 4186   3.766   7.361  10.240  0.0484 -1.0076  0.0940
   57SAPC   H2X 4187   3.833   7.391  10.324 -1.3242 -0.8133  1.1553
   57SAPC   H2Y 4188   3.725   7.459  10.208  1.9243 -0.4639 -0.7827
   57SAPC   C23 4189   3.201   7.286   9.967  0.3406  0.3617  0.2499
   57SAPC   H3R 4190   3.289   7.347   9.938 -1.1046  1.1106 -2.9515
   57SAPC   H3S 4191   3.126   7.363   9.997  0.8876  0.9783  0.0618
   57SAPC   C24 4192   3.156   7.200   9.844  0.2214 -0.1284  0.2218
   57SAPC   H4R 4193   3.134   7.274   9.764 -4.8084 -0.9100  0.5653
   57SAPC   H4S 4194   3.062   7.147   9.870 -0.8682  1.8453  0.5157
   57SAPC   C25 4195   3.258   7.095   9.811  0.1362  0.2542 -0.5826
   57SAPC   H5R 4196   3.268   7.014   9.884  0.3884 -0.9433 -1.9051
   57SAPC   C26 4197   3.338   7.093   9.702 -0.1878 -0.3005  0.1119
   57SAPC   H6R 4198   3.404   7.005   9.692 -0.5151 -0.5121 -0.2006
   57SAPC   C27 4199   3.344   7.197   9.589 -0.1284 -0.8944  0.4070
   57SAPC   H7R 4200   3.445   7.194   9.544 -0.1883 -0.3525  0.2306
   57SAPC   H7S 4201   3.331   7.300   9.630  2.2689 -0.1039 -0.6477
   57SAPC   C28 4202   3.246   7.173   9.473  0.4635  1.3459  0.3073
   57SAPC   H8R 4203   3.140   7.171   9.505  0.4362 -0.4998  0.1698
   57SAPC   C29 4204   3.269   7.156   9.342 -0.0243  0.8152 -0.5851
   57SAPC   H9R 4205   3.181   7.166   9.277  0.0285  1.8263 -0.5217
   57SAPC  C210 4206   3.398   7.153   9.265  0.2230 -0.2892 -0.5498
   57SAPC  H10R 4207   3.492   7.152   9.326  0.0252 -2.7872 -0.2029
   57SAPC  H10S 4208   3.383   7.247   9.208  0.2065  0.6404  0.9216
   57SAPC  C211 4209   3.408   7.035   9.174  0.1043  0.3121  0.0555
   57SAPC  H11R 4210   3.475   6.952   9.199 -1.8052 -1.7998 -1.5063
   57SAPC  C212 4211   3.356   7.027   9.048  0.2238  0.3774 -0.8324
   57SAPC  H12R 4212   3.366   6.936   8.987  0.1403 -0.5152  0.4582
   57SAPC  C213 4213   3.281   7.131   8.972 -0.3636 -0.5573  0.0530
   57SAPC  H13R 4214   3.247   7.210   9.042 -0.4693  0.1739 -0.8110
   57SAPC  H13S 4215   3.179   7.091   8.954 -1.0589 -0.2191  2.7984
   57SAPC  C214 4216   3.342   7.196   8.848  0.2619 -0.6491 -0.5374
   57SAPC  H14R 4217   3.438   7.247   8.860  1.6207 -3.1586 -0.1833
   57SAPC  C215 4218   3.286   7.182   8.728 -0.3093 -0.6211  0.7352
   57SAPC  H15R 4219   3.327   7.232   8.639 -0.6288 -0.1562  0.8452
   57SAPC  C216 4220   3.165   7.100   8.687 -0.4532  0.2042 -0.3310
   57SAPC  H16R 4221   3.104   7.065   8.774  0.1189 -0.4318 -0.1829
   57SAPC  H16S 4222   3.185   7.014   8.621 -0.7539  0.1023 -0.2910
   57SAPC  C217 4223   3.070   7.200   8.615  0.4050 -0.2158  0.0657
   57SAPC  H17R 4224   3.128   7.267   8.548 -1.0460  0.7186 -0.2886
   57SAPC  H17S 4225   3.045   7.276   8.693  1.1608 -0.2450  0.3516
   57SAPC  C218 4226   2.949   7.147   8.551 -0.1470  0.8545  0.1627
   57SAPC  H18R 4227   2.898   7.074   8.617 -0.4615  1.9322  1.1369
   57SAPC  H18S 4228   2.977   7.090   8.460 -1.8399 -1.6675  1.1292
   57SAPC  C219 4229   2.856   7.262   8.501 -0.7251  0.6260  0.1640
   57SAPC  H19R 4230   2.914   7.317   8.423  1.2016 -0.4020  0.8150
   57SAPC  H19S 4231   2.831   7.330   8.585 -1.2933  1.5095 -0.7028
   57SAPC  C220 4232   2.728   7.215   8.430  0.1923 -1.3589 -0.0803
   57SAPC  H20R 4233   2.764   7.161   8.340  0.1915 -1.3555 -0.0826
   57SAPC  H20S 4234   2.662   7.294   8.389 -0.3506 -1.6075  0.2979
   57SAPC  H20T 4235   2.664   7.144   8.487  0.2755 -1.0942  0.3482
   57SAPC   C33 4236   3.844   7.292  10.130  0.2820  0.1479 -0.4038
   57SAPC   H3X 4237   3.826   7.337  10.030 -0.4158  1.2174  0.1975
   57SAPC   H3Y 4238   3.796   7.192  10.118 -2.1526  1.2604 -0.3316
   57SAPC   C34 4239   3.993   7.275  10.167 -0.5646  0.0308 -0.1758
   57SAPC   H4X 4240   3.996   7.252  10.276  0.0047 -1.0507 -0.4022
   57SAPC   H4Y 4241   4.038   7.377  10.169 -0.1016 -0.1593 -0.6673
   57SAPC   C35 4242   4.080   7.194  10.068 -0.0890 -1.0385  0.0909
   57SAPC   H5X 4243   4.032   7.097  10.043  0.3916 -1.1498 -0.4167
   57SAPC   H5Y 4244   4.173   7.172  10.124 -0.6757 -1.1121  1.0675
   57SAPC   C36 4245   4.103   7.263   9.932  0.1060  0.5390 -0.2786
   57SAPC   H6X 4246   4.180   7.343   9.941  0.6932 -0.0176 -0.2929
   57SAPC   H6Y 4247   4.010   7.313   9.899 -1.1274 -1.2971  0.2860
   57SAPC   C37 4248   4.140   7.165   9.818 -0.2983 -0.8150 -0.1860
   57SAPC   H7X 4249   4.051   7.102   9.796 -0.4977 -0.8019  0.5792
   57SAPC   H7Y 4250   4.225   7.099   9.844  0.3906  1.0152  2.6298
   57SAPC   C38 4251   4.176   7.247   9.689  0.0325  0.3380 -0.0598
   57SAPC   H8X 4252   4.261   7.317   9.705 -0.5817  1.8572 -2.7780
   57SAPC   H8Y 4253   4.090   7.313   9.663 -0.1498  0.0386 -0.2199
   57SAPC   C39 4254   4.197   7.144   9.574 -0.2029 -0.2713  0.0806
   57SAPC   H9X 4255   4.102   7.086   9.573 -0.7727  0.6392 -0.3433
   57SAPC   H9Y 4256   4.279   7.070   9.579  0.5403  0.4644 -0.8184
   57SAPC  C310 4257   4.206   7.199   9.429 -0.5882  0.2227  0.3163
   57SAPC  H10X 4258   4.312   7.230   9.426  0.0585 -1.6448  1.4649
   57SAPC  H10Y 4259   4.132   7.281   9.416 -0.4237  0.5992  1.6163
   57SAPC  C311 4260   4.189   7.082   9.325  0.6676 -0.5309 -0.6821
   57SAPC  H11X 4261   4.087   7.038   9.330 -0.3346  1.5614 -1.4125
   57SAPC  H11Y 4262   4.256   7.002   9.362 -1.3457 -1.8362  0.3307
   57SAPC  C312 4263   4.227   7.126   9.187 -0.3179  0.0832  0.2461
   57SAPC  H12X 4264   4.321   7.184   9.184 -2.1291  3.1908 -1.9633
   57SAPC  H12Y 4265   4.154   7.208   9.168  0.0895  1.3219  3.3478
   57SAPC  C313 4266   4.227   7.020   9.076  0.0192 -0.5433 -0.4285
   57SAPC  H13X 4267   4.129   6.975   9.048  0.6142 -2.4480  0.3788
   57SAPC  H13Y 4268   4.284   6.931   9.111 -1.7134 -1.7959 -0.6524
   57SAPC  C314 4269   4.289   7.072   8.946 -0.3142  0.1446  0.4159
   57SAPC  H14X 4270   4.382   7.133   8.947  0.2704 -0.5901 -1.8256
   57SAPC  H14Y 4271   4.217   7.146   8.906 -0.4280 -0.5074 -0.6264
   57SAPC  C315 4272   4.300   6.958   8.846  0.6880  0.1478 -0.4174
   57SAPC  H15X 4273   4.358   6.881   8.901  1.3564  0.3259 -0.8573
   57SAPC  H15Y 4274   4.351   7.004   8.759 -1.5283 -1.2090 -2.5883
   57SAPC  C316 4275   4.163   6.901   8.805 -0.0969 -0.0190 -0.0983
   57SAPC  H16X 4276   4.097   6.988   8.785  1.3028  0.8600 -1.0963
   57SAPC  H16Y 4277   4.117   6.843   8.887 -0.8132  3.6014  2.3091
   57SAPC  C317 4278   4.170   6.820   8.684  0.6080 -0.1495  0.2335
   57SAPC  H17X 4279   4.241   6.735   8.692  1.1885 -0.1154 -3.2157
   57SAPC  H17Y 4280   4.212   6.883   8.603 -1.4901 -0.2422 -1.0001
   57SAPC  C318 4281   4.039   6.766   8.615 -0.0270 -0.0152 -0.6228
   57SAPC  H18X 4282   4.058   6.692   8.535 -0.3733 -0.2051 -0.5317
   57SAPC  H18Y 4283   3.991   6.859   8.577 -3.9764 -2.3070 -1.8131
   57SAPC  H18Z 4284   3.970   6.711   8.683  0.0124 -1.2405 -1.5472
   58SAPC     N 4285   5.500   4.674  10.724 -0.1677 -0.0933  0.6318
   58SAPC   C12 4286   5.591   4.604  10.626  0.0138  0.6143  0.4831
   58SAPC  H12A 4287   5.660   4.673  10.579  0.6023  0.9263  1.7625
   58SAPC  H12B 4288   5.529   4.567  10.546 -0.3453  1.9817  0.0878
   58SAPC   C13 4289   5.579   4.762  10.818  0.1756  0.2186  0.7511
   58SAPC  H13A 4290   5.652   4.703  10.871 -1.6498 -0.3330  2.8318
   58SAPC  H13B 4291   5.633   4.845  10.775 -2.7266  2.6158  1.3361
   58SAPC  H13C 4292   5.510   4.802  10.892  2.2567  2.2542  1.7297
   58SAPC   C14 4293   5.396   4.764  10.653 -0.5525 -0.1161  0.4391
   58SAPC  H14A 4294   5.457   4.834  10.598 -1.8828  0.2512 -0.6473
   58SAPC  H14B 4295   5.333   4.704  10.588  0.4355  0.3381 -0.9669
   58SAPC  H14C 4296   5.348   4.820  10.732 -0.9802 -0.2861  0.3004
   58SAPC   C15 4297   5.414   4.582  10.808  0.4910 -0.0141  0.0913
   58SAPC  H15A 4298   5.348   4.525  10.743  1.3630 -0.2895 -0.5784
   58SAPC  H15B 4299   5.486   4.522  10.862 -0.5888 -0.1968  1.3674
   58SAPC  H15C 4300   5.360   4.643  10.879  1.9912  1.6462 -0.1418
   58SAPC   C11 4301   5.667   4.485  10.685 -0.0041 -0.3177  0.1777
   58SAPC  H11A 4302   5.691   4.408  10.608 -0.9048 -1.4512  1.0052
   58SAPC  H11B 4303   5.604   4.423  10.752 -0.1705  0.8385  1.1017
   58SAPC     P 4304   5.916   4.577  10.677 -0.3181  0.0303 -0.0123
   58SAPC   O13 4305   5.987   4.667  10.773 -0.4704  0.0078  0.0081
   58SAPC   O14 4306   5.993   4.459  10.629  0.0278 -0.3181 -0.1385
   58SAPC   O12 4307   5.784   4.528  10.762  0.1423 -0.1455 -0.1323
   58SAPC   O11 4308   5.863   4.662  10.551 -0.1978  0.1700 -0.0702
   58SAPC    C1 4309   5.886   4.805  10.525  0.1525  0.7965 -0.4853
   58SAPC    HA 4310   5.840   4.869  10.604  0.7096  0.8769 -0.2210
   58SAPC    HB 4311   5.996   4.817  10.536  0.5462 -2.1566 -0.4053
   58SAPC    C2 4312   5.825   4.849  10.393 -0.6836 -0.0531 -0.1859
   58SAPC    HS 4313   5.716   4.832  10.401 -1.0534  2.7424  2.5297
   58SAPC   O21 4314   5.891   4.790  10.282 -0.7930 -0.6284  0.4274
   58SAPC   C21 4315   5.809   4.753  10.189 -0.1736  0.8998  0.8089
   58SAPC   O22 4316   5.688   4.760  10.192 -0.2330  1.3232 -0.2876
   58SAPC   C22 4317   5.897   4.702  10.064  0.2760 -0.4292  0.3571
   58SAPC   H2R 4318   5.993   4.758  10.057 -1.4168  2.6250 -0.4786
   58SAPC   H2S 4319   5.935   4.600  10.085  0.7861 -0.2048  0.5212
   58SAPC    C3 4320   5.834   5.006  10.390 -0.6629 -0.4620 -0.2965
   58SAPC    HX 4321   5.938   5.027  10.423 -0.7215 -1.4321  0.5456
   58SAPC    HY 4322   5.775   5.048  10.475  0.8101 -0.5388  0.8088
   58SAPC   O31 4323   5.814   5.069  10.261 -0.2140 -0.4008 -0.6650
   58SAPC   C31 4324   5.744   5.184  10.274  0.4078 -0.2100 -0.1955
   58SAPC   O32 4325   5.692   5.231  10.378 -0.4346 -0.0086  0.1318
   58SAPC   C32 4326   5.723   5.250  10.136  0.2861  0.7585 -0.5287
   58SAPC   H2X 4327   5.796   5.208  10.064 -1.0617 -0.9475 -0.9844
   58SAPC   H2Y 4328   5.754   5.356  10.152 -0.4534  0.7144  1.6714
   58SAPC   C23 4329   5.825   4.713   9.930  0.7316 -0.4443 -0.0649
   58SAPC   H3R 4330   5.800   4.818   9.907 -0.1085 -0.7394 -0.5281
   58SAPC   H3S 4331   5.730   4.655   9.934  1.3569 -1.4279  1.2063
   58SAPC   C24 4332   5.904   4.629   9.827 -0.0048 -1.0926 -0.4378
   58SAPC   H4R 4333   5.909   4.529   9.875 -2.1327 -1.2748 -0.5155
   58SAPC   H4S 4334   6.000   4.680   9.848 -1.0398  1.0604 -0.7240
   58SAPC   C25 4335   5.849   4.624   9.691  0.3747  0.2484 -0.9248
   58SAPC   H5R 4336   5.740   4.626   9.677  0.2904  1.4500 -0.1721
   58SAPC   C26 4337   5.919   4.597   9.581 -0.0282  0.4151 -0.1399
   58SAPC   H6R 4338   5.872   4.615   9.484  1.3508 -1.7032 -1.2796
   58SAPC   C27 4339   6.072   4.571   9.572  0.4317  0.0513 -0.6571
   58SAPC   H7R 4340   6.116   4.554   9.672  0.2515  0.0015 -0.5858
   58SAPC   H7S 4341   6.124   4.655   9.521 -3.5702  2.8781 -0.5293
   58SAPC   C28 4342   6.095   4.446   9.486 -0.6614 -0.4901 -0.3136
   58SAPC   H8R 4343   6.086   4.359   9.553  0.4451 -0.0797  0.4036
   58SAPC   C29 4344   6.134   4.431   9.356 -0.0167 -0.2566 -0.1099
   58SAPC   H9R 4345   6.153   4.333   9.307  4.2541  1.1665 -1.8164
   58SAPC  C210 4346   6.153   4.544   9.261 -0.3373  0.4531  0.5487
   58SAPC  H10R 4347   6.255   4.527   9.221 -1.0320 -2.4781 -0.1568
   58SAPC  H10S 4348   6.148   4.641   9.315 -3.1808  0.8624 -0.3046
   58SAPC  C211 4349   6.039   4.555   9.157 -0.2837 -0.3736  0.0733
   58SAPC  H11R 4350   5.953   4.602   9.208 -1.8147 -2.6608 -0.2570
   58SAPC  C212 4351   6.030   4.522   9.027  0.7328  0.6658 -0.6485
   58SAPC  H12R 4352   5.937   4.528   8.970 -0.0097  0.5717  0.5252
   58SAPC  C213 4353   6.140   4.462   8.950  0.0028  0.2725  0.9115
   58SAPC  H13R 4354   6.225   4.459   9.021  0.2705 -1.9484  0.5739
   58SAPC  H13S 4355   6.171   4.524   8.863 -0.5692 -1.0937 -0.3147
   58SAPC  C214 4356   6.101   4.319   8.912 -0.2664 -0.3422  0.1372
   58SAPC  H14R 4357   6.090   4.246   8.994  1.2665  0.3021  0.9578
   58SAPC  C215 4358   6.092   4.276   8.783  0.4566  0.0247  0.1992
   58SAPC  H15R 4359   6.066   4.171   8.763  2.1341 -0.9759  2.7840
   58SAPC  C216 4360   6.109   4.354   8.654 -0.3463 -0.2095  0.2018
   58SAPC  H16R 4361   6.188   4.312   8.590  1.2049 -0.1055  1.9703
   58SAPC  H16S 4362   6.140   4.459   8.672 -0.3077 -0.3319  0.9136
   58SAPC  C217 4363   5.968   4.360   8.585 -0.1696  0.5011  0.2286
   58SAPC  H17R 4364   5.929   4.256   8.584 -0.8514  0.6999  1.8750
   58SAPC  H17S 4365   5.973   4.391   8.479 -2.1317 -2.0843 -0.7118
   58SAPC  C218 4366   5.866   4.456   8.658  0.2665 -0.1863  0.4858
   58SAPC  H18R 4367   5.875   4.428   8.765  1.8863 -0.4053  0.3243
   58SAPC  H18S 4368   5.765   4.432   8.620  0.3481  0.5262 -0.2020
   58SAPC  C219 4369   5.897   4.607   8.633  0.2680 -0.1470 -0.0992
   58SAPC  H19R 4370   5.999   4.631   8.671  0.4457 -1.0069 -0.0156
   58SAPC  H19S 4371   5.822   4.660   8.696  0.4833  0.9671 -0.7552
   58SAPC  C220 4372   5.888   4.657   8.488 -1.0838 -0.2541  0.4834
   58SAPC  H20R 4373   5.879   4.767   8.474  1.4081  0.1821  1.6786
   58SAPC  H20S 4374   5.808   4.609   8.428  0.7536 -0.0985 -2.2567
   58SAPC  H20T 4375   5.982   4.634   8.434 -1.1097  2.7907 -1.0310
   58SAPC   C33 4376   5.575   5.248  10.086 -0.2881 -0.1137  0.8267
   58SAPC   H3X 4377   5.552   5.315  10.001  0.1776  1.2860  1.7783
   58SAPC   H3Y 4378   5.514   5.285  10.171 -0.1002 -0.6172  1.1850
   58SAPC   C34 4379   5.509   5.103  10.057  0.1566 -0.1536  0.5229
   58SAPC   H4X 4380   5.399   5.103  10.040  0.2937 -4.2593 -1.7653
   58SAPC   H4Y 4381   5.521   5.029  10.139 -1.1622 -1.1175 -0.1075
   58SAPC   C35 4382   5.561   5.036   9.922  0.3324 -0.0134  0.3400
   58SAPC   H5X 4383   5.507   4.939   9.916  0.0849  0.1883 -1.1089
   58SAPC   H5Y 4384   5.669   5.013   9.928  0.5282  0.7541 -0.1116
   58SAPC   C36 4385   5.516   5.118   9.801 -0.2721  0.0225 -0.2827
   58SAPC   H6X 4386   5.575   5.211   9.812  2.0429 -1.6670  3.4162
   58SAPC   H6Y 4387   5.407   5.137   9.811 -0.1162  0.1870  1.2837
   58SAPC   C37 4388   5.548   5.054   9.668 -0.3605  0.3603  0.0935
   58SAPC   H7X 4389   5.484   5.114   9.600 -0.4019  0.3434  0.1174
   58SAPC   H7Y 4390   5.500   4.954   9.667  1.6475 -0.6572 -0.5840
   58SAPC   C38 4391   5.694   5.059   9.626 -0.2398  0.3078 -0.6730
   58SAPC   H8X 4392   5.762   4.999   9.691  1.1196  1.3995 -1.0573
   58SAPC   H8Y 4393   5.723   5.166   9.634  1.6454 -0.1840 -0.3587
   58SAPC   C39 4394   5.714   4.995   9.488 -0.1171  0.7532  0.6461
   58SAPC   H9X 4395   5.635   5.050   9.432  0.8892  1.6828  0.0777
   58SAPC   H9Y 4396   5.690   4.888   9.477 -1.4136  1.2752 -4.0195
   58SAPC  C310 4397   5.852   5.027   9.425  0.5434 -0.2142  0.1706
   58SAPC  H10X 4398   5.926   4.992   9.500  0.2563 -0.3871  0.3780
   58SAPC  H10Y 4399   5.868   5.137   9.426 -0.6278 -0.0261 -0.0258
   58SAPC  C311 4400   5.872   4.962   9.283  0.7188 -0.7190  0.3329
   58SAPC  H11X 4401   5.834   4.857   9.288 -0.5621 -0.2351  1.5932
   58SAPC  H11Y 4402   5.978   4.964   9.253  0.0300  0.4226 -2.2591
   58SAPC  C312 4403   5.790   5.040   9.180 -0.4614  0.6228  0.0113
   58SAPC  H12X 4404   5.821   5.146   9.183 -1.3945  0.9056 -0.0598
   58SAPC  H12Y 4405   5.684   5.037   9.215  0.0911  1.0433  1.8145
   58SAPC  C313 4406   5.806   4.992   9.037 -0.6345 -0.2326  0.0005
   58SAPC  H13X 4407   5.758   4.894   9.016  1.9236 -1.1404 -2.3149
   58SAPC  H13Y 4408   5.917   4.984   9.026 -0.3680  0.9267  1.5691
   58SAPC  C314 4409   5.751   5.100   8.937 -0.2589 -0.1081  0.6180
   58SAPC  H14X 4410   5.806   5.195   8.954  0.7128 -0.2281 -1.5535
   58SAPC  H14Y 4411   5.643   5.110   8.961 -0.5355  0.9120 -0.9509
   58SAPC  C315 4412   5.763   5.067   8.787 -0.5513  0.5969  0.0264
   58SAPC  H15X 4413   5.748   4.958   8.779  0.8954  0.2248  1.8281
   58SAPC  H15Y 4414   5.869   5.087   8.762 -0.3313 -2.2183 -1.6662
   58SAPC  C316 4415   5.669   5.145   8.701  0.5306 -0.9125  0.1583
   58SAPC  H16X 4416   5.564   5.130   8.735  0.7741 -1.4725  0.6789
   58SAPC  H16Y 4417   5.674   5.104   8.598 -3.1809  0.5439 -0.7924
   58SAPC  C317 4418   5.695   5.291   8.679  0.1260  0.2737 -0.1920
   58SAPC  H17X 4419   5.802   5.304   8.652  0.1431 -1.7066 -1.2666
   58SAPC  H17Y 4420   5.688   5.354   8.770 -3.0654 -1.6183  1.0316
   58SAPC  C318 4421   5.602   5.357   8.573 -0.3933 -0.2481 -0.4273
   58SAPC  H18X 4422   5.495   5.342   8.600 -0.6900  1.9328 -0.2221
   58SAPC  H18Y 4423   5.639   5.328   8.473 -0.4507  0.4950 -0.6644
   58SAPC  H18Z 4424   5.621   5.466   8.572  1.0292 -0.4552  0.6780
   59SAPC     N 4425   0.859   4.951  11.302  0.4344 -0.1973 -0.7899
   59SAPC   C12 4426   0.889   4.809  11.354 -0.4989  0.2037 -0.2335
   59SAPC  H12A 4427   0.835   4.788  11.445  0.1289  1.8227  0.5437
   59SAPC  H12B 4428   0.993   4.807  11.383 -0.4736  1.5878 -0.1465
   59SAPC   C13 4429   0.849   5.045  11.414 -0.1953  0.0632 -0.0077
   59SAPC  H13A 4430   0.803   5.141  11.396  0.7579  0.6263  0.4795
   59SAPC  H13B 4431   0.780   5.008  11.488 -1.2255  5.1170  1.9268
   59SAPC  H13C 4432   0.943   5.061  11.464 -0.3129  1.7194 -0.2698
   59SAPC   C14 4433   0.975   4.985  11.214 -0.1478 -0.4894 -0.1400
   59SAPC  H14A 4434   0.950   5.066  11.147  0.0348  0.1445  0.5486
   59SAPC  H14B 4435   1.064   4.999  11.274 -0.4123 -1.3312  0.4734
   59SAPC  H14C 4436   0.990   4.901  11.147  0.0650 -1.0101  0.5528
   59SAPC   C15 4437   0.740   4.950  11.215  0.2706  0.1307  0.1137
   59SAPC  H15A 4438   0.699   5.050  11.205 -2.4538 -0.9196 -0.0020
   59SAPC  H15B 4439   0.752   4.902  11.119 -1.2106 -2.1706  1.0088
   59SAPC  H15C 4440   0.659   4.898  11.264 -0.0890  2.3323  2.0102
   59SAPC   C11 4441   0.867   4.688  11.262  0.0537 -0.2523  0.0229
   59SAPC  H11A 4442   0.760   4.686  11.234  0.4480  0.9340 -1.7200
   59SAPC  H11B 4443   0.883   4.600  11.327 -0.1509 -1.0489 -0.9710
   59SAPC     P 4444   0.864   4.668  11.001  0.4534 -0.4120 -0.0480
   59SAPC   O13 4445   0.950   4.620  10.891 -0.1860  0.8486 -0.0524
   59SAPC   O14 4446   0.751   4.580  11.042 -0.0525  0.3031  0.1619
   59SAPC   O12 4447   0.948   4.697  11.145  0.4642  0.2804  0.8431
   59SAPC   O11 4448   0.820   4.813  10.959  0.0375 -0.8481  0.5147
   59SAPC    C1 4449   0.701   4.834  10.880 -0.1478 -0.5400  0.0872
   59SAPC    HA 4450   0.619   4.778  10.929  0.9437 -2.5878 -0.2943
   59SAPC    HB 4451   0.681   4.943  10.887 -1.4376 -0.7006 -0.9204
   59SAPC    C2 4452   0.719   4.794  10.732  0.6538 -0.0245 -0.4660
   59SAPC    HS 4453   0.702   4.685  10.741  0.3353 -0.0173 -0.9375
   59SAPC   O21 4454   0.853   4.825  10.677  0.3953  0.8009 -0.2471
   59SAPC   C21 4455   0.906   4.729  10.599  0.6078 -0.4417 -0.0424
   59SAPC   O22 4456   0.855   4.624  10.566  0.0396  0.5692  0.0267
   59SAPC   C22 4457   1.043   4.775  10.558 -0.0708 -0.3133  0.2561
   59SAPC   H2R 4458   1.033   4.881  10.526  0.3552  0.2631  1.9483
   59SAPC   H2S 4459   1.112   4.764  10.643  2.3434  0.9429 -1.4328
   59SAPC    C3 4460   0.600   4.850  10.642  0.0784 -0.1312 -0.4390
   59SAPC    HX 4461   0.589   4.959  10.656 -0.0234  0.2066 -2.7599
   59SAPC    HY 4462   0.513   4.796  10.685 -0.1185  0.1307 -0.5109
   59SAPC   O31 4463   0.629   4.823  10.501 -0.4235 -0.2793 -0.3041
   59SAPC   C31 4464   0.568   4.899  10.410  0.6709  0.2464  0.0046
   59SAPC   O32 4465   0.492   4.995  10.438 -0.3632 -0.1442  0.2219
   59SAPC   C32 4466   0.607   4.851  10.273 -0.1135  0.2907  0.2957
   59SAPC   H2X 4467   0.589   4.742  10.280 -1.2012  0.4989  1.0040
   59SAPC   H2Y 4468   0.716   4.870  10.261 -0.0212 -0.2248  0.2977
   59SAPC   C23 4469   1.099   4.696  10.435  1.1350  0.1457 -0.1061
   59SAPC   H3R 4470   1.028   4.699  10.350 -0.0624 -0.7281  0.8246
   59SAPC   H3S 4471   1.104   4.589  10.465  0.2184 -0.0726 -0.6939
   59SAPC   C24 4472   1.235   4.750  10.385 -0.5766  0.0365 -0.9119
   59SAPC   H4R 4473   1.269   4.672  10.313  2.7214 -0.5156  1.0551
   59SAPC   H4S 4474   1.304   4.733  10.471 -0.0115 -1.2176 -1.5777
   59SAPC   C25 4475   1.234   4.890  10.322  0.3034  0.3350  0.1929
   59SAPC   H5R 4476   1.217   4.974  10.392  2.1397 -1.2462  2.7025
   59SAPC   C26 4477   1.260   4.914  10.192 -0.0234 -0.4635 -0.6260
   59SAPC   H6R 4478   1.253   5.018  10.157  3.2291 -0.7052 -2.2966
   59SAPC   C27 4479   1.304   4.822  10.080 -0.5498  1.0058  0.2281
   59SAPC   H7R 4480   1.327   4.722  10.123  2.0425  1.8553  0.9970
   59SAPC   H7S 4481   1.405   4.846  10.040  0.0412 -1.0227  0.3778
   59SAPC   C28 4482   1.201   4.793   9.977  0.0235  0.5808  0.2394
   59SAPC   H8R 4483   1.111   4.748  10.022  0.4636  1.4870  2.1439
   59SAPC   C29 4484   1.208   4.817   9.843  0.3369  0.4085 -0.0364
   59SAPC   H9R 4485   1.126   4.772   9.785  0.2593 -1.0402  1.1186
   59SAPC  C210 4486   1.331   4.868   9.770 -0.6154 -0.2625 -0.3978
   59SAPC  H10R 4487   1.394   4.783   9.739 -0.6750  0.6379 -3.3144
   59SAPC  H10S 4488   1.393   4.931   9.836  0.1918  1.3425 -2.5598
   59SAPC  C211 4489   1.297   4.952   9.646 -0.7646  0.2309 -0.2548
   59SAPC  H11R 4490   1.263   5.054   9.669 -0.3483  0.3387 -0.1086
   59SAPC  C212 4491   1.285   4.908   9.519  0.0918 -0.0881  0.5263
   59SAPC  H12R 4492   1.268   4.982   9.440 -0.4614  0.1818  0.8969
   59SAPC  C213 4493   1.298   4.766   9.467 -0.4634 -0.2086  0.2986
   59SAPC  H13R 4494   1.319   4.692   9.547 -0.3822 -1.2350 -0.6396
   59SAPC  H13S 4495   1.381   4.750   9.395 -1.4939 -1.9486 -0.5674
   59SAPC  C214 4496   1.180   4.728   9.392  1.0847 -0.4427  0.2025
   59SAPC  H14R 4497   1.109   4.660   9.442 -0.9193 -0.2665 -2.2086
   59SAPC  C215 4498   1.150   4.754   9.265 -0.1041 -0.0700  1.0971
   59SAPC  H15R 4499   1.062   4.702   9.223  0.6236 -0.5979  0.1847
   59SAPC  C216 4500   1.232   4.821   9.157 -0.2865  0.0305 -0.3132
   59SAPC  H16R 4501   1.327   4.858   9.200  0.2428  0.1101 -1.5014
   59SAPC  H16S 4502   1.183   4.914   9.120  0.7193  0.4625 -0.5779
   59SAPC  C217 4503   1.269   4.731   9.039  0.4422 -0.1413  0.4506
   59SAPC  H17R 4504   1.179   4.698   8.983  1.9815 -0.7849 -1.8041
   59SAPC  H17S 4505   1.323   4.647   9.089  2.0669  0.8022  0.3242
   59SAPC  C218 4506   1.374   4.797   8.944  0.8964  0.7075 -0.3138
   59SAPC  H18R 4507   1.401   4.707   8.883 -0.2174  0.1463 -0.0163
   59SAPC  H18S 4508   1.465   4.833   8.997  0.1138  0.2716  1.3980
   59SAPC  C219 4509   1.300   4.890   8.854  0.0830 -0.2676  0.5864
   59SAPC  H19R 4510   1.375   4.957   8.808 -0.7975  0.0143 -0.4679
   59SAPC  H19S 4511   1.228   4.948   8.916 -0.5273 -0.1817 -0.1803
   59SAPC  C220 4512   1.239   4.831   8.727  0.0453  0.3809 -0.5523
   59SAPC  H20R 4513   1.156   4.759   8.743  1.5636 -1.1944  0.5742
   59SAPC  H20S 4514   1.317   4.784   8.663 -0.7653 -0.8830 -0.6547
   59SAPC  H20T 4515   1.199   4.911   8.661  1.2706  2.1240  0.7240
   59SAPC   C33 4516   0.516   4.909  10.165  0.3188 -0.2960  0.6729
   59SAPC   H3X 4517   0.535   5.018  10.174  0.6340 -0.4227  1.6569
   59SAPC   H3Y 4518   0.418   4.867  10.197  1.4914 -2.6595  1.3696
   59SAPC   C34 4519   0.554   4.845  10.030 -0.4090 -0.3527 -0.5564
   59SAPC   H4X 4520   0.514   4.743  10.012 -0.0190 -0.6756  0.3625
   59SAPC   H4Y 4521   0.665   4.837  10.037 -0.3453  1.5879  1.5992
   59SAPC   C35 4522   0.499   4.931   9.902  0.0532  0.3981 -0.3739
   59SAPC   H5X 4523   0.548   5.031   9.897 -0.1361  0.5321  0.3826
   59SAPC   H5Y 4524   0.391   4.939   9.922  0.4776  1.3151  1.8109
   59SAPC   C36 4525   0.520   4.856   9.770 -0.1149 -0.2792  0.0291
   59SAPC   H6X 4526   0.454   4.767   9.767 -2.0655  1.1321 -0.8570
   59SAPC   H6Y 4527   0.623   4.814   9.767  0.1757  0.3055  1.3725
   59SAPC   C37 4528   0.488   4.948   9.652 -0.5832  0.0033 -0.1680
   59SAPC   H7X 4529   0.570   5.023   9.647  0.7964 -1.3069  1.6781
   59SAPC   H7Y 4530   0.388   4.993   9.667 -1.2097 -1.7063  1.0563
   59SAPC   C38 4531   0.481   4.875   9.512  0.0340 -0.9879  0.8060
   59SAPC   H8X 4532   0.392   4.809   9.518  0.2741 -1.2134  2.8758
   59SAPC   H8Y 4533   0.576   4.823   9.485  0.1062  0.9971 -3.5388
   59SAPC   C39 4534   0.441   4.978   9.405  1.1815 -0.2497  0.2646
   59SAPC   H9X 4535   0.534   5.031   9.377  0.8674 -0.7743 -1.9834
   59SAPC   H9Y 4536   0.373   5.046   9.462  0.9882 -1.9556  2.1817
   59SAPC  C310 4537   0.364   4.925   9.282 -0.1230  0.3516 -0.2573
   59SAPC  H10X 4538   0.331   5.013   9.223  1.1774  1.4314  0.5703
   59SAPC  H10Y 4539   0.269   4.874   9.309  0.3478 -0.1706  0.4404
   59SAPC  C311 4540   0.447   4.838   9.184  0.3133  0.7021 -0.1383
   59SAPC  H11X 4541   0.495   4.762   9.249 -0.7702  0.0980 -0.0152
   59SAPC  H11Y 4542   0.515   4.890   9.113  1.5867  1.6207  1.6909
   59SAPC  C312 4543   0.354   4.766   9.092 -0.3330 -1.3944  0.4605
   59SAPC  H12X 4544   0.276   4.708   9.146 -3.5465 -0.9704 -3.3109
   59SAPC  H12Y 4545   0.420   4.690   9.044  0.6215 -1.7054  2.1574
   59SAPC  C313 4546   0.296   4.849   8.980 -0.9571  0.3956 -0.5153
   59SAPC  H13X 4547   0.377   4.920   8.953 -0.9352  0.0805 -1.3107
   59SAPC  H13Y 4548   0.212   4.914   9.012 -0.2098  0.7988  0.7045
   59SAPC  C314 4549   0.263   4.766   8.858 -0.2258  0.7574 -0.0263
   59SAPC  H14X 4550   0.358   4.715   8.831 -0.0687 -0.8667  3.1883
   59SAPC  H14Y 4551   0.222   4.833   8.779 -1.0643  3.1712  2.2817
   59SAPC  C315 4552   0.149   4.661   8.869  0.2308  0.3752 -0.9994
   59SAPC  H15X 4553   0.055   4.719   8.885  1.4523  2.1825 -0.0201
   59SAPC  H15Y 4554   0.177   4.607   8.962  0.4487  1.2643 -0.5383
   59SAPC  C316 4555   0.134   4.570   8.751 -0.0868 -0.0178 -0.4073
   59SAPC  H16X 4556   0.230   4.535   8.706  0.2980 -1.2155  1.2247
   59SAPC  H16Y 4557   0.083   4.608   8.660  0.8688  1.6717 -0.2643
   59SAPC  C317 4558   0.055   4.440   8.780 -0.2916  0.4816 -0.0157
   59SAPC  H17X 4559  -0.048   4.473   8.800 -0.0408 -0.0373  2.4286
   59SAPC  H17Y 4560   0.087   4.403   8.880 -1.9950  2.1997  1.2225
   59SAPC  C318 4561   0.042   4.329   8.668  0.2156 -1.0054  0.7917
   59SAPC  H18X 4562   0.005   4.357   8.567 -1.5073  1.5285  2.0374
   59SAPC  H18Y 4563  -0.033   4.265   8.718 -0.1950 -0.3951  0.9621
   59SAPC  H18Z 4564   0.138   4.274   8.660  2.5074  2.8418 -1.6165
   60SAPC     N 4565   2.815   6.627  10.585 -0.2088 -0.0443  0.3158
   60SAPC   C12 4566   2.824   6.573  10.721 -0.3480 -0.3122  0.4576
   60SAPC  H12A 4567   2.765   6.484  10.735 -1.6748  0.4997  0.1896
   60SAPC  H12B 4568   2.778   6.641  10.791 -0.8814 -2.4771  2.3335
   60SAPC   C13 4569   2.877   6.762  10.588 -0.2148 -0.7085 -0.3738
   60SAPC  H13A 4570   2.826   6.820  10.664 -0.8842 -0.4368 -1.0223
   60SAPC  H13B 4571   2.984   6.758  10.604 -0.3394 -0.1455  0.7546
   60SAPC  H13C 4572   2.856   6.821  10.501  0.5019  1.8001  1.0385
   60SAPC   C14 4573   2.881   6.552  10.473 -0.0908 -0.1613 -0.4557
   60SAPC  H14A 4574   2.889   6.624  10.393  1.3436  0.0379 -0.1511
   60SAPC  H14B 4575   2.972   6.503  10.506  0.1395  1.0241  0.7380
   60SAPC  H14C 4576   2.821   6.470  10.435  1.6678 -1.0779 -1.3696
   60SAPC   C15 4577   2.668   6.629  10.553  0.3867  0.0157 -0.1380
   60SAPC  H15A 4578   2.637   6.690  10.469  0.4724 -2.1550 -1.8187
   60SAPC  H15B 4579   2.632   6.531  10.528 -0.8719  0.9158 -2.1151
   60SAPC  H15C 4580   2.611   6.678  10.631  1.9818  2.2257 -0.2629
   60SAPC   C11 4581   2.967   6.540  10.768 -0.5226 -0.0756  0.2530
   60SAPC  H11A 4582   2.968   6.509  10.875 -1.8899  0.1022  0.3312
   60SAPC  H11B 4583   3.026   6.634  10.769 -0.2900 -0.2165 -0.2482
   60SAPC     P 4584   3.012   6.294  10.697 -0.3362 -0.7220  0.4941
   60SAPC   O13 4585   3.040   6.240  10.562  0.4200 -0.0278 -0.7630
   60SAPC   O14 4586   3.083   6.235  10.814 -0.3941  0.5437 -0.2680
   60SAPC   O12 4587   3.040   6.441  10.694 -0.2459 -0.0493  0.1507
   60SAPC   O11 4588   2.859   6.292  10.721 -0.3256 -0.3823 -0.0270
   60SAPC    C1 4589   2.789   6.172  10.692 -0.4865 -0.0001  0.3818
   60SAPC    HA 4590   2.852   6.081  10.682 -2.3416 -1.2610 -0.3988
   60SAPC    HB 4591   2.723   6.158  10.780  0.3500 -0.2529  0.9861
   60SAPC    C2 4592   2.691   6.196  10.575 -0.3107 -0.2134  0.4977
   60SAPC    HS 4593   2.639   6.100  10.555  1.0570 -0.9733  0.4837
   60SAPC   O21 4594   2.754   6.248  10.460 -0.5223 -0.1287  0.4098
   60SAPC   C21 4595   2.805   6.149  10.382  0.7620  0.2639 -0.7042
   60SAPC   O22 4596   2.784   6.032  10.407 -0.6711 -0.3952  0.2382
   60SAPC   C22 4597   2.892   6.195  10.268  0.2684  0.5837 -0.0561
   60SAPC   H2R 4598   2.838   6.279  10.220 -1.4077 -1.4624 -1.9883
   60SAPC   H2S 4599   2.991   6.227  10.306 -0.0864  0.8701  0.6498
   60SAPC    C3 4600   2.573   6.295  10.620 -0.8966  0.7868  0.5859
   60SAPC    HX 4601   2.608   6.381  10.681  0.9734 -0.2289  1.0298
   60SAPC    HY 4602   2.526   6.232  10.699  1.3144  0.2444  1.5702
   60SAPC   O31 4603   2.496   6.351  10.507  0.5235  1.2561  0.1477
   60SAPC   C31 4604   2.424   6.264  10.440  0.5039 -0.3391  0.2913
   60SAPC   O32 4605   2.402   6.149  10.468  0.1207  0.6789 -0.0337
   60SAPC   C32 4606   2.359   6.340  10.324  0.6287  0.0100 -0.4316
   60SAPC   H2X 4607   2.354   6.447  10.353 -0.8746 -0.0521 -0.4233
   60SAPC   H2Y 4608   2.258   6.296  10.314  0.3988  0.6124 -0.8307
   60SAPC   C23 4609   2.899   6.094  10.152  0.2580 -0.7129  0.2633
   60SAPC   H3R 4610   2.934   5.998  10.195 -0.1986 -1.0376 -0.0845
   60SAPC   H3S 4611   2.982   6.133  10.088 -0.5427  0.5533 -0.0526
   60SAPC   C24 4612   2.767   6.075  10.070  0.3214  0.5819  0.0329
   60SAPC   H4R 4613   2.739   6.169  10.016 -0.1559  0.9099  0.8396
   60SAPC   H4S 4614   2.689   6.068  10.148 -0.2410  3.7634 -0.1149
   60SAPC   C25 4615   2.784   5.955   9.983 -0.7907 -0.2104 -0.4679
   60SAPC   H5R 4616   2.823   5.865  10.032  0.1494  0.6924  0.4976
   60SAPC   C26 4617   2.767   5.955   9.851 -0.5509 -0.7921 -0.5634
   60SAPC   H6R 4618   2.779   5.859   9.797 -0.3602 -0.3179 -1.3787
   60SAPC   C27 4619   2.713   6.065   9.769 -0.0969  0.6339  1.0937
   60SAPC   H7R 4620   2.679   6.158   9.820 -2.9319 -0.2378  0.9516
   60SAPC   H7S 4621   2.617   6.035   9.723  1.2323 -0.2749 -1.3046
   60SAPC   C28 4622   2.813   6.087   9.657  0.8522 -0.4881 -0.1811
   60SAPC   H8R 4623   2.902   6.145   9.684  0.1333  1.5703 -1.9659
   60SAPC   C29 4624   2.798   6.023   9.533 -0.1215  0.3871 -0.6678
   60SAPC   H9R 4625   2.873   6.052   9.458  0.2034  1.9849  0.2312
   60SAPC  C210 4626   2.694   5.932   9.476  0.3613  0.6081 -0.1239
   60SAPC  H10R 4627   2.623   6.005   9.433  0.2602  1.4440  1.3889
   60SAPC  H10S 4628   2.644   5.875   9.557 -0.6054  1.3367 -0.1984
   60SAPC  C211 4629   2.746   5.832   9.376  0.3223  0.2672  0.1545
   60SAPC  H11R 4630   2.816   5.754   9.410 -1.2575 -1.9423 -1.3835
   60SAPC  C212 4631   2.716   5.832   9.248 -0.0478 -0.1654 -0.2766
   60SAPC  H12R 4632   2.762   5.756   9.182 -0.7126 -2.5025  1.7937
   60SAPC  C213 4633   2.635   5.935   9.175 -0.1412  0.2295  0.1550
   60SAPC  H13R 4634   2.592   6.013   9.241 -0.7768  0.8909 -1.0066
   60SAPC  H13S 4635   2.543   5.882   9.141 -1.1774  1.5877  0.7713
   60SAPC  C214 4636   2.714   5.998   9.063  0.5954  0.4301  0.1279
   60SAPC  H14R 4637   2.780   6.081   9.092  0.7933  0.2964  0.0642
   60SAPC  C215 4638   2.714   5.965   8.932  0.0228  0.0456 -0.2660
   60SAPC  H15R 4639   2.779   6.020   8.863  0.8897 -0.1283  0.3973
   60SAPC  C216 4640   2.629   5.849   8.876 -0.3685 -0.1312 -0.4183
   60SAPC  H16R 4641   2.543   5.813   8.937 -0.6940 -2.1090 -1.9513
   60SAPC  H16S 4642   2.697   5.764   8.859  1.7412  1.1314  1.1833
   60SAPC  C217 4643   2.574   5.898   8.735  0.4484  0.0885 -0.4310
   60SAPC  H17R 4644   2.655   5.954   8.685 -0.2129 -0.0850 -1.7399
   60SAPC  H17S 4645   2.490   5.968   8.752 -1.1925 -1.9280  0.2711
   60SAPC  C218 4646   2.516   5.789   8.652 -0.3507 -0.2569 -0.4380
   60SAPC  H18R 4647   2.457   5.823   8.564  4.1111  1.2009 -3.2189
   60SAPC  H18S 4648   2.451   5.721   8.710  2.0231 -2.0805  0.2754
   60SAPC  C219 4649   2.615   5.681   8.603 -0.0101  0.1174 -0.0363
   60SAPC  H19R 4650   2.693   5.646   8.674 -0.4091 -1.5530 -0.3712
   60SAPC  H19S 4651   2.666   5.718   8.511  0.0138 -1.5436 -0.7233
   60SAPC  C220 4652   2.557   5.547   8.559  0.5823  0.2140  0.0986
   60SAPC  H20R 4653   2.635   5.490   8.504  0.2455  0.1290 -0.2978
   60SAPC  H20S 4654   2.468   5.543   8.492  0.7521  1.3450 -0.2250
   60SAPC  H20T 4655   2.534   5.478   8.643 -1.5518 -0.2914 -0.8285
   60SAPC   C33 4656   2.432   6.330  10.188 -0.2884  0.1502 -0.7147
   60SAPC   H3X 4657   2.469   6.226  10.172 -0.7662 -0.2848  0.7607
   60SAPC   H3Y 4658   2.527   6.387  10.182 -1.2713  1.8127 -1.0621
   60SAPC   C34 4659   2.331   6.355  10.070 -0.1250 -0.8721  0.0422
   60SAPC   H4X 4660   2.317   6.466  10.067  2.9534 -0.3761  0.6634
   60SAPC   H4Y 4661   2.234   6.316  10.106 -0.1786 -0.6153  0.1756
   60SAPC   C35 4662   2.372   6.295   9.936 -1.0487  0.5238 -0.0099
   60SAPC   H5X 4663   2.401   6.188   9.947 -1.0956  0.3059 -1.6639
   60SAPC   H5Y 4664   2.449   6.355   9.883 -2.5802  1.1532 -1.6425
   60SAPC   C36 4665   2.256   6.283   9.832  0.2349  0.6908 -0.6997
   60SAPC   H6X 4666   2.211   6.384   9.819  0.0928  0.6352 -0.6433
   60SAPC   H6Y 4667   2.187   6.206   9.872 -0.5821  0.4801 -2.4538
   60SAPC   C37 4668   2.318   6.233   9.703 -0.5003  0.0745  0.6187
   60SAPC   H7X 4669   2.387   6.146   9.708  0.7309  0.4589 -4.4759
   60SAPC   H7Y 4670   2.391   6.313   9.679  0.5602  0.1893  3.7926
   60SAPC   C38 4671   2.219   6.228   9.590  0.6846  0.3353 -0.0417
   60SAPC   H8X 4672   2.177   6.331   9.591 -0.5825 -0.1550  0.1975
   60SAPC   H8Y 4673   2.140   6.155   9.619  0.8003 -0.3479 -1.3991
   60SAPC   C39 4674   2.285   6.188   9.461 -0.2968  0.6994  0.3442
   60SAPC   H9X 4675   2.363   6.112   9.482 -1.2590 -1.4790 -3.1295
   60SAPC   H9Y 4676   2.341   6.276   9.424 -0.9634  0.7549 -0.5771
   60SAPC  C310 4677   2.198   6.146   9.344 -0.1212  0.1800 -0.2472
   60SAPC  H10X 4678   2.158   6.243   9.308 -0.5591  0.1144  0.0598
   60SAPC  H10Y 4679   2.119   6.073   9.373 -1.0082  0.2453 -2.3282
   60SAPC  C311 4680   2.265   6.091   9.220  0.4884  0.1586 -1.0780
   60SAPC  H11X 4681   2.353   6.033   9.257 -0.1700  0.5883  1.3256
   60SAPC  H11Y 4682   2.281   6.174   9.148  0.6076  2.1609  1.1286
   60SAPC  C312 4683   2.179   5.983   9.146 -0.1557  0.9278 -0.0085
   60SAPC  H12X 4684   2.074   6.020   9.145 -0.8024 -0.7945  0.3205
   60SAPC  H12Y 4685   2.165   5.899   9.218  1.1728 -0.0539 -0.8531
   60SAPC  C313 4686   2.234   5.948   9.005  0.1035 -0.0037 -0.9574
   60SAPC  H13X 4687   2.208   5.842   8.984 -1.5031  0.3698 -1.0033
   60SAPC  H13Y 4688   2.344   5.958   9.004  0.0686  0.7272 -0.0883
   60SAPC  C314 4689   2.159   6.029   8.902  0.4528 -0.0982 -0.2997
   60SAPC  H14X 4690   2.179   6.134   8.930 -1.1662 -0.0826  0.9031
   60SAPC  H14Y 4691   2.050   6.018   8.918  0.9592 -1.0435  3.6114
   60SAPC  C315 4692   2.190   5.999   8.757 -0.1351  0.0459 -0.0545
   60SAPC  H15X 4693   2.209   5.889   8.759 -1.3074 -0.2642 -2.1454
   60SAPC  H15Y 4694   2.284   6.049   8.727  0.6509 -1.6808 -0.6247
   60SAPC  C316 4695   2.068   6.036   8.670 -0.0800  0.7658 -0.1674
   60SAPC  H16X 4696   2.080   6.145   8.657 -1.1381  0.9810  0.4948
   60SAPC  H16Y 4697   1.970   6.012   8.717 -0.8395  1.3188 -1.4375
   60SAPC  C317 4698   2.073   5.965   8.532  0.3899 -0.2980 -0.2768
   60SAPC  H17X 4699   2.016   5.870   8.543  0.0305 -0.3165 -1.9977
   60SAPC  H17Y 4700   2.182   5.950   8.521  0.4495  0.4759 -0.7845
   60SAPC  C318 4701   2.011   6.038   8.414  0.3000 -0.0957 -0.0378
   60SAPC  H18X 4702   1.902   6.046   8.435  0.0828  1.6638 -1.5426
   60SAPC  H18Y 4703   2.026   5.984   8.318 -1.9074  1.6443 -1.4682
   60SAPC  H18Z 4704   2.058   6.139   8.412  0.8585 -0.2845  1.8165
   61SAPC     N 4705   4.497   1.775  11.263 -0.6029  0.4857  0.4566
   61SAPC   C12 4706   4.588   1.683  11.190  0.3629 -0.2728 -0.7095
   61SAPC  H12A 4707   4.662   1.653  11.263 -1.8509 -1.0031  1.3844
   61SAPC  H12B 4708   4.631   1.725  11.101  1.6262  0.3383  0.1641
   61SAPC   C13 4709   4.589   1.898  11.291 -0.2362 -0.4828 -0.2782
   61SAPC  H13A 4710   4.680   1.872  11.342 -0.9997 -1.1041  0.8072
   61SAPC  H13B 4711   4.629   1.945  11.202  2.4482 -2.4282 -0.2150
   61SAPC  H13C 4712   4.530   1.974  11.340 -0.2892 -0.6841 -0.0288
   61SAPC   C14 4713   4.381   1.807  11.172 -0.4042  1.0673 -0.0847
   61SAPC  H14A 4714   4.308   1.873  11.217  0.2683  0.9308  1.2392
   61SAPC  H14B 4715   4.414   1.855  11.080  2.2621 -0.1643  0.1239
   61SAPC  H14C 4716   4.335   1.711  11.154 -0.1840  0.7133  1.1551
   61SAPC   C15 4717   4.443   1.719  11.392  0.7455 -0.2007  1.0278
   61SAPC  H15A 4718   4.394   1.624  11.377  1.8518 -0.6810  0.3232
   61SAPC  H15B 4719   4.531   1.708  11.453  2.4792  0.9218 -1.1321
   61SAPC  H15C 4720   4.375   1.782  11.447  1.2721  2.1011 -0.7736
   61SAPC   C11 4721   4.526   1.541  11.152 -0.0690  0.0504 -0.2063
   61SAPC  H11A 4722   4.470   1.497  11.237  0.7950 -0.2444  0.2178
   61SAPC  H11B 4723   4.619   1.483  11.132  1.1841  1.6987  0.6976
   61SAPC     P 4724   4.500   1.567  10.887 -0.2857  0.3215 -0.0596
   61SAPC   O13 4725   4.544   1.707  10.866 -0.1955 -0.0611 -0.2987
   61SAPC   O14 4726   4.587   1.456  10.855  0.2872  0.3853  0.6430
   61SAPC   O12 4727   4.446   1.560  11.033  0.0524  0.1989 -0.0378
   61SAPC   O11 4728   4.366   1.541  10.803 -0.4337  0.0099  0.5509
   61SAPC    C1 4729   4.303   1.651  10.745  0.2763 -0.7351  0.4491
   61SAPC    HA 4730   4.281   1.729  10.821  0.9938 -0.1401  0.0622
   61SAPC    HB 4731   4.364   1.702  10.668  0.2507  1.4977  1.8286
   61SAPC    C2 4732   4.167   1.619  10.677  0.2281 -0.4186 -0.4956
   61SAPC    HS 4733   4.101   1.573  10.754  2.1110 -0.9113  0.9056
   61SAPC   O21 4734   4.185   1.542  10.563 -0.3328 -0.7444 -0.6656
   61SAPC   C21 4735   4.086   1.465  10.528  0.9974 -0.0377 -0.5355
   61SAPC   O22 4736   3.979   1.457  10.585  0.4032  0.3184  0.1437
   61SAPC   C22 4737   4.120   1.386  10.400 -0.6845  0.0124  0.1581
   61SAPC   H2R 4738   4.185   1.300  10.429  0.7471  0.9613 -0.1248
   61SAPC   H2S 4739   4.023   1.346  10.366 -0.2974 -1.0766  0.2907
   61SAPC    C3 4740   4.092   1.753  10.646  0.2990  0.3037 -0.3592
   61SAPC    HX 4741   4.081   1.802  10.745  4.9811  1.0569  0.0032
   61SAPC    HY 4742   3.992   1.742  10.600  1.5495  1.2256 -3.5590
   61SAPC   O31 4743   4.176   1.840  10.562  0.3461  0.1364 -0.4137
   61SAPC   C31 4744   4.167   1.850  10.432  0.6769  0.1035 -0.5085
   61SAPC   O32 4745   4.072   1.797  10.367  0.0057 -0.6494  0.3093
   61SAPC   C32 4746   4.281   1.931  10.380 -1.1494  0.0466 -0.1248
   61SAPC   H2X 4747   4.306   2.007  10.457 -0.6323 -1.7789  1.5744
   61SAPC   H2Y 4748   4.239   1.985  10.293  0.3277 -0.7718 -1.4035
   61SAPC   C23 4749   4.200   1.448  10.291 -0.4806  0.5679  0.2950
   61SAPC   H3R 4750   4.296   1.498  10.316 -1.3495  1.5609  1.8064
   61SAPC   H3S 4751   4.126   1.524  10.258 -1.9557 -1.0558 -0.3400
   61SAPC   C24 4752   4.225   1.354  10.176 -1.1146  0.0071  0.0596
   61SAPC   H4R 4753   4.123   1.339  10.136 -0.6457 -0.1426 -1.1152
   61SAPC   H4S 4754   4.251   1.255  10.222  2.2179  0.7498  0.0274
   61SAPC   C25 4755   4.323   1.403  10.078  0.4304  0.5771 -0.2626
   61SAPC   H5R 4756   4.409   1.450  10.126  0.8418 -1.3077  0.9830
   61SAPC   C26 4757   4.303   1.406   9.945  0.4777  0.1745 -0.8619
   61SAPC   H6R 4758   4.392   1.438   9.889 -0.0913  3.9254  0.1246
   61SAPC   C27 4759   4.184   1.354   9.870 -0.0639  0.3597  0.4434
   61SAPC   H7R 4760   4.145   1.436   9.805 -2.0671 -0.5517  0.4241
   61SAPC   H7S 4761   4.105   1.325   9.942  0.3977 -0.6384  0.5638
   61SAPC   C28 4762   4.216   1.225   9.794  0.2011  0.0101  0.3641
   61SAPC   H8R 4763   4.240   1.141   9.859  2.4555 -0.0946 -0.5202
   61SAPC   C29 4764   4.210   1.198   9.661  0.5076 -0.2072 -0.5561
   61SAPC   H9R 4765   4.207   1.096   9.621 -1.4923 -0.2233 -0.4446
   61SAPC  C210 4766   4.190   1.298   9.557  0.6027  0.1822 -0.1542
   61SAPC  H10R 4767   4.147   1.392   9.599 -2.0298 -1.0523  0.0972
   61SAPC  H10S 4768   4.113   1.271   9.482  1.0344  1.1629 -0.9824
   61SAPC  C211 4769   4.332   1.305   9.496  0.8851 -0.6402 -0.0159
   61SAPC  H11R 4770   4.396   1.376   9.549 -1.2432 -0.6914  2.8519
   61SAPC  C212 4771   4.373   1.252   9.384 -0.1561  0.1433  0.4150
   61SAPC  H12R 4772   4.475   1.263   9.345  0.3424 -1.1752  1.2775
   61SAPC  C213 4773   4.296   1.152   9.304  0.0919 -0.0321 -0.0467
   61SAPC  H13R 4774   4.227   1.216   9.245  1.1433  1.4768  0.2969
   61SAPC  H13S 4775   4.235   1.077   9.360 -1.2274 -0.5672 -2.0974
   61SAPC  C214 4776   4.381   1.065   9.212  0.1604 -0.3878 -0.4672
   61SAPC  H14R 4777   4.427   0.979   9.261 -1.6422 -1.3341 -0.3466
   61SAPC  C215 4778   4.390   1.078   9.084 -0.4221  0.8974 -0.2512
   61SAPC  H15R 4779   4.462   1.018   9.027 -3.1675 -0.9791 -1.9841
   61SAPC  C216 4780   4.324   1.185   9.006  0.2603  0.7317 -0.5122
   61SAPC  H16R 4781   4.217   1.195   9.036  0.9230  2.0856  1.6751
   61SAPC  H16S 4782   4.324   1.159   8.898 -2.1135  0.9280 -0.6180
   61SAPC  C217 4783   4.383   1.323   9.031 -0.0639  0.0950 -0.0149
   61SAPC  H17R 4784   4.494   1.320   9.022  0.2944  2.5298  2.2019
   61SAPC  H17S 4785   4.361   1.352   9.136  1.4191 -0.2705  0.4226
   61SAPC  C218 4786   4.310   1.444   8.957  0.1551 -0.9409 -0.5370
   61SAPC  H18R 4787   4.347   1.543   8.991 -2.4520 -0.1151  0.0871
   61SAPC  H18S 4788   4.202   1.451   8.982  0.4551  3.0429  0.4143
   61SAPC  C219 4789   4.335   1.444   8.808 -0.4452 -0.5796 -0.2792
   61SAPC  H19R 4790   4.299   1.345   8.774 -1.7910 -0.8329  1.7021
   61SAPC  H19S 4791   4.444   1.449   8.786 -0.7468  0.1027 -1.7594
   61SAPC  C220 4792   4.261   1.552   8.732  0.0540 -0.0680  0.4226
   61SAPC  H20R 4793   4.308   1.578   8.635  0.7906  1.7476  1.2137
   61SAPC  H20S 4794   4.248   1.650   8.785 -2.8453  1.5041 -2.8268
   61SAPC  H20T 4795   4.159   1.520   8.703 -1.0154  3.0134  0.3472
   61SAPC   C33 4796   4.408   1.848  10.343 -0.4648  0.8533  0.6235
   61SAPC   H3X 4797   4.441   1.780  10.425 -0.5740 -0.5584 -0.4637
   61SAPC   H3Y 4798   4.494   1.917  10.345  0.0058  0.3045 -0.1509
   61SAPC   C34 4799   4.402   1.773  10.206 -0.2502  0.3274 -0.4089
   61SAPC   H4X 4800   4.325   1.693  10.201 -2.1317  2.1025 -1.2945
   61SAPC   H4Y 4801   4.504   1.729  10.197 -0.2316  0.0553  0.9205
   61SAPC   C35 4802   4.372   1.872  10.087 -0.6935  0.0095 -0.7652
   61SAPC   H5X 4803   4.441   1.958  10.097  0.2866 -0.4737 -2.8218
   61SAPC   H5Y 4804   4.273   1.922  10.088 -0.7544 -0.1121 -0.7038
   61SAPC   C36 4805   4.396   1.806   9.951 -0.8523  0.5353 -0.4000
   61SAPC   H6X 4806   4.339   1.711   9.953  0.3469 -0.1924  0.3914
   61SAPC   H6Y 4807   4.502   1.777   9.943 -1.4185 -1.4458 -1.3780
   61SAPC   C37 4808   4.351   1.906   9.846 -0.2215  0.4214 -0.8511
   61SAPC   H7X 4809   4.369   2.008   9.886 -1.4690  0.2138  0.3260
   61SAPC   H7Y 4810   4.240   1.901   9.846 -0.3121  1.4320  0.8581
   61SAPC   C38 4811   4.397   1.872   9.704  0.0187  0.3606 -0.0670
   61SAPC   H8X 4812   4.508   1.880   9.706 -0.0163  1.0166 -0.5878
   61SAPC   H8Y 4813   4.355   1.937   9.625  1.2305  0.9638 -0.2333
   61SAPC   C39 4814   4.350   1.731   9.669  0.1639 -0.2466 -0.9517
   61SAPC   H9X 4815   4.241   1.729   9.688  0.3471 -0.1344  0.1916
   61SAPC   H9Y 4816   4.394   1.646   9.726 -1.0798 -0.6194 -0.5247
   61SAPC  C310 4817   4.362   1.695   9.517 -0.5331  0.1250  0.2235
   61SAPC  H10X 4818   4.339   1.787   9.460 -0.1562  1.4322  2.0993
   61SAPC  H10Y 4819   4.310   1.600   9.492 -0.6361  0.1348  0.3989
   61SAPC  C311 4820   4.505   1.671   9.469 -0.3033 -0.0748  0.0520
   61SAPC  H11X 4821   4.534   1.578   9.522 -1.3087 -0.1540  0.4785
   61SAPC  H11Y 4822   4.569   1.754   9.504  0.8009 -0.3774 -1.1785
   61SAPC  C312 4823   4.510   1.646   9.321 -0.0869  0.4910  0.2207
   61SAPC  H12X 4824   4.479   1.737   9.264  0.4215  0.1263 -0.6552
   61SAPC  H12Y 4825   4.437   1.569   9.288 -0.1931  0.4322  0.5828
   61SAPC  C313 4826   4.649   1.602   9.272  0.1783 -0.2069  0.3721
   61SAPC  H13X 4827   4.667   1.515   9.337  1.3080  1.2602  2.1041
   61SAPC  H13Y 4828   4.732   1.669   9.303  0.7766  0.0381 -1.6027
   61SAPC  C314 4829   4.655   1.559   9.123  0.5187 -0.0319  0.2611
   61SAPC  H14X 4830   4.582   1.481   9.090  3.7654 -3.0901 -0.2527
   61SAPC  H14Y 4831   4.754   1.509   9.124  0.3439 -0.4409  2.4522
   61SAPC  C315 4832   4.652   1.675   9.020 -0.2896  0.0973 -0.4317
   61SAPC  H15X 4833   4.675   1.760   9.088  2.0420 -1.4132  0.8223
   61SAPC  H15Y 4834   4.553   1.690   8.974  0.1401  3.4497 -0.5354
   61SAPC  C316 4835   4.778   1.665   8.921 -0.3452  0.3039  0.2495
   61SAPC  H16X 4836   4.769   1.566   8.872 -0.1714  0.4181 -0.0129
   61SAPC  H16Y 4837   4.870   1.668   8.983  0.2099  2.0586 -0.6026
   61SAPC  C317 4838   4.786   1.789   8.834  0.4738  0.3879 -0.8256
   61SAPC  H17X 4839   4.778   1.871   8.908  0.8643  2.2727 -2.7745
   61SAPC  H17Y 4840   4.699   1.793   8.765  0.0909  0.7220 -0.3328
   61SAPC  C318 4841   4.916   1.791   8.759 -0.8112 -1.0120  0.1919
   61SAPC  H18X 4842   4.994   1.826   8.830  0.0607  1.2761 -1.7634
   61SAPC  H18Y 4843   4.906   1.866   8.677  1.6126 -1.2177 -0.3680
   61SAPC  H18Z 4844   4.937   1.692   8.714  1.5504  0.3275 -1.9070
   62SAPC     N 4845   1.200   1.364  10.687 -0.3598 -0.3650 -0.5847
   62SAPC   C12 4846   1.180   1.505  10.652  0.4670 -0.4949  0.5623
   62SAPC  H12A 4847   1.273   1.557  10.669  0.8514 -0.3284 -1.7153
   62SAPC  H12B 4848   1.112   1.543  10.727 -0.5683 -1.9294  0.3921
   62SAPC   C13 4849   1.273   1.291  10.580  0.3598  0.0677 -0.1391
   62SAPC  H13A 4850   1.366   1.343  10.559  0.6607 -0.5795 -0.4523
   62SAPC  H13B 4851   1.296   1.191  10.615 -2.4547 -0.6132 -0.0589
   62SAPC  H13C 4852   1.224   1.280  10.485  2.4594 -1.2169 -1.1534
   62SAPC   C14 4853   1.258   1.337  10.818 -0.2229  0.0229  0.0043
   62SAPC  H14A 4854   1.357   1.381  10.822 -0.2501  0.3195 -1.8027
   62SAPC  H14B 4855   1.205   1.390  10.896 -0.3155  1.4776 -1.0038
   62SAPC  H14C 4856   1.267   1.231  10.836 -2.8132 -0.0669  1.1634
   62SAPC   C15 4857   1.056   1.306  10.697  0.6413 -0.7600 -0.5723
   62SAPC  H15A 4858   0.993   1.339  10.778  0.0567 -0.7800 -1.0045
   62SAPC  H15B 4859   1.021   1.348  10.603  4.2789  1.8530 -0.9556
   62SAPC  H15C 4860   1.047   1.198  10.701 -1.1087 -0.6998 -1.6435
   62SAPC   C11 4861   1.118   1.551  10.518 -0.9807  0.0122 -0.1290
   62SAPC  H11A 4862   1.175   1.504  10.436  1.7270  0.9018  1.1068
   62SAPC  H11B 4863   1.123   1.661  10.503 -0.4455  0.3594  2.1384
   62SAPC     P 4864   0.860   1.597  10.521  0.4518  0.4495  0.0731
   62SAPC   O13 4865   0.743   1.504  10.538  0.1664 -0.4396 -0.7056
   62SAPC   O14 4866   0.888   1.674  10.649  0.1688  0.0595 -0.0217
   62SAPC   O12 4867   0.987   1.501  10.502  0.2388 -0.4388  0.1375
   62SAPC   O11 4868   0.832   1.685  10.395 -0.3890  0.1567 -0.4155
   62SAPC    C1 4869   0.935   1.718  10.295 -0.0956 -0.1730 -0.1103
   62SAPC    HA 4870   0.957   1.827  10.298 -0.5234 -0.0873  0.0398
   62SAPC    HB 4871   1.027   1.658  10.311 -0.0033 -0.9844 -3.0867
   62SAPC    C2 4872   0.888   1.673  10.152 -0.1713 -0.0071  0.3597
   62SAPC    HS 4873   0.925   1.569  10.138  1.7527  0.6695  0.1107
   62SAPC   O21 4874   0.943   1.760  10.049  0.7961  0.0211 -0.3436
   62SAPC   C21 4875   1.074   1.744  10.026 -0.2534  0.3162 -0.5591
   62SAPC   O22 4876   1.146   1.658  10.079 -0.6794  0.3598 -0.0511
   62SAPC   C22 4877   1.107   1.834   9.911 -0.6013  0.3956 -0.4435
   62SAPC   H2R 4878   1.016   1.886   9.875 -1.7090 -1.7121 -0.7977
   62SAPC   H2S 4879   1.173   1.910   9.958  1.4959 -1.3454 -0.4120
   62SAPC    C3 4880   0.729   1.653  10.141 -0.0212  0.1415  0.2156
   62SAPC    HX 4881   0.683   1.749  10.174 -0.2643 -0.4015  1.5458
   62SAPC    HY 4882   0.695   1.572  10.210  0.6390 -0.0192  0.3622
   62SAPC   O31 4883   0.690   1.630  10.011 -0.2364 -0.3670 -0.3292
   62SAPC   C31 4884   0.643   1.512   9.974 -0.1591  0.1700  0.3704
   62SAPC   O32 4885   0.632   1.412  10.044  0.1294  0.5934 -0.3784
   62SAPC   C32 4886   0.621   1.504   9.825  0.0363 -0.4744  0.1284
   62SAPC   H2X 4887   0.594   1.400   9.796 -1.1572 -0.4558  1.1278
   62SAPC   H2Y 4888   0.713   1.542   9.774 -1.0845  0.4195 -1.3215
   62SAPC   C23 4889   1.176   1.762   9.791 -0.7250 -0.1686  0.2566
   62SAPC   H3R 4890   1.257   1.704   9.840  2.2147  1.8334 -1.8778
   62SAPC   H3S 4891   1.239   1.836   9.737  0.5856 -0.9830  0.6100
   62SAPC   C24 4892   1.094   1.669   9.703 -0.4548 -0.4062 -0.9828
   62SAPC   H4R 4893   1.056   1.586   9.766  2.0070 -0.0062  1.2120
   62SAPC   H4S 4894   1.166   1.627   9.630 -0.0218  0.4661 -1.0736
   62SAPC   C25 4895   0.981   1.739   9.627  0.2419 -0.2759  0.6353
   62SAPC   H5R 4896   0.901   1.772   9.694 -1.5091 -2.9665  0.0083
   62SAPC   C26 4897   0.965   1.743   9.489 -0.2547  0.5528  0.9382
   62SAPC   H6R 4898   0.870   1.782   9.449 -0.0722 -0.0775 -0.1550
   62SAPC   C27 4899   1.059   1.697   9.375  0.1986  0.4031  1.0873
   62SAPC   H7R 4900   1.006   1.693   9.277  0.8853 -1.0114  0.7376
   62SAPC   H7S 4901   1.078   1.589   9.392 -0.5146 -0.2953 -1.9499
   62SAPC   C28 4902   1.188   1.779   9.359  0.5911 -0.0070  0.3345
   62SAPC   H8R 4903   1.218   1.833   9.449  0.5975  0.8574 -0.1793
   62SAPC   C29 4904   1.268   1.787   9.252 -0.0815  0.6129  0.0888
   62SAPC   H9R 4905   1.361   1.847   9.258  2.3845 -2.6554 -2.0204
   62SAPC  C210 4906   1.240   1.727   9.116  0.3840 -0.4030 -0.5843
   62SAPC  H10R 4907   1.202   1.798   9.039  0.1032 -0.6738 -0.6992
   62SAPC  H10S 4908   1.159   1.654   9.138 -0.7787  1.1329  0.4176
   62SAPC  C211 4909   1.366   1.654   9.071  0.6935  0.5477 -0.6494
   62SAPC  H11R 4910   1.452   1.655   9.139 -1.7747 -1.9817  2.8699
   62SAPC  C212 4911   1.363   1.576   8.960 -0.3154 -0.4841  0.2534
   62SAPC  H12R 4912   1.458   1.537   8.921 -1.3177  0.0572 -3.0620
   62SAPC  C213 4913   1.239   1.558   8.877 -0.4166  0.3236  0.1190
   62SAPC  H13R 4914   1.149   1.612   8.914  0.1047 -0.5973  3.0399
   62SAPC  H13S 4915   1.207   1.451   8.878  2.1090 -0.5012  0.4752
   62SAPC  C214 4916   1.266   1.588   8.734  0.3314 -0.2124 -0.1432
   62SAPC  H14R 4917   1.310   1.689   8.724 -0.2560  0.0453 -0.1438
   62SAPC  C215 4918   1.250   1.518   8.627  0.1635  0.1834 -0.1550
   62SAPC  H15R 4919   1.274   1.560   8.529  0.9690  0.0135 -0.0309
   62SAPC  C216 4920   1.201   1.381   8.616 -0.8607  0.2446  0.0947
   62SAPC  H16R 4921   1.153   1.349   8.711 -0.4162  0.6523  0.4565
   62SAPC  H16S 4922   1.286   1.316   8.586 -0.1369 -0.2836  3.0535
   62SAPC  C217 4923   1.080   1.364   8.514 -0.7068  0.3848  0.1941
   62SAPC  H17R 4924   1.005   1.442   8.539 -1.1424 -0.2190  0.8239
   62SAPC  H17S 4925   1.039   1.261   8.529  0.4230 -0.1358 -0.1673
   62SAPC  C218 4926   1.124   1.353   8.360 -0.4572  0.7380 -0.2259
   62SAPC  H18R 4927   1.222   1.302   8.346 -1.3098 -0.4538 -2.5076
   62SAPC  H18S 4928   1.149   1.449   8.310 -1.2419  0.4815 -1.1314
   62SAPC  C219 4929   1.006   1.300   8.286 -0.4719  0.9444 -0.0449
   62SAPC  H19R 4930   0.913   1.349   8.321 -1.2357  1.1013 -2.1627
   62SAPC  H19S 4931   0.992   1.191   8.301  2.7115  0.1248 -2.0103
   62SAPC  C220 4932   1.004   1.315   8.134 -0.7060  0.7982  0.4364
   62SAPC  H20R 4933   1.089   1.262   8.086 -3.0649 -1.5757 -1.3675
   62SAPC  H20S 4934   1.000   1.420   8.098  0.5915  0.2420 -1.4586
   62SAPC  H20T 4935   0.913   1.275   8.085 -1.7147  0.7302  2.2634
   62SAPC   C33 4936   0.506   1.596   9.775 -0.0468  0.5724  1.3089
   62SAPC   H3X 4937   0.531   1.703   9.789 -0.2716  0.7785  0.2100
   62SAPC   H3Y 4938   0.416   1.569   9.833 -0.3013 -2.1165 -0.1881
   62SAPC   C34 4939   0.474   1.571   9.624  0.5698 -0.8136 -0.0548
   62SAPC   H4X 4940   0.389   1.639   9.602  0.0369 -1.2921  0.4858
   62SAPC   H4Y 4941   0.441   1.466   9.612  1.2787 -0.9784 -0.6079
   62SAPC   C35 4942   0.575   1.624   9.519  0.4754 -0.2225  0.3892
   62SAPC   H5X 4943   0.665   1.559   9.511  0.4096 -0.1465 -1.3054
   62SAPC   H5Y 4944   0.616   1.725   9.536  0.3002  0.1354 -1.1553
   62SAPC   C36 4945   0.518   1.623   9.372 -1.1540 -0.3031  0.0004
   62SAPC   H6X 4946   0.420   1.673   9.361 -1.7952 -1.0043  1.9920
   62SAPC   H6Y 4947   0.503   1.515   9.349 -1.4824 -0.1050 -0.7524
   62SAPC   C37 4948   0.618   1.690   9.277  0.1264  0.4085  0.3986
   62SAPC   H7X 4949   0.719   1.645   9.284 -0.1587 -0.9538 -2.7674
   62SAPC   H7Y 4950   0.624   1.798   9.300  0.8661  0.9943 -2.2666
   62SAPC   C38 4951   0.570   1.689   9.136  0.0888  0.3814  0.4245
   62SAPC   H8X 4952   0.473   1.743   9.137  0.6559  1.5100 -1.0882
   62SAPC   H8Y 4953   0.545   1.585   9.107 -1.2397  0.5238  0.9801
   62SAPC   C39 4954   0.667   1.745   9.029 -0.4340  0.0892 -0.5570
   62SAPC   H9X 4955   0.762   1.687   9.038  0.0530  0.9736  0.1870
   62SAPC   H9Y 4956   0.687   1.853   9.045 -1.5188  0.2228 -0.0540
   62SAPC  C310 4957   0.618   1.701   8.891  0.2510  0.0235 -0.4436
   62SAPC  H10X 4958   0.508   1.685   8.897 -0.2956  2.9868 -0.8649
   62SAPC  H10Y 4959   0.663   1.605   8.857 -0.6695  0.7746 -4.2059
   62SAPC  C311 4960   0.646   1.807   8.785  0.5535  0.3712  0.2219
   62SAPC  H11X 4961   0.579   1.893   8.809 -0.4491  0.1352 -1.4730
   62SAPC  H11Y 4962   0.595   1.768   8.694 -2.3175  1.1581  1.3622
   62SAPC  C312 4963   0.789   1.843   8.759  0.5293  0.4088 -0.0975
   62SAPC  H12X 4964   0.837   1.752   8.717 -1.8033 -0.7725 -0.3412
   62SAPC  H12Y 4965   0.845   1.851   8.855 -0.8822 -2.0096  1.0263
   62SAPC  C313 4966   0.812   1.960   8.649 -0.3736 -0.0832  0.0775
   62SAPC  H13X 4967   0.913   2.005   8.664 -0.1194 -1.5866  4.0609
   62SAPC  H13Y 4968   0.750   2.043   8.687  1.6698  1.4520  0.2635
   62SAPC  C314 4969   0.766   1.920   8.511  0.9701  0.0363  0.4036
   62SAPC  H14X 4970   0.760   2.009   8.445 -1.7215 -1.5037 -1.5935
   62SAPC  H14Y 4971   0.665   1.877   8.527 -0.3543  1.9349 -2.1799
   62SAPC  C315 4972   0.860   1.819   8.434 -0.5060 -0.4304  0.8063
   62SAPC  H15X 4973   0.812   1.818   8.334 -0.6829  2.0072  0.8085
   62SAPC  H15Y 4974   0.833   1.722   8.481 -1.4388  0.0085  1.2017
   62SAPC  C316 4975   1.014   1.856   8.434  0.0621  0.3947  0.2716
   62SAPC  H16X 4976   1.041   1.868   8.541  1.5486  2.4497 -0.2651
   62SAPC  H16Y 4977   1.030   1.956   8.387 -0.7005  0.7922  0.8503
   62SAPC  C317 4978   1.109   1.754   8.372  0.3750  0.7667  0.2481
   62SAPC  H17X 4979   1.093   1.722   8.267  0.7937  0.4410  0.2829
   62SAPC  H17Y 4980   1.091   1.656   8.422 -2.1852  1.1823  0.3064
   62SAPC  C318 4981   1.258   1.788   8.385  0.1895  0.2869 -0.3186
   62SAPC  H18X 4982   1.285   1.805   8.492 -0.1676  1.0369 -0.3366
   62SAPC  H18Y 4983   1.284   1.876   8.321  0.7934 -0.4698 -1.1361
   62SAPC  H18Z 4984   1.321   1.705   8.349  1.1133  0.3357  1.1118
   63SAPC     N 4985   6.570   5.700   5.963  0.2621 -0.0872 -0.6919
   63SAPC   C12 4986   6.519   5.696   6.104  0.6711 -0.0735 -0.8099
   63SAPC  H12A 4987   6.560   5.780   6.159  0.6243  0.8196 -2.0905
   63SAPC  H12B 4988   6.553   5.611   6.161 -1.2850  0.0041  0.5832
   63SAPC   C13 4989   6.516   5.827   5.898  0.1677  0.1300 -0.1669
   63SAPC  H13A 4990   6.408   5.823   5.911  0.2702 -2.1860  0.3528
   63SAPC  H13B 4991   6.557   5.917   5.941 -0.3365  0.4087 -0.2510
   63SAPC  H13C 4992   6.542   5.822   5.793  0.7915  0.4169 -0.0276
   63SAPC   C14 4993   6.721   5.701   5.969  0.3179 -0.4241  0.2140
   63SAPC  H14A 4994   6.755   5.709   5.867  0.0301  1.4471  0.2227
   63SAPC  H14B 4995   6.746   5.793   6.019 -2.3746  0.9629 -0.7701
   63SAPC  H14C 4996   6.765   5.617   6.021 -1.6226 -2.3455 -1.0459
   63SAPC   C15 4997   6.528   5.582   5.883 -0.7087  0.4841  0.5886
   63SAPC  H15A 4998   6.567   5.601   5.784  0.9647 -1.0232  0.9164
   63SAPC  H15B 4999   6.571   5.490   5.919  0.2433  0.7558  0.1629
   63SAPC  H15C 5000   6.422   5.564   5.889 -0.9826  0.5411 -2.4024
   63SAPC   C11 5001   6.367   5.698   6.138  0.3929  0.3246 -0.2449
   63SAPC  H11A 5002   6.317   5.626   6.070  0.6675  1.1778 -1.3784
   63SAPC  H11B 5003   6.326   5.800   6.118  2.1066  0.9857 -0.5723
   63SAPC     P 5004   6.301   5.508   6.312  0.0206  0.2184  0.3476
   63SAPC   O13 5005   6.178   5.480   6.240  0.7242 -0.5629 -0.5334
   63SAPC   O14 5006   6.416   5.426   6.294  0.0885 -0.3048 -0.3533
   63SAPC   O12 5007   6.348   5.651   6.272  0.3158 -0.6461  0.2340
   63SAPC   O11 5008   6.264   5.535   6.460  0.4663 -0.2722  0.2104
   63SAPC    C1 5009   6.139   5.530   6.523 -0.6321  0.2409 -0.9531
   63SAPC    HA 5010   6.095   5.632   6.525  1.1448  1.0335 -0.9042
   63SAPC    HB 5011   6.068   5.459   6.474 -0.2883 -0.9626  0.2185
   63SAPC    C2 5012   6.154   5.487   6.680  0.1935 -0.0018 -0.0087
   63SAPC    HS 5013   6.057   5.445   6.713 -0.6968  1.1742 -1.0343
   63SAPC   O21 5014   6.185   5.608   6.755  0.1385 -0.2788 -0.8741
   63SAPC   C21 5015   6.076   5.678   6.788 -0.8377  0.1450  0.1775
   63SAPC   O22 5016   5.961   5.659   6.756  0.0767  0.3485 -0.8077
   63SAPC   C22 5017   6.121   5.783   6.893  0.0888  0.6348 -0.1617
   63SAPC   H2R 5018   6.159   5.732   6.985 -1.1172  0.3088  0.1757
   63SAPC   H2S 5019   6.205   5.844   6.855  2.5550 -2.5218 -0.1455
   63SAPC    C3 5020   6.264   5.378   6.706 -0.3438 -0.2410  0.3480
   63SAPC    HX 5021   6.364   5.421   6.727 -0.9755  1.1398  0.6168
   63SAPC    HY 5022   6.268   5.313   6.616 -4.9556 -1.6590  0.9064
   63SAPC   O31 5023   6.209   5.307   6.817  0.0248 -0.0845 -0.6245
   63SAPC   C31 5024   6.296   5.227   6.887 -0.7928  0.3029 -0.0811
   63SAPC   O32 5025   6.415   5.228   6.860 -0.4961 -0.0681  0.0050
   63SAPC   C32 5026   6.231   5.164   7.001  0.4311 -0.7397  0.5401
   63SAPC   H2X 5027   6.237   5.054   6.988  1.1419 -0.7143  0.5832
   63SAPC   H2Y 5028   6.123   5.191   6.999  1.0173  1.8594  0.7254
   63SAPC   C23 5029   5.988   5.853   6.935 -0.3975 -0.4236  0.3254
   63SAPC   H3R 5030   5.907   5.789   6.974  0.9256 -1.3580  1.6630
   63SAPC   H3S 5031   5.947   5.910   6.849  0.7877 -0.9940 -0.6407
   63SAPC   C24 5032   6.009   5.938   7.061  0.1427 -0.3368 -0.1682
   63SAPC   H4R 5033   5.921   6.006   7.055 -0.2838 -0.9750 -1.5148
   63SAPC   H4S 5034   6.096   6.006   7.055  0.5886 -0.7943  0.8172
   63SAPC   C25 5035   6.020   5.882   7.196  0.1557  0.8805 -0.6963
   63SAPC   H5R 5036   6.120   5.847   7.223  0.7831  0.7015 -3.0103
   63SAPC   C26 5037   5.914   5.872   7.288  0.3349 -0.2733 -0.0330
   63SAPC   H6R 5038   5.931   5.823   7.384  0.3653  0.2460  0.2317
   63SAPC   C27 5039   5.774   5.923   7.253 -0.1088  0.3883  0.0664
   63SAPC   H7R 5040   5.760   5.966   7.151 -0.3973 -0.6961 -0.3712
   63SAPC   H7S 5041   5.756   6.015   7.313  0.4767  0.6738 -0.1908
   63SAPC   C28 5042   5.653   5.832   7.283 -0.6712  0.7155  0.0592
   63SAPC   H8R 5043   5.635   5.742   7.223  0.9349 -0.0539  0.6793
   63SAPC   C29 5044   5.580   5.832   7.398 -0.2568 -0.8751 -0.3138
   63SAPC   H9R 5045   5.502   5.758   7.421 -1.5717  0.8252  0.9374
   63SAPC  C210 5046   5.582   5.930   7.505 -0.5892 -0.3319  0.2390
   63SAPC  H10R 5047   5.479   5.962   7.530 -0.6860  0.1090 -0.6636
   63SAPC  H10S 5048   5.640   6.023   7.484 -0.7352 -0.1312  0.7216
   63SAPC  C211 5049   5.660   5.874   7.621  0.1412 -0.1156 -0.0407
   63SAPC  H11R 5050   5.754   5.818   7.601 -0.6514 -2.4690  2.2900
   63SAPC  C212 5051   5.626   5.882   7.751  0.1820  0.1073  0.0911
   63SAPC  H12R 5052   5.688   5.832   7.827  0.3849 -0.0388 -0.1690
   63SAPC  C213 5053   5.512   5.962   7.799  0.3218  0.4510  0.3886
   63SAPC  H13R 5054   5.460   5.908   7.882 -2.9816  0.4402 -1.4857
   63SAPC  H13S 5055   5.430   5.955   7.724 -0.5922 -0.6484  1.4459
   63SAPC  C214 5056   5.541   6.106   7.825 -0.0557 -0.1301  1.0213
   63SAPC  H14R 5057   5.550   6.156   7.727 -1.1921 -1.5870  0.1338
   63SAPC  C215 5058   5.557   6.175   7.939 -0.6788  0.1876 -0.2009
   63SAPC  H15R 5059   5.571   6.284   7.934  0.4686  0.0690  0.1739
   63SAPC  C216 5060   5.554   6.121   8.081  0.9387  0.4712  0.3678
   63SAPC  H16R 5061   5.578   6.013   8.074 -2.3051 -0.7072  3.7239
   63SAPC  H16S 5062   5.448   6.120   8.114  0.4182  2.8733 -0.9849
   63SAPC  C217 5063   5.655   6.185   8.174 -0.1191  0.0435 -0.2691
   63SAPC  H17R 5064   5.630   6.290   8.201  3.1449  0.7873  0.3078
   63SAPC  H17S 5065   5.757   6.183   8.131  1.5922  4.5849  2.8428
   63SAPC  C218 5066   5.656   6.126   8.315 -0.4118 -0.0351 -0.4292
   63SAPC  H18R 5067   5.731   6.187   8.371  1.1272 -0.8255 -1.5569
   63SAPC  H18S 5068   5.698   6.023   8.311 -2.1932 -0.7691 -2.8765
   63SAPC  C219 5069   5.523   6.143   8.392 -0.2065  0.0489  0.2547
   63SAPC  H19R 5070   5.525   6.089   8.489  0.5951  0.9366  0.7513
   63SAPC  H19S 5071   5.437   6.094   8.343 -0.3762  0.1812  0.4187
   63SAPC  C220 5072   5.489   6.290   8.419  0.1356  0.6055  0.4539
   63SAPC  H20R 5073   5.557   6.341   8.491  1.3929  0.6088 -0.6977
   63SAPC  H20S 5074   5.389   6.292   8.467 -0.7539 -0.2125 -1.2796
   63SAPC  H20T 5075   5.475   6.355   8.330 -0.9427  3.0071  2.2305
   63SAPC   C33 5076   6.303   5.194   7.135  0.7409 -0.1147  0.3198
   63SAPC   H3X 5077   6.312   5.304   7.149  0.8846  0.3122 -2.4738
   63SAPC   H3Y 5078   6.406   5.151   7.136  1.3861  1.0214 -3.2225
   63SAPC   C34 5079   6.216   5.151   7.260 -0.1459 -0.4779 -0.0092
   63SAPC   H4X 5080   6.192   5.043   7.248  0.1208 -0.4678 -0.6839
   63SAPC   H4Y 5081   6.122   5.209   7.261  1.0305  1.6090  2.8047
   63SAPC   C35 5082   6.287   5.161   7.391 -0.3428 -0.4235 -1.1513
   63SAPC   H5X 5083   6.309   5.263   7.427 -0.3700 -0.4629 -1.0211
   63SAPC   H5Y 5084   6.384   5.108   7.377  0.2937  0.1672  0.7188
   63SAPC   C36 5085   6.212   5.083   7.498 -0.0564  0.2773  0.4249
   63SAPC   H6X 5086   6.199   4.975   7.478  4.0385 -0.4504  0.8205
   63SAPC   H6Y 5087   6.113   5.133   7.506  0.8104  1.8931  2.1955
   63SAPC   C37 5088   6.270   5.113   7.638 -0.1582  0.4988 -0.3780
   63SAPC   H7X 5089   6.243   5.219   7.656 -1.8630  0.5895 -2.9591
   63SAPC   H7Y 5090   6.380   5.108   7.631  0.2064  1.7453  2.6968
   63SAPC   C38 5091   6.205   5.025   7.751 -0.3907 -0.4706 -0.1287
   63SAPC   H8X 5092   6.230   4.921   7.720 -1.7264  0.1016 -3.6484
   63SAPC   H8Y 5093   6.095   5.032   7.755 -0.3541  0.8858 -0.7761
   63SAPC   C39 5094   6.250   5.054   7.897 -0.3986  0.3906 -0.7625
   63SAPC   H9X 5095   6.224   5.159   7.923 -1.7557 -0.0186 -0.4289
   63SAPC   H9Y 5096   6.360   5.044   7.909 -0.4475  0.5483 -0.1869
   63SAPC  C310 5097   6.213   4.970   8.021  0.5697  0.5021  0.3293
   63SAPC  H10X 5098   6.267   4.873   8.014 -0.7202 -0.2517  0.5718
   63SAPC  H10Y 5099   6.105   4.945   8.014  0.3574  1.5296 -0.1935
   63SAPC  C311 5100   6.237   5.040   8.157  0.1189  0.0022  0.5304
   63SAPC  H11X 5101   6.175   5.132   8.156  0.2176  0.0825  1.2725
   63SAPC  H11Y 5102   6.344   5.068   8.166 -0.1479  0.5375  2.4199
   63SAPC  C312 5103   6.178   4.951   8.272 -1.4617  0.6109 -0.1157
   63SAPC  H12X 5104   6.198   4.843   8.253 -0.4550  0.9631 -1.1779
   63SAPC  H12Y 5105   6.069   4.970   8.283 -1.0870  2.2001  1.3104
   63SAPC  C313 5106   6.232   4.992   8.406 -0.1574  0.0198 -0.5493
   63SAPC  H13X 5107   6.199   5.097   8.425 -0.8965 -0.5736  1.7824
   63SAPC  H13Y 5108   6.343   4.983   8.405 -0.1181  0.4454 -2.2432
   63SAPC  C314 5109   6.178   4.914   8.530  0.1070  0.1925  0.1887
   63SAPC  H14X 5110   6.201   4.806   8.531  1.1973  0.4106  0.2668
   63SAPC  H14Y 5111   6.068   4.900   8.533  0.3382 -1.9274  0.2631
   63SAPC  C315 5112   6.225   4.981   8.666 -0.0745  0.2716 -0.3746
   63SAPC  H15X 5113   6.200   5.089   8.682  2.5816  0.8652  0.1613
   63SAPC  H15Y 5114   6.335   4.967   8.665 -0.0889 -0.2900 -3.8037
   63SAPC  C316 5115   6.167   4.894   8.786  0.0615 -0.4805 -0.2753
   63SAPC  H16X 5116   6.195   4.786   8.782  2.3031  0.0363  0.0421
   63SAPC  H16Y 5117   6.057   4.904   8.792  0.0942 -0.9403  1.8163
   63SAPC  C317 5118   6.211   4.945   8.927  0.0449 -0.4595  0.6067
   63SAPC  H17X 5119   6.164   5.044   8.944  1.4664  0.1715  1.0270
   63SAPC  H17Y 5120   6.319   4.971   8.924 -0.2940  0.9978 -0.5763
   63SAPC  C318 5121   6.184   4.837   9.023 -0.2910 -0.1218 -0.4268
   63SAPC  H18X 5122   6.074   4.833   9.044 -0.3699 -2.0279 -0.9986
   63SAPC  H18Y 5123   6.247   4.849   9.114 -0.4858  0.8935 -0.4223
   63SAPC  H18Z 5124   6.218   4.741   8.979 -1.0720 -1.3946  1.5971
   64SAPC     N 5125   6.726   6.582   5.810  0.2439  0.0352 -0.1297
   64SAPC   C12 5126   6.770   6.544   5.951 -0.3084  0.2988  0.0548
   64SAPC  H12A 5127   6.686   6.569   6.014 -0.9688 -0.0573 -0.6517
   64SAPC  H12B 5128   6.858   6.599   5.979 -0.4474  1.2589 -1.2604
   64SAPC   C13 5129   6.664   6.719   5.802 -0.6842 -0.4846 -0.6179
   64SAPC  H13A 5130   6.729   6.786   5.857 -0.4442 -0.4449 -0.9509
   64SAPC  H13B 5131   6.657   6.753   5.700 -0.5224 -2.0346 -1.1741
   64SAPC  H13C 5132   6.561   6.719   5.836 -0.5165  0.4250 -0.0757
   64SAPC   C14 5133   6.836   6.571   5.713  0.0032  0.5121  0.7507
   64SAPC  H14A 5134   6.865   6.468   5.698 -0.1412  0.7730 -1.8223
   64SAPC  H14B 5135   6.808   6.618   5.620  0.6490  0.2430  0.4101
   64SAPC  H14C 5136   6.918   6.639   5.733  1.9679 -1.9684  1.5794
   64SAPC   C15 5137   6.619   6.494   5.751  0.6088  0.2543 -0.2440
   64SAPC  H15A 5138   6.521   6.507   5.793  0.9010 -1.6283  1.1325
   64SAPC  H15B 5139   6.592   6.526   5.651 -0.7969 -1.0510 -0.3122
   64SAPC  H15C 5140   6.630   6.389   5.727 -0.1011  0.3762 -1.1438
   64SAPC   C11 5141   6.786   6.388   5.981 -0.2235 -0.1152  0.7595
   64SAPC  H11A 5142   6.833   6.386   6.081  0.1979 -1.0843  0.5588
   64SAPC  H11B 5143   6.846   6.352   5.894 -0.1762  1.6587  0.0183
   64SAPC     P 5144   6.546   6.361   6.079  0.5407 -0.2959 -0.1958
   64SAPC   O13 5145   6.478   6.486   6.045 -0.3161  0.0415  0.0749
   64SAPC   O14 5146   6.454   6.247   6.102  0.3413 -0.3498 -0.2329
   64SAPC   O12 5147   6.657   6.317   5.972 -0.1920  0.4781 -0.0330
   64SAPC   O11 5148   6.633   6.396   6.206 -0.3203 -0.5962  0.4531
   64SAPC    C1 5149   6.688   6.292   6.283  0.9380  0.0916 -0.2014
   64SAPC    HA 5150   6.687   6.195   6.231 -1.8246  0.2345 -0.5516
   64SAPC    HB 5151   6.793   6.321   6.307  0.4595  1.9103 -0.1573
   64SAPC    C2 5152   6.610   6.287   6.417  0.1749 -0.3228 -0.2813
   64SAPC    HS 5153   6.507   6.257   6.385  0.0678 -0.7078  0.3947
   64SAPC   O21 5154   6.609   6.416   6.478  0.1032 -0.0287 -0.6916
   64SAPC   C21 5155   6.492   6.466   6.509 -0.6279 -0.0481 -0.1321
   64SAPC   O22 5156   6.383   6.421   6.483  0.0909 -0.1059  1.0753
   64SAPC   C22 5157   6.517   6.579   6.612 -0.0018  0.3947 -1.1051
   64SAPC   H2R 5158   6.573   6.529   6.694 -3.5087 -1.7055  0.2864
   64SAPC   H2S 5159   6.577   6.662   6.570  0.9762  1.5067  2.1743
   64SAPC    C3 5160   6.657   6.170   6.511  0.0086 -0.3848  0.0751
   64SAPC    HX 5161   6.756   6.197   6.551  0.6117  0.2657 -1.7467
   64SAPC    HY 5162   6.680   6.082   6.447  2.0740  0.4266 -0.3473
   64SAPC   O31 5163   6.575   6.144   6.632 -0.4167  0.4457  0.0601
   64SAPC   C31 5164   6.456   6.089   6.608  0.2219 -0.1489  0.3537
   64SAPC   O32 5165   6.405   6.059   6.499  0.4159 -0.2718 -0.5770
   64SAPC   C32 5166   6.381   6.097   6.736  0.2055 -0.2028  0.3401
   64SAPC   H2X 5167   6.426   6.015   6.795  2.4799  0.2859 -0.6090
   64SAPC   H2Y 5168   6.278   6.061   6.716 -0.4935  3.0023 -2.8146
   64SAPC   C23 5169   6.385   6.618   6.682 -0.3732  0.4010 -0.0268
   64SAPC   H3R 5170   6.326   6.525   6.692 -2.0642  1.1253 -2.3573
   64SAPC   H3S 5171   6.331   6.694   6.621  1.1348  0.6664 -1.0584
   64SAPC   C24 5172   6.394   6.698   6.820  0.5472  0.3861 -0.0387
   64SAPC   H4R 5173   6.292   6.707   6.864 -0.7625 -1.2064 -2.4930
   64SAPC   H4S 5174   6.418   6.804   6.797 -1.8241  0.6275 -1.8013
   64SAPC   C25 5175   6.491   6.641   6.913  0.0152 -0.2492 -0.5582
   64SAPC   H5R 5176   6.591   6.637   6.866 -1.3845 -3.1930 -3.7494
   64SAPC   C26 5177   6.473   6.602   7.039  0.2359  1.0922 -0.2305
   64SAPC   H6R 5178   6.560   6.575   7.100  0.0236 -0.6253 -0.6307
   64SAPC   C27 5179   6.332   6.596   7.094 -0.6170 -0.0548 -0.0918
   64SAPC   H7R 5180   6.326   6.501   7.151  0.0141 -0.3943 -0.5865
   64SAPC   H7S 5181   6.261   6.578   7.011  3.9925  1.0847 -4.7847
   64SAPC   C28 5182   6.308   6.723   7.167  0.0678  0.1342 -0.4417
   64SAPC   H8R 5183   6.247   6.794   7.110  0.7572 -0.5793 -2.1247
   64SAPC   C29 5184   6.349   6.760   7.291  0.3710 -0.2229  0.0432
   64SAPC   H9R 5185   6.333   6.858   7.337 -0.6526 -0.4226  0.1460
   64SAPC  C210 5186   6.429   6.675   7.385 -0.3024 -0.5082  0.1981
   64SAPC  H10R 5187   6.538   6.695   7.399  0.5529 -4.1125 -0.2448
   64SAPC  H10S 5188   6.435   6.568   7.356 -0.4562 -0.2540 -0.8067
   64SAPC  C211 5189   6.365   6.672   7.521 -0.1888 -0.5976  0.1934
   64SAPC  H11R 5190   6.270   6.727   7.525 -0.6587 -1.4569  2.4085
   64SAPC  C212 5191   6.404   6.600   7.628 -0.0208 -0.6570 -0.3062
   64SAPC  H12R 5192   6.340   6.603   7.717  0.9038  1.8911  0.3262
   64SAPC  C213 5193   6.520   6.509   7.638 -0.0801  0.2490  0.0290
   64SAPC  H13R 5194   6.596   6.538   7.713 -2.8842  1.3282  2.6722
   64SAPC  H13S 5195   6.581   6.504   7.545  0.5312  2.0329  0.3053
   64SAPC  C214 5196   6.503   6.367   7.667  0.2522 -0.1486  0.4095
   64SAPC  H14R 5197   6.425   6.326   7.601 -1.2928  2.2216  0.6421
   64SAPC  C215 5198   6.555   6.288   7.766  0.5237 -0.1049  0.1700
   64SAPC  H15R 5199   6.510   6.188   7.771  2.4631 -1.0329 -0.1184
   64SAPC  C216 5200   6.664   6.315   7.865  0.3819 -0.2776  0.5517
   64SAPC  H16R 5201   6.640   6.417   7.899  0.3298  0.4719 -1.5751
   64SAPC  H16S 5202   6.766   6.322   7.820  0.2957 -0.2096  0.3647
   64SAPC  C217 5203   6.674   6.210   7.977  0.1745 -0.4491 -0.2356
   64SAPC  H17R 5204   6.697   6.111   7.932 -1.0594 -0.7971 -0.1356
   64SAPC  H17S 5205   6.574   6.208   8.025 -1.1035  2.4810 -2.4638
   64SAPC  C218 5206   6.770   6.265   8.085  0.4224  0.2205  0.0549
   64SAPC  H18R 5207   6.735   6.364   8.119 -2.8360 -0.7258 -0.2393
   64SAPC  H18S 5208   6.875   6.258   8.048  0.3839 -0.1469  0.0066
   64SAPC  C219 5209   6.765   6.172   8.210 -0.7213 -0.6815  0.1524
   64SAPC  H19R 5210   6.801   6.073   8.176 -0.7184 -0.6340  0.0155
   64SAPC  H19S 5211   6.659   6.171   8.243 -1.3081  1.2221 -1.4709
   64SAPC  C220 5212   6.853   6.219   8.328 -0.4448  0.4672  1.1846
   64SAPC  H20R 5213   6.957   6.182   8.316 -1.4317 -2.0997 -0.0576
   64SAPC  H20S 5214   6.819   6.171   8.423 -1.5463 -0.2021  0.4688
   64SAPC  H20T 5215   6.844   6.329   8.345  0.4778  0.5338  1.2966
   64SAPC   C33 5216   6.398   6.232   6.808  0.4734  0.6771 -0.1999
   64SAPC   H3X 5217   6.351   6.309   6.743  1.0001  0.2548 -1.1025
   64SAPC   H3Y 5218   6.504   6.253   6.836  0.0341  0.6134  1.6446
   64SAPC   C34 5219   6.315   6.225   6.942 -0.9179 -1.1501  0.5559
   64SAPC   H4X 5220   6.212   6.189   6.922 -0.4078 -2.0740 -0.5761
   64SAPC   H4Y 5221   6.317   6.331   6.977  0.8481  0.4875 -3.7526
   64SAPC   C35 5222   6.371   6.119   7.040 -0.4133  0.0401  0.2112
   64SAPC   H5X 5223   6.481   6.132   7.044  0.0163 -2.2125 -1.8691
   64SAPC   H5Y 5224   6.349   6.022   6.992  0.3435  0.4601 -1.0529
   64SAPC   C36 5225   6.328   6.144   7.182 -0.0590  0.1924 -0.6549
   64SAPC   H6X 5226   6.220   6.119   7.185  0.3046 -1.5470  2.6665
   64SAPC   H6Y 5227   6.332   6.250   7.217  2.0959  0.4500 -1.5365
   64SAPC   C37 5228   6.390   6.045   7.278  0.7952 -0.4074  0.1600
   64SAPC   H7X 5229   6.498   6.069   7.270  1.0215 -1.5430 -0.3439
   64SAPC   H7Y 5230   6.362   5.941   7.250 -2.2482  0.6092 -1.1080
   64SAPC   C38 5231   6.334   6.063   7.420  0.2529  0.2340  0.1186
   64SAPC   H8X 5232   6.225   6.043   7.417  0.3461 -1.0504  2.7809
   64SAPC   H8Y 5233   6.358   6.161   7.465 -0.9129 -0.5723  2.6903
   64SAPC   C39 5234   6.398   5.943   7.498  0.3302  0.0166 -0.3722
   64SAPC   H9X 5235   6.507   5.946   7.476  1.0630 -3.2687  2.0053
   64SAPC   H9Y 5236   6.364   5.848   7.450 -0.7868 -0.9448  2.1699
   64SAPC  C310 5237   6.366   5.940   7.649  1.1217 -0.2389  1.2265
   64SAPC  H10X 5238   6.259   5.909   7.656  1.8529 -3.5782 -0.3124
   64SAPC  H10Y 5239   6.369   6.044   7.687 -0.1614  0.3056 -0.0474
   64SAPC  C311 5240   6.448   5.849   7.746 -1.0752 -0.1275 -0.0502
   64SAPC  H11X 5241   6.553   5.885   7.749 -1.0119 -0.3874  2.2180
   64SAPC  H11Y 5242   6.451   5.742   7.714  0.2273 -0.3312  0.6996
   64SAPC  C312 5243   6.400   5.855   7.895 -0.8922  0.1983  0.3906
   64SAPC  H12X 5244   6.315   5.786   7.913  0.3030 -1.5547 -0.3450
   64SAPC  H12Y 5245   6.364   5.955   7.926 -0.5815  0.6903 -0.7788
   64SAPC  C313 5246   6.509   5.817   7.994  0.0293 -0.0012  0.8495
   64SAPC  H13X 5247   6.601   5.877   7.978 -0.2004 -0.1810 -1.5298
   64SAPC  H13Y 5248   6.534   5.710   7.979  0.1333 -0.0213  1.1587
   64SAPC  C314 5249   6.474   5.847   8.140 -0.6819  0.1156  0.3250
   64SAPC  H14X 5250   6.393   5.778   8.172  0.5934 -2.6239 -1.9271
   64SAPC  H14Y 5251   6.428   5.948   8.152  0.7922  1.1019 -1.7155
   64SAPC  C315 5252   6.597   5.839   8.234  0.6010  0.0105  0.4952
   64SAPC  H15X 5253   6.673   5.912   8.200 -0.1200  0.8356  0.6194
   64SAPC  H15Y 5254   6.642   5.737   8.234 -0.4254 -0.4729 -1.1218
   64SAPC  C316 5255   6.567   5.882   8.378 -0.3078  0.2760 -0.2151
   64SAPC  H16X 5256   6.507   5.975   8.388 -1.4704 -0.5053  0.2934
   64SAPC  H16Y 5257   6.665   5.903   8.426 -1.0416 -1.3149  2.1624
   64SAPC  C317 5258   6.511   5.775   8.476  0.0238 -0.1290  0.7277
   64SAPC  H17X 5259   6.588   5.699   8.500 -1.7428 -1.4812  2.3363
   64SAPC  H17Y 5260   6.431   5.705   8.444  1.6999 -2.4696  1.3366
   64SAPC  C318 5261   6.458   5.833   8.603  0.3641 -0.6265 -0.2974
   64SAPC  H18X 5262   6.375   5.907   8.602  0.1121 -0.5125  4.7210
   64SAPC  H18Y 5263   6.541   5.890   8.649 -0.4822  0.2698  0.1748
   64SAPC  H18Z 5264   6.426   5.758   8.679 -2.8685  0.3015 -0.5787
   65SAPC     N 5265   2.341   1.150   5.834 -0.2755  0.1374  0.2899
   65SAPC   C12 5266   2.249   1.166   5.954 -0.8610  0.5746  0.3767
   65SAPC  H12A 5267   2.148   1.191   5.922 -1.6173 -0.2470  1.9967
   65SAPC  H12B 5268   2.293   1.225   6.033  1.7264 -2.1638  1.1526
   65SAPC   C13 5269   2.479   1.106   5.881 -0.6697  0.4421 -0.6095
   65SAPC  H13A 5270   2.554   1.068   5.813  0.5070 -0.9264  1.3395
   65SAPC  H13B 5271   2.538   1.181   5.930  1.3420 -0.8628 -0.9396
   65SAPC  H13C 5272   2.468   1.024   5.950  0.5546 -0.0779 -1.0120
   65SAPC   C14 5273   2.288   1.048   5.744 -0.2643  0.2201  0.6384
   65SAPC  H14A 5274   2.352   1.025   5.660 -0.3895  0.8658  0.3673
   65SAPC  H14B 5275   2.283   0.954   5.797  1.4196 -0.3823 -0.1668
   65SAPC  H14C 5276   2.189   1.068   5.708 -0.4839  0.1277  1.1823
   65SAPC   C15 5277   2.358   1.277   5.758  0.0701 -0.4182 -0.6382
   65SAPC  H15A 5278   2.291   1.293   5.675  1.6980  1.5480 -1.6717
   65SAPC  H15B 5279   2.336   1.356   5.829  0.1420 -0.0919 -0.9749
   65SAPC  H15C 5280   2.459   1.279   5.718  0.3803 -1.3210  0.0771
   65SAPC   C11 5281   2.206   1.035   6.026 -0.4502 -0.4049 -0.5636
   65SAPC  H11A 5282   2.162   1.066   6.123 -2.5619  1.7068 -2.0876
   65SAPC  H11B 5283   2.286   0.961   6.050  0.0765  0.7968  1.7643
   65SAPC     P 5284   1.960   1.018   5.914 -0.4864 -0.0644  0.2529
   65SAPC   O13 5285   1.966   1.159   5.864 -0.7814 -0.2294 -0.3688
   65SAPC   O14 5286   1.890   0.927   5.822 -0.1502  0.0722  0.4935
   65SAPC   O12 5287   2.108   0.972   5.944 -0.4353 -0.2258 -0.1588
   65SAPC   O11 5288   1.883   1.007   6.047  0.5192  0.3908  0.3045
   65SAPC    C1 5289   1.855   0.875   6.099  0.1756  0.8348 -0.0687
   65SAPC    HA 5290   1.772   0.831   6.039  0.0202  0.0926  0.6718
   65SAPC    HB 5291   1.947   0.813   6.103 -0.5407 -0.3627 -1.3833
   65SAPC    C2 5292   1.785   0.871   6.246  0.4629  1.2272  0.2120
   65SAPC    HS 5293   1.684   0.910   6.220 -0.7060 -1.3247  0.6576
   65SAPC   O21 5294   1.853   0.968   6.333 -0.0707 -0.2517 -0.2363
   65SAPC   C21 5295   1.776   1.002   6.435  0.7002 -0.1902  0.0986
   65SAPC   O22 5296   1.656   0.994   6.446  0.2567  0.2214  0.0631
   65SAPC   C22 5297   1.864   1.077   6.534  0.1940 -0.4199  0.7175
   65SAPC   H2R 5298   1.937   1.142   6.481 -1.6477  0.5423 -0.7578
   65SAPC   H2S 5299   1.800   1.137   6.602  0.0251 -1.3522  1.3875
   65SAPC    C3 5300   1.760   0.729   6.313  0.2183  0.3193  0.3521
   65SAPC    HX 5301   1.720   0.659   6.236  0.1415 -0.6678  1.2657
   65SAPC    HY 5302   1.673   0.731   6.382 -0.4242 -0.3148 -0.4089
   65SAPC   O31 5303   1.882   0.673   6.371 -0.1589  0.4677 -0.2131
   65SAPC   C31 5304   1.873   0.550   6.424 -0.0955  0.6109 -0.5305
   65SAPC   O32 5305   1.772   0.484   6.418  0.2726  0.3603  0.2878
   65SAPC   C32 5306   2.003   0.503   6.487 -0.1640 -0.1914 -0.4435
   65SAPC   H2X 5307   2.087   0.566   6.452  1.3887  0.2937  3.6346
   65SAPC   H2Y 5308   2.015   0.399   6.450 -2.3126  0.2557 -2.7093
   65SAPC   C23 5309   1.950   0.983   6.624 -0.0133 -0.2795 -0.7101
   65SAPC   H3R 5310   2.017   1.047   6.686  0.6546 -2.3094  0.7797
   65SAPC   H3S 5311   2.016   0.912   6.569  2.3982  1.2299  0.0607
   65SAPC   C24 5312   1.866   0.901   6.728 -0.6098 -0.1798 -0.2204
   65SAPC   H4R 5313   1.930   0.814   6.755  2.3310  1.9575  0.1717
   65SAPC   H4S 5314   1.782   0.863   6.667 -0.8079 -0.6215  0.3265
   65SAPC   C25 5315   1.813   0.970   6.845  0.1821  0.2718  0.8685
   65SAPC   H5R 5316   1.741   1.042   6.805  2.2526  0.6475 -2.5943
   65SAPC   C26 5317   1.840   0.954   6.974 -0.0545 -1.0704  0.0078
   65SAPC   H6R 5318   1.786   1.017   7.048  0.0776 -1.0122  0.0545
   65SAPC   C27 5319   1.953   0.866   7.029 -0.0038 -0.3633 -0.4249
   65SAPC   H7R 5320   2.011   0.817   6.948 -4.1762 -3.2770 -2.0140
   65SAPC   H7S 5321   1.914   0.786   7.095  1.4332 -0.6488  0.1048
   65SAPC   C28 5322   2.047   0.953   7.103  0.1239  0.3577  0.2683
   65SAPC   H8R 5323   2.133   0.978   7.038 -1.7603  1.9472 -1.7516
   65SAPC   C29 5324   2.043   0.981   7.233  0.0171 -0.2427  0.3386
   65SAPC   H9R 5325   2.123   1.045   7.272  0.2427  0.3363 -1.0338
   65SAPC  C210 5326   1.946   0.927   7.330 -0.3729 -0.7284 -0.7678
   65SAPC  H10R 5327   2.009   0.865   7.398 -0.8719 -0.6122 -0.1852
   65SAPC  H10S 5328   1.859   0.866   7.298 -1.3985  0.3647 -0.1363
   65SAPC  C211 5329   1.886   1.042   7.416  0.5095  0.1105 -0.2849
   65SAPC  H11R 5330   1.797   1.085   7.367 -0.6962 -1.7328  0.1783
   65SAPC  C212 5331   1.925   1.092   7.535 -0.3297 -0.8764  0.2801
   65SAPC  H12R 5332   1.868   1.169   7.589 -0.5189 -1.3906  0.8302
   65SAPC  C213 5333   2.045   1.041   7.620  0.1801  0.3198  0.4164
   65SAPC  H13R 5334   2.126   0.984   7.569  0.5792 -0.0855  1.4722
   65SAPC  H13S 5335   2.002   0.979   7.701 -0.8898  0.7144  0.1581
   65SAPC  C214 5336   2.127   1.158   7.680  0.2087 -0.4617 -0.5366
   65SAPC  H14R 5337   2.116   1.256   7.631  1.0914 -1.2240 -2.3410
   65SAPC  C215 5338   2.221   1.152   7.780 -0.2911 -0.0896  0.0087
   65SAPC  H15R 5339   2.282   1.242   7.799  0.7531 -0.8970  0.5798
   65SAPC  C216 5340   2.259   1.026   7.860  0.9479  0.3944 -0.1393
   65SAPC  H16R 5341   2.327   0.951   7.814  0.3997  0.2798 -0.7680
   65SAPC  H16S 5342   2.164   0.974   7.886  1.3960 -1.7486 -2.4363
   65SAPC  C217 5343   2.330   1.079   7.985  0.2564  0.6992  0.2178
   65SAPC  H17R 5344   2.277   1.168   8.024 -0.1465  0.8707 -0.6960
   65SAPC  H17S 5345   2.437   1.092   7.961  1.0848 -2.3496  1.6861
   65SAPC  C218 5346   2.312   0.973   8.092 -0.5861 -0.5853  0.4456
   65SAPC  H18R 5347   2.375   0.885   8.066 -0.1908 -0.4612  0.9597
   65SAPC  H18S 5348   2.207   0.944   8.113 -1.4633  2.0399  0.0368
   65SAPC  C219 5349   2.354   1.021   8.236 -0.0710 -0.2861 -0.3698
   65SAPC  H19R 5350   2.348   0.930   8.299  0.8825 -0.1269 -0.0305
   65SAPC  H19S 5351   2.272   1.092   8.262  1.8082  2.1371 -0.6668
   65SAPC  C220 5352   2.488   1.092   8.238 -0.8898 -0.1561 -0.6795
   65SAPC  H20R 5353   2.477   1.173   8.162 -1.6526  3.3355  2.8535
   65SAPC  H20S 5354   2.579   1.037   8.207 -0.5082 -0.1780  0.4465
   65SAPC  H20T 5355   2.501   1.144   8.335 -0.0100 -1.5298 -0.0359
   65SAPC   C33 5356   1.994   0.505   6.641 -0.1644 -0.4908 -0.1652
   65SAPC   H3X 5357   1.920   0.434   6.684  0.0645 -0.3814  0.4243
   65SAPC   H3Y 5358   1.963   0.603   6.685 -2.2077 -1.9086  1.7474
   65SAPC   C34 5359   2.122   0.465   6.705  0.2648 -0.5908 -0.1829
   65SAPC   H4X 5360   2.208   0.506   6.648  1.8741 -0.6342  2.0545
   65SAPC   H4Y 5361   2.142   0.356   6.698 -1.1975 -1.0614  2.0204
   65SAPC   C35 5362   2.123   0.497   6.856 -0.3560  0.0142  0.0960
   65SAPC   H5X 5363   2.033   0.449   6.901 -2.1963  3.0802 -0.0188
   65SAPC   H5Y 5364   2.114   0.608   6.861  2.1746  0.2765  0.3570
   65SAPC   C36 5365   2.253   0.445   6.913  0.1450 -0.2373 -0.2433
   65SAPC   H6X 5366   2.346   0.497   6.884  0.2570  1.0247  2.1143
   65SAPC   H6Y 5367   2.271   0.338   6.888  0.1405 -0.2472 -0.2054
   65SAPC   C37 5368   2.260   0.457   7.065  0.4347  0.0085 -0.5264
   65SAPC   H7X 5369   2.346   0.399   7.106 -0.5854  0.2670  2.1456
   65SAPC   H7Y 5370   2.167   0.402   7.091 -0.5818  1.5709 -0.7379
   65SAPC   C38 5371   2.254   0.602   7.117  0.6084 -0.2394  0.3434
   65SAPC   H8X 5372   2.163   0.645   7.070 -0.7475 -2.5866  0.6683
   65SAPC   H8Y 5373   2.339   0.662   7.078  0.8925 -0.2832  0.8900
   65SAPC   C39 5374   2.237   0.604   7.265 -0.2995 -0.0956  0.7979
   65SAPC   H9X 5375   2.150   0.542   7.298 -1.2951 -1.0672 -3.1463
   65SAPC   H9Y 5376   2.230   0.708   7.301 -0.1593  0.1971 -0.0004
   65SAPC  C310 5377   2.354   0.541   7.339  0.0726  0.1904 -0.3259
   65SAPC  H10X 5378   2.447   0.584   7.297  2.5119 -1.4797  2.9481
   65SAPC  H10Y 5379   2.364   0.430   7.335  0.9161  0.2890 -2.8768
   65SAPC  C311 5380   2.360   0.593   7.488 -0.2644  0.2247 -0.0915
   65SAPC  H11X 5381   2.375   0.497   7.541  0.6725  0.0380 -0.6745
   65SAPC  H11Y 5382   2.264   0.639   7.522 -0.3756  1.7703 -2.3152
   65SAPC  C312 5383   2.467   0.694   7.511  0.6338  1.4349 -0.2190
   65SAPC  H12X 5384   2.447   0.787   7.454 -0.8378  1.5961  0.5255
   65SAPC  H12Y 5385   2.559   0.640   7.479 -1.1863 -1.6258 -0.6445
   65SAPC  C313 5386   2.475   0.744   7.650 -0.3076  0.0654 -0.3952
   65SAPC  H13X 5387   2.493   0.646   7.700  0.4188 -0.1753 -1.0974
   65SAPC  H13Y 5388   2.382   0.797   7.681 -0.1801  0.4961 -0.7432
   65SAPC  C314 5389   2.592   0.837   7.686 -0.3590 -0.5641 -0.1581
   65SAPC  H14X 5390   2.563   0.932   7.637  0.4060 -0.5106 -0.5312
   65SAPC  H14Y 5391   2.686   0.805   7.636 -1.1248  3.1497 -4.6079
   65SAPC  C315 5392   2.604   0.857   7.839  0.1808  0.0523 -1.1975
   65SAPC  H15X 5393   2.510   0.838   7.895  1.1840 -0.3497  0.4204
   65SAPC  H15Y 5394   2.637   0.961   7.859  1.5805 -0.6282  0.3057
   65SAPC  C316 5395   2.698   0.749   7.908 -0.4894 -0.0177 -0.5541
   65SAPC  H16X 5396   2.802   0.785   7.890 -0.3019  0.0021  0.4673
   65SAPC  H16Y 5397   2.689   0.643   7.878 -0.6246 -0.4512  0.9503
   65SAPC  C317 5398   2.689   0.754   8.060 -0.9322 -0.0772  0.5863
   65SAPC  H17X 5399   2.586   0.753   8.102 -1.2267 -2.7370 -0.0364
   65SAPC  H17Y 5400   2.734   0.851   8.091 -0.2626  0.6285 -2.3180
   65SAPC  C318 5401   2.765   0.653   8.140 -0.0796  0.1045 -0.3496
   65SAPC  H18X 5402   2.721   0.552   8.125  1.4861 -0.6048 -0.3243
   65SAPC  H18Y 5403   2.757   0.673   8.249 -1.9540  1.1542 -0.6179
   65SAPC  H18Z 5404   2.873   0.658   8.118 -0.0074 -0.1425 -0.0537
   66SAPC     N 5405   0.045   0.790   5.789 -0.4059 -0.3428  0.3111
   66SAPC   C12 5406   0.160   0.807   5.885 -0.9834 -0.1989  0.5592
   66SAPC  H12A 5407   0.141   0.877   5.966  2.3429  1.1434  0.3098
   66SAPC  H12B 5408   0.240   0.857   5.834  1.4038 -1.9703  2.2897
   66SAPC   C13 5409   0.092   0.693   5.684 -0.3559 -0.4264 -0.3132
   66SAPC  H13A 5410   0.102   0.595   5.728  1.4294 -0.1507 -0.0608
   66SAPC  H13B 5411   0.028   0.685   5.598 -0.3496  0.7114 -0.4371
   66SAPC  H13C 5412   0.187   0.729   5.649 -1.0941  1.0766 -0.8593
   66SAPC   C14 5413  -0.078   0.736   5.842  0.2829  0.4867  0.1691
   66SAPC  H14A 5414  -0.080   0.642   5.895 -0.5871 -0.2611 -1.1240
   66SAPC  H14B 5415  -0.121   0.809   5.910 -0.3428 -0.1231  0.4337
   66SAPC  H14C 5416  -0.155   0.730   5.766  1.0550  0.8660 -0.6659
   66SAPC   C15 5417   0.014   0.927   5.731 -0.4808 -0.3738  0.3602
   66SAPC  H15A 5418  -0.078   0.908   5.677 -0.6041 -0.7577  0.7015
   66SAPC  H15B 5419  -0.006   0.999   5.809 -0.3923 -0.6728  0.6621
   66SAPC  H15C 5420   0.088   0.975   5.670 -1.2725  1.3909  0.7172
   66SAPC   C11 5421   0.219   0.682   5.962  0.2950  0.4188 -0.1239
   66SAPC  H11A 5422   0.133   0.630   6.010  0.9717 -1.6490 -1.0147
   66SAPC  H11B 5423   0.287   0.736   6.032 -1.4827  0.0691  1.9646
   66SAPC     P 5424   0.436   0.575   5.836  0.1221  0.1641  0.3003
   66SAPC   O13 5425   0.460   0.458   5.747 -0.0200 -0.7458 -0.1074
   66SAPC   O14 5426   0.472   0.708   5.790 -0.8356  0.0723  0.1082
   66SAPC   O12 5427   0.287   0.582   5.887  0.4555  0.1651 -0.1858
   66SAPC   O11 5428   0.510   0.556   5.971 -0.0484  0.7471 -0.0441
   66SAPC    C1 5429   0.525   0.420   6.032 -0.5014 -0.2603  0.6358
   66SAPC    HA 5430   0.554   0.354   5.947 -1.0986 -1.1572  1.1168
   66SAPC    HB 5431   0.606   0.425   6.108 -0.1102  0.8935  0.1653
   66SAPC    C2 5432   0.400   0.371   6.109 -0.3819 -0.5492 -0.2343
   66SAPC    HS 5433   0.311   0.387   6.044 -0.2182 -2.9649 -1.1629
   66SAPC   O21 5434   0.392   0.452   6.229  0.5178 -0.4162  0.8023
   66SAPC   C21 5435   0.263   0.462   6.270  0.5289  0.8195 -0.2303
   66SAPC   O22 5436   0.168   0.398   6.224  0.2971 -0.4944  0.1997
   66SAPC   C22 5437   0.262   0.574   6.378  0.0597  1.1665  0.7910
   66SAPC   H2R 5438   0.325   0.549   6.466  2.3056  3.5707  0.0200
   66SAPC   H2S 5439   0.305   0.669   6.338  0.6385 -0.4146 -2.6639
   66SAPC    C3 5440   0.411   0.218   6.138 -0.4335  0.4051 -0.0589
   66SAPC    HX 5441   0.403   0.150   6.051 -2.3114 -0.1960  0.5387
   66SAPC    HY 5442   0.322   0.185   6.194 -0.4848 -0.1582 -0.4661
   66SAPC   O31 5443   0.537   0.185   6.214  0.0567  0.0920 -0.4716
   66SAPC   C31 5444   0.558   0.233   6.331 -0.1440 -0.3919 -0.1573
   66SAPC   O32 5445   0.473   0.263   6.407  0.3576  0.0479 -0.6953
   66SAPC   C32 5446   0.708   0.243   6.344  0.6480 -0.1796  0.6311
   66SAPC   H2X 5447   0.750   0.326   6.284 -1.5536  0.8089  0.3366
   66SAPC   H2Y 5448   0.748   0.147   6.305 -0.0141  0.1295 -0.8553
   66SAPC   C23 5449   0.121   0.585   6.437 -0.4355 -0.1192 -0.0691
   66SAPC   H3R 5450   0.111   0.491   6.495  2.5380  0.0834  0.9391
   66SAPC   H3S 5451   0.041   0.591   6.361  1.3442 -0.0496 -2.0118
   66SAPC   C24 5452   0.113   0.705   6.531  0.5441 -0.8113 -0.7620
   66SAPC   H4R 5453   0.151   0.798   6.483 -0.7978 -0.6139 -1.4923
   66SAPC   H4S 5454   0.178   0.689   6.620  1.0840 -0.5659 -1.1065
   66SAPC   C25 5455  -0.030   0.736   6.575 -0.0050 -0.4798  0.4068
   66SAPC   H5R 5456  -0.095   0.759   6.490  1.8673 -0.6730 -1.1374
   66SAPC   C26 5457  -0.068   0.750   6.700  0.1076  0.1003 -0.2133
   66SAPC   H6R 5458  -0.167   0.796   6.712  1.1796  2.5553 -0.1432
   66SAPC   C27 5459   0.008   0.733   6.831  0.2381  0.9064 -0.2903
   66SAPC   H7R 5460   0.075   0.646   6.820  0.3355  0.7277  1.3980
   66SAPC   H7S 5461  -0.063   0.694   6.908  2.7536 -1.4228  0.9946
   66SAPC   C28 5462   0.096   0.851   6.870 -0.1899 -0.9620 -0.6168
   66SAPC   H8R 5463   0.141   0.899   6.782  1.3843  1.1519  1.2359
   66SAPC   C29 5464   0.122   0.905   6.992 -0.1036 -0.5202 -0.8007
   66SAPC   H9R 5465   0.179   0.999   7.000 -2.5614  0.9213  5.1765
   66SAPC  C210 5466   0.067   0.862   7.129 -0.5484  0.2738  0.9083
   66SAPC  H10R 5467  -0.037   0.827   7.118 -0.0415 -1.1955  0.5043
   66SAPC  H10S 5468   0.069   0.952   7.194 -2.7921  1.1546 -0.1420
   66SAPC  C211 5469   0.126   0.731   7.178  0.2867  0.5308  0.4490
   66SAPC  H11R 5470   0.147   0.659   7.098 -1.7894  1.0049 -0.6030
   66SAPC  C212 5471   0.161   0.700   7.301 -0.4007 -0.0608 -1.1769
   66SAPC  H12R 5472   0.196   0.598   7.319  0.7052  0.3462 -0.9393
   66SAPC  C213 5473   0.149   0.784   7.428  0.6196  0.1570 -0.3693
   66SAPC  H13R 5474   0.114   0.717   7.509 -0.9988 -0.0231 -1.1703
   66SAPC  H13S 5475   0.070   0.863   7.419 -0.0119 -0.1612  1.7881
   66SAPC  C214 5476   0.273   0.834   7.489  0.2484 -0.1515 -0.6072
   66SAPC  H14R 5477   0.311   0.926   7.443  1.0206  0.1090  0.5204
   66SAPC  C215 5478   0.341   0.784   7.591 -0.1831 -0.1917  0.3173
   66SAPC  H15R 5479   0.423   0.848   7.627 -0.0908  0.2680 -0.6799
   66SAPC  C216 5480   0.327   0.657   7.666 -0.1918  0.0709  0.2189
   66SAPC  H16R 5481   0.426   0.629   7.706  0.6945 -2.0416 -3.0292
   66SAPC  H16S 5482   0.287   0.579   7.598  2.2445 -2.6990  1.7320
   66SAPC  C217 5483   0.232   0.660   7.791 -0.1671  0.1840 -0.7841
   66SAPC  H17R 5484   0.234   0.563   7.844  0.7673  0.2359 -0.7040
   66SAPC  H17S 5485   0.124   0.661   7.765 -0.6641 -1.7170  1.0097
   66SAPC  C218 5486   0.272   0.775   7.889  0.7835 -0.8077 -0.0807
   66SAPC  H18R 5487   0.253   0.880   7.859  2.1071 -0.1670  1.2605
   66SAPC  H18S 5488   0.383   0.769   7.890  0.7524 -2.0896 -0.9583
   66SAPC  C219 5489   0.225   0.754   8.031  0.4229  0.0622 -0.4485
   66SAPC  H19R 5490   0.245   0.646   8.050 -1.0303 -0.3254 -0.9478
   66SAPC  H19S 5491   0.115   0.767   8.043  0.2169 -0.5378 -1.4875
   66SAPC  C220 5492   0.283   0.861   8.124 -1.1296  0.2619  0.8217
   66SAPC  H20R 5493   0.253   0.841   8.229  2.7605  0.1839  2.0983
   66SAPC  H20S 5494   0.238   0.959   8.097 -1.1056  0.8597  2.7553
   66SAPC  H20T 5495   0.394   0.861   8.124 -1.0959 -1.3616 -0.6414
   66SAPC   C33 5496   0.746   0.261   6.487  0.4566 -0.6602 -0.0304
   66SAPC   H3X 5497   0.686   0.193   6.551  2.2557 -0.5663  1.8591
   66SAPC   H3Y 5498   0.721   0.364   6.517  1.3885 -0.6928  0.9146
   66SAPC   C34 5499   0.891   0.239   6.520 -0.0963 -0.2584  0.8904
   66SAPC   H4X 5500   0.942   0.309   6.452 -1.6802  1.7257  1.6356
   66SAPC   H4Y 5501   0.926   0.136   6.497  1.3709  0.4517 -0.1465
   66SAPC   C35 5502   0.934   0.270   6.664 -0.6487  0.3169  0.1792
   66SAPC   H5X 5503   0.872   0.208   6.732 -1.7364  1.1979  0.0217
   66SAPC   H5Y 5504   0.894   0.371   6.687  0.3633  0.6595  0.4998
   66SAPC   C36 5505   1.084   0.273   6.693 -0.4743  0.0470 -0.1651
   66SAPC   H6X 5506   1.123   0.364   6.643 -1.0311  0.5328  0.2665
   66SAPC   H6Y 5507   1.140   0.190   6.643 -1.5467  0.2451 -1.7678
   66SAPC   C37 5508   1.115   0.285   6.839  0.6908 -0.1454  0.3483
   66SAPC   H7X 5509   1.071   0.374   6.889 -1.9545 -1.3629  0.3781
   66SAPC   H7Y 5510   1.224   0.298   6.855  0.5159 -0.1478  1.7205
   66SAPC   C38 5511   1.066   0.164   6.916  0.0544  0.0796  1.1319
   66SAPC   H8X 5512   1.069   0.078   6.846 -2.0316 -0.0150  1.0677
   66SAPC   H8Y 5513   0.955   0.168   6.926 -0.2777 -3.5065  0.2122
   66SAPC   C39 5514   1.154   0.133   7.036  0.4055 -0.3683 -0.0709
   66SAPC   H9X 5515   1.256   0.115   6.997  0.7132 -1.8551  1.2898
   66SAPC   H9Y 5516   1.125   0.036   7.083  0.4897 -0.3206  0.0816
   66SAPC  C310 5517   1.168   0.251   7.140 -0.2193  0.1123  1.0307
   66SAPC  H10X 5518   1.070   0.302   7.153 -1.8556 -2.3095 -0.8101
   66SAPC  H10Y 5519   1.250   0.316   7.103 -1.2538  1.0106  0.2567
   66SAPC  C311 5520   1.197   0.199   7.278 -0.2787  0.6140  0.5520
   66SAPC  H11X 5521   1.228   0.288   7.337 -2.9186  2.1668 -0.2272
   66SAPC  H11Y 5522   1.290   0.137   7.280  0.4043  1.6161  1.7517
   66SAPC  C312 5523   1.077   0.137   7.346  0.1175 -0.0902  0.3164
   66SAPC  H12X 5524   1.048   0.047   7.287 -0.8351 -0.4302  1.2906
   66SAPC  H12Y 5525   0.993   0.209   7.353  0.8718  0.9766 -1.0215
   66SAPC  C313 5526   1.118   0.095   7.485  0.0547  0.1139 -0.3933
   66SAPC  H13X 5527   1.136   0.185   7.547 -2.3324  1.5729 -1.6810
   66SAPC  H13Y 5528   1.211   0.034   7.474  1.6039  2.7089 -3.1146
   66SAPC  C314 5529   1.019   0.013   7.561  0.2149 -0.1147 -1.0758
   66SAPC  H14X 5530   0.981  -0.073   7.502 -1.0575 -0.6768  0.4967
   66SAPC  H14Y 5531   0.927   0.069   7.588  0.9215 -1.0883  4.6488
   66SAPC  C315 5532   1.067  -0.057   7.692 -0.2023 -0.2036  0.9483
   66SAPC  H15X 5533   1.150  -0.129   7.674  0.0264 -0.0019  1.1746
   66SAPC  H15Y 5534   0.989  -0.126   7.731 -1.6512 -0.1925 -1.7047
   66SAPC  C316 5535   1.117   0.037   7.802  0.2962  0.3787 -0.0583
   66SAPC  H16X 5536   1.213   0.081   7.769 -0.6897  1.6999 -1.3273
   66SAPC  H16Y 5537   1.133  -0.019   7.896 -0.9252  0.7317  0.3804
   66SAPC  C317 5538   1.029   0.157   7.834  0.9826 -0.3547  0.1107
   66SAPC  H17X 5539   0.919   0.148   7.836  0.7710  1.7082  2.2027
   66SAPC  H17Y 5540   1.053   0.234   7.757  0.0461 -0.2965 -0.1288
   66SAPC  C318 5541   1.057   0.197   7.976 -0.3402  0.2995 -0.2439
   66SAPC  H18X 5542   1.040   0.111   8.044 -0.0431  0.5249  0.1205
   66SAPC  H18Y 5543   1.004   0.288   8.012 -1.8031  0.0964 -1.7560
   66SAPC  H18Z 5544   1.163   0.228   7.985 -0.7877  2.0194 -0.4585
   67SAPC     N 5545   1.182   2.382   6.180 -0.3068 -0.3946  0.2482
   67SAPC   C12 5546   1.163   2.335   6.326 -0.0819  0.4193 -0.3285
   67SAPC  H12A 5547   1.256   2.289   6.357 -0.5048  1.1039  2.1724
   67SAPC  H12B 5548   1.096   2.251   6.318 -0.2372  0.6525 -1.6647
   67SAPC   C13 5549   1.064   2.453   6.125 -0.0788  0.0917 -0.9964
   67SAPC  H13A 5550   0.990   2.378   6.099 -2.0845  0.5623  2.7041
   67SAPC  H13B 5551   1.013   2.521   6.192  1.8669  0.0689  0.6066
   67SAPC  H13C 5552   1.087   2.516   6.041 -0.5828  0.7708 -0.6372
   67SAPC   C14 5553   1.309   2.470   6.173 -0.2988  0.0487 -0.1395
   67SAPC  H14A 5554   1.325   2.487   6.067 -0.3775 -1.6629 -0.4660
   67SAPC  H14B 5555   1.288   2.563   6.223  1.3066  0.5987 -0.4393
   67SAPC  H14C 5556   1.394   2.433   6.227 -1.0070  1.2251  1.8662
   67SAPC   C15 5557   1.194   2.263   6.092 -0.6813  0.2612  0.5175
   67SAPC  H15A 5558   1.260   2.188   6.134 -2.7580 -0.4534  2.7288
   67SAPC  H15B 5559   1.110   2.196   6.084 -1.3357  1.1228  0.0177
   67SAPC  H15C 5560   1.225   2.295   5.993 -0.6388  1.7371  0.9771
   67SAPC   C11 5561   1.132   2.448   6.425  0.3537 -0.0509 -0.0224
   67SAPC  H11A 5562   1.207   2.530   6.416  0.9410 -0.6055 -0.2919
   67SAPC  H11B 5563   1.141   2.412   6.530 -1.4051  2.9552  1.3227
   67SAPC     P 5564   0.874   2.407   6.454  0.0815  0.2041 -0.1197
   67SAPC   O13 5565   0.819   2.456   6.585 -0.1087  0.4513  0.1771
   67SAPC   O14 5566   0.770   2.400   6.339  0.0302  0.3969  0.6035
   67SAPC   O12 5567   0.997   2.497   6.415 -0.1586  0.3761 -0.3419
   67SAPC   O11 5568   0.931   2.262   6.481  0.8733  0.2957  0.1418
   67SAPC    C1 5569   0.946   2.228   6.620  0.9479  0.2072 -0.0094
   67SAPC    HA 5570   1.043   2.174   6.632  0.3919 -0.9916 -0.6490
   67SAPC    HB 5571   0.940   2.311   6.693 -1.3138 -2.2004  2.7862
   67SAPC    C2 5572   0.827   2.133   6.661 -0.6327  0.1220 -0.3875
   67SAPC    HS 5573   0.730   2.186   6.649 -1.9295 -1.3878  2.4716
   67SAPC   O21 5574   0.851   2.099   6.797  0.0474 -0.1920 -0.2510
   67SAPC   C21 5575   0.744   2.116   6.882  0.7184 -0.6000  0.1941
   67SAPC   O22 5576   0.644   2.178   6.849 -0.0649  0.3533  0.3907
   67SAPC   C22 5577   0.783   2.075   7.021  0.1876 -0.0409  0.1454
   67SAPC   H2R 5578   0.853   1.990   7.005  0.2522  0.0822 -0.2437
   67SAPC   H2S 5579   0.862   2.146   7.054  1.2448 -0.0205 -2.2262
   67SAPC    C3 5580   0.822   2.011   6.574  0.1864 -0.4660 -0.0928
   67SAPC    HX 5581   0.910   1.949   6.600 -0.4339 -1.5427 -0.4760
   67SAPC    HY 5582   0.832   2.032   6.465  1.5915 -2.2789 -0.3770
   67SAPC   O31 5583   0.706   1.941   6.608 -0.2933  0.5353  0.1097
   67SAPC   C31 5584   0.712   1.803   6.606  0.0664 -0.7196  0.2212
   67SAPC   O32 5585   0.805   1.729   6.579  0.5928 -0.2822  0.3194
   67SAPC   C32 5586   0.568   1.750   6.645  0.1582 -0.0937  0.3118
   67SAPC   H2X 5587   0.567   1.643   6.615  2.4836  0.7495 -3.4434
   67SAPC   H2Y 5588   0.497   1.803   6.580 -0.5912  0.3861  1.4897
   67SAPC   C23 5589   0.668   2.044   7.107  0.0541 -0.8559  0.6383
   67SAPC   H3R 5590   0.610   1.961   7.062 -2.4736  1.8764 -1.5556
   67SAPC   H3S 5591   0.596   2.128   7.117  1.4381  0.8908 -2.4996
   67SAPC   C24 5592   0.703   1.992   7.248  0.1926  0.2143 -0.4782
   67SAPC   H4R 5593   0.753   2.079   7.294 -3.0908  1.9714  0.0759
   67SAPC   H4S 5594   0.778   1.913   7.227 -0.4674  0.1230 -2.8811
   67SAPC   C25 5595   0.583   1.947   7.329 -0.1091 -0.9332 -0.1450
   67SAPC   H5R 5596   0.524   1.864   7.288 -0.6992 -0.4493 -0.2876
   67SAPC   C26 5597   0.549   2.003   7.444  0.2344  0.4117  0.4232
   67SAPC   H6R 5598   0.460   1.964   7.495  1.0839 -1.3100  0.7046
   67SAPC   C27 5599   0.612   2.121   7.512  0.5308  0.2759  0.5051
   67SAPC   H7R 5600   0.583   2.217   7.463 -1.5509  0.9301  2.8270
   67SAPC   H7S 5601   0.723   2.108   7.509  0.8435  2.4563  0.3540
   67SAPC   C28 5602   0.560   2.152   7.650  0.6318  0.5925  0.1983
   67SAPC   H8R 5603   0.489   2.236   7.653 -0.4989 -0.3486  1.9711
   67SAPC   C29 5604   0.590   2.100   7.770  0.2101  0.1927  0.0375
   67SAPC   H9R 5605   0.552   2.139   7.865 -0.8106 -1.6450  0.4239
   67SAPC  C210 5606   0.698   1.998   7.777  0.2471 -0.1281 -0.4973
   67SAPC  H10R 5607   0.724   1.957   7.677  1.1965 -0.7850  0.0049
   67SAPC  H10S 5608   0.661   1.912   7.838  0.0440  1.9656  2.5102
   67SAPC  C211 5609   0.825   2.043   7.840 -0.1017  0.4363 -0.5331
   67SAPC  H11R 5610   0.871   2.127   7.786 -0.3451 -0.3404 -2.0269
   67SAPC  C212 5611   0.889   1.986   7.941  0.2967  0.0024  0.1152
   67SAPC  H12R 5612   0.974   2.043   7.982 -1.2804  2.8940 -0.3881
   67SAPC  C213 5613   0.838   1.860   8.019 -0.5566 -0.5258 -0.0820
   67SAPC  H13R 5614   0.728   1.862   8.034 -0.3511 -3.1946  3.0309
   67SAPC  H13S 5615   0.880   1.865   8.121 -1.4328  0.1711  0.2565
   67SAPC  C214 5616   0.876   1.732   7.949  0.3833  0.3207  0.6910
   67SAPC  H14R 5617   0.966   1.733   7.887 -0.8296 -0.4910 -1.1915
   67SAPC  C215 5618   0.816   1.615   7.969 -0.1699  0.3425  0.8709
   67SAPC  H15R 5619   0.840   1.529   7.904 -2.5116  0.0832  0.2597
   67SAPC  C216 5620   0.701   1.593   8.064  0.1795  0.5762  1.3514
   67SAPC  H16R 5621   0.609   1.549   8.019 -0.5379  1.2636  2.1001
   67SAPC  H16S 5622   0.666   1.690   8.106  0.0930  0.5714  1.2910
   67SAPC  C217 5623   0.743   1.512   8.179 -0.4309  0.5748 -0.4953
   67SAPC  H17R 5624   0.845   1.543   8.210 -0.4721  0.3352 -0.1119
   67SAPC  H17S 5625   0.742   1.403   8.158 -0.3758  0.1186  1.5909
   67SAPC  C218 5626   0.649   1.558   8.288  0.1616  0.0852  0.0386
   67SAPC  H18R 5627   0.545   1.525   8.271  0.9624 -2.6000 -0.0004
   67SAPC  H18S 5628   0.652   1.667   8.312  0.0036 -0.2831  1.8632
   67SAPC  C219 5629   0.678   1.475   8.414  0.5336  0.0100  0.2619
   67SAPC  H19R 5630   0.782   1.485   8.453  0.3259 -2.7125  1.7756
   67SAPC  H19S 5631   0.665   1.368   8.388 -2.8845  0.7612 -1.7380
   67SAPC  C220 5632   0.585   1.503   8.526 -0.0070 -0.6430  0.2655
   67SAPC  H20R 5633   0.581   1.610   8.557  0.1960 -0.8325  0.9601
   67SAPC  H20S 5634   0.617   1.450   8.618 -1.2134 -3.9632 -1.0850
   67SAPC  H20T 5635   0.485   1.475   8.488  0.2603 -0.4086 -0.6427
   67SAPC   C33 5636   0.518   1.772   6.792 -0.8493 -0.1287  0.3552
   67SAPC   H3X 5637   0.408   1.768   6.778 -1.0033  0.1669  1.3519
   67SAPC   H3Y 5638   0.536   1.876   6.826  0.4612  0.1881 -1.1887
   67SAPC   C34 5639   0.587   1.681   6.893  0.1369  0.1898  0.1234
   67SAPC   H4X 5640   0.693   1.698   6.922  0.7643 -1.4799 -1.0205
   67SAPC   H4Y 5641   0.587   1.573   6.866 -1.1188 -0.2192  1.6238
   67SAPC   C35 5642   0.519   1.670   7.031  0.1856 -0.2839  0.3285
   67SAPC   H5X 5643   0.418   1.625   7.026 -0.6445  1.5799 -0.8239
   67SAPC   H5Y 5644   0.493   1.770   7.071  1.7810 -0.4657  1.9774
   67SAPC   C36 5645   0.615   1.601   7.133 -0.4249 -0.0340 -0.3957
   67SAPC   H6X 5646   0.699   1.673   7.142  0.8487 -1.5871  0.7057
   67SAPC   H6Y 5647   0.655   1.507   7.090  2.5255  0.5817  0.7731
   67SAPC   C37 5648   0.535   1.581   7.266  0.5735  0.6054  0.3566
   67SAPC   H7X 5649   0.447   1.519   7.239  0.2179  2.3684 -2.9931
   67SAPC   H7Y 5650   0.489   1.676   7.300  0.7903  0.1551  1.9883
   67SAPC   C38 5651   0.621   1.527   7.379 -0.0253 -0.4284  0.3701
   67SAPC   H8X 5652   0.693   1.611   7.397  0.2761 -0.1760 -1.7582
   67SAPC   H8Y 5653   0.698   1.452   7.351  1.0169  0.7192  0.0442
   67SAPC   C39 5654   0.541   1.493   7.509  0.4134 -0.3465  0.3107
   67SAPC   H9X 5655   0.619   1.462   7.582  0.2553 -0.7483  0.3139
   67SAPC   H9Y 5656   0.473   1.406   7.497  1.2223 -1.0301  0.6280
   67SAPC  C310 5657   0.464   1.616   7.565 -0.4197  0.5732 -0.0914
   67SAPC  H10X 5658   0.371   1.634   7.506 -1.2054  1.5486  1.3749
   67SAPC  H10Y 5659   0.532   1.703   7.561  1.1766 -0.4994  1.9351
   67SAPC  C311 5660   0.420   1.595   7.709  0.2752 -0.1537 -0.0287
   67SAPC  H11X 5661   0.501   1.574   7.782  0.1311 -0.9444 -0.0816
   67SAPC  H11Y 5662   0.353   1.508   7.694  3.6623 -3.3190  1.5296
   67SAPC  C312 5663   0.350   1.727   7.756  0.1129 -0.7326  0.1627
   67SAPC  H12X 5664   0.247   1.735   7.714 -0.4904 -2.8953  1.1264
   67SAPC  H12Y 5665   0.416   1.807   7.715  0.8165 -0.7441  1.2296
   67SAPC  C313 5666   0.352   1.744   7.910 -0.0757  0.2903 -0.0785
   67SAPC  H13X 5667   0.329   1.851   7.926 -1.2002  0.1545 -0.6909
   67SAPC  H13Y 5668   0.445   1.717   7.964 -0.1253 -1.0137 -0.5997
   67SAPC  C314 5669   0.240   1.663   7.974 -0.3513 -0.8843 -0.3223
   67SAPC  H14X 5670   0.255   1.555   7.952  0.6776 -0.2145 -3.3875
   67SAPC  H14Y 5671   0.137   1.690   7.944 -0.6775 -0.7545  0.8851
   67SAPC  C315 5672   0.240   1.691   8.125  0.3274  0.5805  0.5163
   67SAPC  H15X 5673   0.208   1.796   8.141 -0.7099  0.6711 -1.8348
   67SAPC  H15Y 5674   0.347   1.684   8.154  0.6241  1.7060 -0.2488
   67SAPC  C316 5675   0.157   1.597   8.204 -0.5142  0.0750 -0.6441
   67SAPC  H16X 5676   0.184   1.490   8.188 -1.9734 -0.7085  1.5720
   67SAPC  H16Y 5677   0.059   1.613   8.156  0.3343  2.1753 -1.8046
   67SAPC  C317 5678   0.158   1.632   8.351  0.1881  0.4084  0.0464
   67SAPC  H17X 5679   0.097   1.725   8.357 -1.4913 -0.7053  0.9936
   67SAPC  H17Y 5680   0.260   1.646   8.393  0.2519 -0.1779  0.0900
   67SAPC  C318 5681   0.085   1.542   8.444  0.0168  0.1161  0.2091
   67SAPC  H18X 5682  -0.011   1.503   8.404  0.9007 -1.8540 -0.1255
   67SAPC  H18Y 5683   0.052   1.602   8.531 -0.2485  0.7990 -0.3616
   67SAPC  H18Z 5684   0.142   1.459   8.494  0.3469 -0.4100 -1.0135
   68SAPC     N 5685   6.039   1.716   6.041  0.7057  0.2201  0.9953
   68SAPC   C12 5686   6.157   1.809   6.081  1.0440  0.6837 -0.7161
   68SAPC  H12A 5687   6.180   1.785   6.184 -2.3417 -1.0238 -0.2307
   68SAPC  H12B 5688   6.123   1.911   6.088 -0.3734  0.2581 -1.0580
   68SAPC   C13 5689   5.918   1.739   6.129 -0.2214 -0.4264  0.1532
   68SAPC  H13A 5690   5.941   1.705   6.229 -0.1692 -1.3714 -0.1722
   68SAPC  H13B 5691   5.907   1.845   6.147  0.7607  0.1944 -2.4750
   68SAPC  H13C 5692   5.825   1.700   6.091  0.6126 -2.4359  0.0292
   68SAPC   C14 5693   5.999   1.731   5.901 -0.2089 -0.5129  0.4890
   68SAPC  H14A 5694   6.080   1.702   5.836  0.0722  1.5413 -0.1400
   68SAPC  H14B 5695   5.911   1.679   5.867 -0.7486  0.7849 -0.1578
   68SAPC  H14C 5696   5.978   1.833   5.874 -0.1069  0.0264  2.3202
   68SAPC   C15 5697   6.082   1.574   6.054 -0.1440  0.0141  0.4939
   68SAPC  H15A 5698   6.013   1.517   5.993 -2.1816  1.3018  1.4891
   68SAPC  H15B 5699   6.178   1.554   6.007  0.0116  0.3489  0.6670
   68SAPC  H15C 5700   6.074   1.527   6.151  0.3711 -0.5971  0.2540
   68SAPC   C11 5701   6.279   1.805   5.982 -0.1676 -0.1849 -0.3672
   68SAPC  H11A 5702   6.333   1.896   6.016 -2.1480  0.6311  0.7898
   68SAPC  H11B 5703   6.237   1.812   5.879  1.2303  0.7455 -0.9077
   68SAPC     P 5704   6.503   1.700   6.049 -0.1403 -0.1367 -0.1469
   68SAPC   O13 5705   6.540   1.556   6.071  0.1043 -0.4405  0.0724
   68SAPC   O14 5706   6.596   1.776   5.959  0.2226  0.3741 -0.8908
   68SAPC   O12 5707   6.359   1.684   5.989 -0.1748  0.0311 -0.0339
   68SAPC   O11 5708   6.486   1.763   6.194 -1.0106  0.0295 -0.4743
   68SAPC    C1 5709   6.432   1.683   6.296  0.5465  0.2086 -0.0942
   68SAPC    HA 5710   6.323   1.668   6.279  0.9923 -2.2764 -1.0469
   68SAPC    HB 5711   6.479   1.583   6.294  2.8569  1.2337  0.0297
   68SAPC    C2 5712   6.440   1.734   6.438 -0.1258 -0.5296  0.0212
   68SAPC    HS 5713   6.380   1.667   6.503 -0.2889 -0.0959  0.3280
   68SAPC   O21 5714   6.398   1.874   6.455  0.3233 -0.6892 -0.0180
   68SAPC   C21 5715   6.269   1.901   6.461 -0.2993 -0.3451  0.0402
   68SAPC   O22 5716   6.175   1.826   6.438 -0.2617 -0.0932 -0.6325
   68SAPC   C22 5717   6.251   2.045   6.509  0.1025 -0.3473 -0.6436
   68SAPC   H2R 5718   6.320   2.061   6.594  1.8268 -2.2439 -1.5952
   68SAPC   H2S 5719   6.268   2.119   6.428  2.7505  0.7274  0.7680
   68SAPC    C3 5720   6.587   1.739   6.480  0.2696  0.7959  0.1763
   68SAPC    HX 5721   6.643   1.819   6.428 -0.1187  0.4932 -0.7307
   68SAPC    HY 5722   6.635   1.639   6.467  0.8993  0.7937  2.1842
   68SAPC   O31 5723   6.579   1.756   6.623 -0.2083  0.0613  0.2578
   68SAPC   C31 5724   6.611   1.883   6.666  0.5381  0.0942 -0.2601
   68SAPC   O32 5725   6.653   1.972   6.598  0.0581 -0.3674  0.6270
   68SAPC   C32 5726   6.580   1.892   6.818 -0.6959  0.4636 -0.5702
   68SAPC   H2X 5727   6.676   1.865   6.868 -0.5801 -0.7592 -1.3952
   68SAPC   H2Y 5728   6.508   1.811   6.843  2.0662 -1.8112  0.6118
   68SAPC   C23 5729   6.110   2.075   6.557  0.3140  0.1594  0.7415
   68SAPC   H3R 5730   6.087   2.006   6.641 -0.3445 -2.0078 -1.1206
   68SAPC   H3S 5731   6.027   2.045   6.490  0.6126 -2.2748  1.3567
   68SAPC   C24 5732   6.101   2.225   6.598  0.3376  0.6570  0.3234
   68SAPC   H4R 5733   5.997   2.250   6.628  1.0305  1.3857  2.2808
   68SAPC   H4S 5734   6.126   2.289   6.511  0.0632  2.2350  1.3817
   68SAPC   C25 5735   6.203   2.260   6.701 -0.0444  0.3096 -0.0683
   68SAPC   H5R 5736   6.304   2.237   6.666 -0.5255 -0.3148 -1.0692
   68SAPC   C26 5737   6.191   2.325   6.817  0.2551  0.1219  0.1222
   68SAPC   H6R 5738   6.276   2.324   6.887  0.7009  0.3318 -0.4084
   68SAPC   C27 5739   6.056   2.372   6.876 -1.3389  0.2909  0.3934
   68SAPC   H7R 5740   6.080   2.391   6.983 -2.1285  1.2328  0.4199
   68SAPC   H7S 5741   5.977   2.295   6.871 -1.7203  0.7476 -2.1835
   68SAPC   C28 5742   5.997   2.495   6.810 -0.1324 -0.3675 -0.0597
   68SAPC   H8R 5743   5.913   2.480   6.741 -0.5165  2.3196 -0.2903
   68SAPC   C29 5744   6.026   2.625   6.845 -0.0911  0.6494  0.6778
   68SAPC   H9R 5745   5.977   2.697   6.778 -2.3442 -1.2756  0.1476
   68SAPC  C210 5746   6.120   2.674   6.949 -0.1897 -0.0399 -0.1715
   68SAPC  H10R 5747   6.158   2.599   7.022 -0.5374 -0.9084 -0.8610
   68SAPC  H10S 5748   6.066   2.739   7.021 -0.8704  1.9457 -2.3446
   68SAPC  C211 5749   6.228   2.761   6.893 -0.0899 -0.0882  0.0337
   68SAPC  H11R 5750   6.248   2.757   6.785 -0.8008  1.1739 -0.1614
   68SAPC  C212 5751   6.294   2.857   6.960  0.6824  0.1831  0.4628
   68SAPC  H12R 5752   6.375   2.908   6.906  0.7516  1.1771  1.4734
   68SAPC  C213 5753   6.285   2.890   7.104 -0.5746 -0.1030 -0.8629
   68SAPC  H13R 5754   6.188   2.941   7.124 -0.8381 -0.2787 -1.6492
   68SAPC  H13S 5755   6.366   2.963   7.122 -1.6138  0.7374  0.6110
   68SAPC  C214 5756   6.313   2.785   7.210  0.3580  0.1776 -0.4164
   68SAPC  H14R 5757   6.361   2.688   7.188  1.7110 -0.2328  3.4814
   68SAPC  C215 5758   6.276   2.787   7.340  0.3679 -0.2957  0.2517
   68SAPC  H15R 5759   6.302   2.703   7.407 -0.5463 -0.5072  0.3617
   68SAPC  C216 5760   6.202   2.898   7.403 -0.2906 -0.0904  0.3027
   68SAPC  H16R 5761   6.105   2.856   7.438  0.7887 -2.1989  0.9197
   68SAPC  H16S 5762   6.201   2.990   7.341  0.9085  1.3178  2.2581
   68SAPC  C217 5763   6.282   2.934   7.534 -0.1564 -0.0295 -0.7427
   68SAPC  H17R 5764   6.242   3.033   7.565  0.4716  0.5243 -1.6450
   68SAPC  H17S 5765   6.391   2.936   7.510 -0.2770 -1.3127 -1.4635
   68SAPC  C218 5766   6.269   2.840   7.656 -0.2713  0.4674  0.2840
   68SAPC  H18R 5767   6.325   2.745   7.645  1.8322  1.6897  0.0046
   68SAPC  H18S 5768   6.159   2.822   7.660 -0.5204  2.0053  1.3534
   68SAPC  C219 5769   6.318   2.906   7.789 -0.5864  0.4437  0.0804
   68SAPC  H19R 5770   6.427   2.885   7.783 -0.7205 -0.0920 -0.5053
   68SAPC  H19S 5771   6.267   2.848   7.869 -2.0753  0.7570 -0.6138
   68SAPC  C220 5772   6.288   3.050   7.815  0.2947  0.1365  0.0594
   68SAPC  H20R 5773   6.351   3.108   7.745 -0.2940 -0.6084 -1.1185
   68SAPC  H20S 5774   6.323   3.077   7.917  0.2368 -0.8819  0.3612
   68SAPC  H20T 5775   6.182   3.079   7.797 -0.0146  0.2516  1.8487
   68SAPC   C33 5776   6.547   2.032   6.874 -0.9188 -0.4080 -0.1591
   68SAPC   H3X 5777   6.446   2.067   6.841 -1.0039  0.5090  1.0025
   68SAPC   H3Y 5778   6.623   2.105   6.837  0.9777 -2.0438  0.3648
   68SAPC   C34 5779   6.563   2.050   7.023 -0.2271  0.4397 -0.2132
   68SAPC   H4X 5780   6.544   2.158   7.045  0.8864  0.8252 -1.0263
   68SAPC   H4Y 5781   6.664   2.027   7.062 -1.0500 -1.6780  0.8252
   68SAPC   C35 5782   6.446   1.982   7.104 -0.5885  0.2818 -0.1578
   68SAPC   H5X 5783   6.448   1.872   7.092  4.8482  0.1761 -0.5408
   68SAPC   H5Y 5784   6.347   2.019   7.068  0.2674 -0.1562 -3.2037
   68SAPC   C36 5785   6.455   2.015   7.252  0.0633 -0.3614 -0.1046
   68SAPC   H6X 5786   6.564   2.019   7.275 -0.0359 -1.3400  0.6064
   68SAPC   H6Y 5787   6.411   1.933   7.313 -2.2002  0.3703 -0.6414
   68SAPC   C37 5788   6.400   2.152   7.297 -0.6833  0.3981  0.1281
   68SAPC   H7X 5789   6.315   2.189   7.237 -0.4879 -1.3526 -1.3348
   68SAPC   H7Y 5790   6.477   2.228   7.275  1.3891 -1.2784  1.2109
   68SAPC   C38 5791   6.379   2.169   7.450 -0.3975  0.7709  0.0164
   68SAPC   H8X 5792   6.336   2.269   7.472 -0.5075  0.3445  1.8389
   68SAPC   H8Y 5793   6.481   2.170   7.494  0.1171 -2.5113 -0.8252
   68SAPC   C39 5794   6.291   2.068   7.519 -0.6931 -0.1773  0.6946
   68SAPC   H9X 5795   6.343   1.970   7.516 -0.3336  0.0247 -1.6003
   68SAPC   H9Y 5796   6.198   2.059   7.459 -0.6590 -0.5278  0.6934
   68SAPC  C310 5797   6.259   2.097   7.664  0.5276 -0.8323 -0.0862
   68SAPC  H10X 5798   6.187   2.018   7.693  0.1493 -0.5983 -0.3819
   68SAPC  H10Y 5799   6.199   2.188   7.689  1.6884  0.4591 -1.7854
   68SAPC  C311 5800   6.384   2.086   7.742 -0.9087  0.2030  0.2775
   68SAPC  H11X 5801   6.461   2.162   7.714 -0.3819 -0.1440  0.7610
   68SAPC  H11Y 5802   6.441   1.991   7.740  1.4126  1.5127  0.0010
   68SAPC  C312 5803   6.356   2.114   7.894  0.0505  0.2230 -0.0445
   68SAPC  H12X 5804   6.276   2.187   7.916 -0.6239 -0.7252  0.7356
   68SAPC  H12Y 5805   6.445   2.144   7.952  0.4991  1.8834 -1.5132
   68SAPC  C313 5806   6.304   1.984   7.964  0.3594  0.0369 -0.1279
   68SAPC  H13X 5807   6.390   1.924   8.000  1.2238  1.1444 -0.2777
   68SAPC  H13Y 5808   6.241   1.926   7.894 -1.4635  0.0577  1.4048
   68SAPC  C314 5809   6.215   2.018   8.094  0.2285  0.2572  0.7713
   68SAPC  H14X 5810   6.173   1.917   8.113 -0.0199  0.1224 -0.4203
   68SAPC  H14Y 5811   6.132   2.080   8.054 -0.6605 -0.3764  1.5921
   68SAPC  C315 5812   6.285   2.074   8.215  0.3929 -0.7611  0.1087
   68SAPC  H15X 5813   6.318   2.180   8.204 -1.4358 -0.1706 -0.0232
   68SAPC  H15Y 5814   6.374   2.010   8.230  1.1369 -0.1862 -1.6224
   68SAPC  C316 5815   6.185   2.075   8.333 -0.0476  0.0068 -0.6018
   68SAPC  H16X 5816   6.114   1.990   8.342  0.5051 -0.2429  2.5154
   68SAPC  H16Y 5817   6.117   2.160   8.310  0.1045 -0.3199 -2.3976
   68SAPC  C317 5818   6.254   2.089   8.479 -0.2584  0.8847  0.3470
   68SAPC  H17X 5819   6.308   1.995   8.501 -2.0196  0.2169  2.1683
   68SAPC  H17Y 5820   6.179   2.097   8.562  1.7402  1.7320  2.1632
   68SAPC  C318 5821   6.337   2.209   8.494 -0.4012  0.0891  0.1276
   68SAPC  H18X 5822   6.431   2.178   8.543 -1.5707 -2.2335  1.0643
   68SAPC  H18Y 5823   6.295   2.285   8.564 -0.0249 -1.9208  2.6641
   68SAPC  H18Z 5824   6.364   2.256   8.397  0.7233  0.4646  0.6007
   69SLPC     N 5825   2.075   2.954  10.786 -0.5023  0.8874  0.5790
   69SLPC   C13 5826   2.063   2.981  10.937 -0.2854  0.1330 -0.5743
   69SLPC  H13A 5827   2.150   3.040  10.960  0.1344 -0.2510 -1.1358
   69SLPC  H13B 5828   1.975   3.039  10.962  0.3035  0.7320  0.1311
   69SLPC  H13C 5829   2.068   2.892  10.998  2.1119  0.9027  0.4503
   69SLPC   C14 5830   2.112   3.087  10.731 -0.2105 -0.0300 -0.4900
   69SLPC  H14A 5831   2.209   3.129  10.757 -0.2551  0.9343 -1.8086
   69SLPC  H14B 5832   2.095   3.079  10.625  1.5473 -1.8619 -0.6998
   69SLPC  H14C 5833   2.046   3.169  10.754  1.8412  1.2515  1.2115
   69SLPC   C15 5834   1.942   2.921  10.724  0.1574 -0.9269  1.0210
   69SLPC  H15A 5835   1.858   2.973  10.768 -1.6817 -2.3772 -0.5740
   69SLPC  H15B 5836   1.934   2.942  10.618 -0.3443  0.5537  1.3142
   69SLPC  H15C 5837   1.911   2.821  10.750 -0.6433 -0.5799  1.4338
   69SLPC   C12 5838   2.182   2.848  10.762  0.0813 -0.0291 -0.5182
   69SLPC  H12A 5839   2.159   2.746  10.787  3.5205 -1.0672 -1.0421
   69SLPC  H12B 5840   2.268   2.879  10.820  2.4414 -0.0565 -3.7563
   69SLPC   C11 5841   2.227   2.841  10.610  0.3062 -0.2696  0.3080
   69SLPC  H11A 5842   2.136   2.836  10.547  0.7180  0.8272 -0.4002
   69SLPC  H11B 5843   2.276   2.743  10.593  0.2643 -1.0017  3.6833
   69SLPC     P 5844   2.451   2.980  10.602 -0.0465  0.4035 -0.3729
   69SLPC   O13 5845   2.503   3.091  10.522  0.0642  0.6756  0.5002
   69SLPC   O14 5846   2.460   2.993  10.750  0.4296  0.0117 -0.1870
   69SLPC   O12 5847   2.302   2.952  10.560 -0.5851  0.5510  0.2267
   69SLPC   O11 5848   2.532   2.849  10.558  0.6257  0.8451  0.5758
   69SLPC    C1 5849   2.507   2.767  10.442 -0.4346  0.3208 -0.1183
   69SLPC    HA 5850   2.465   2.670  10.475  0.9139 -0.5437 -0.8809
   69SLPC    HB 5851   2.419   2.806  10.387 -0.8632 -0.0277  0.3143
   69SLPC    C2 5852   2.631   2.761  10.343 -0.0032 -0.5510  0.0325
   69SLPC    HS 5853   2.713   2.817  10.393  1.3037 -2.2936 -0.0486
   69SLPC   O21 5854   2.600   2.826  10.219 -0.6482 -0.5086 -0.7055
   69SLPC   C21 5855   2.699   2.891  10.157  0.1672 -0.0005  0.8146
   69SLPC   O22 5856   2.817   2.889  10.190  0.9236 -0.2042 -0.0071
   69SLPC   C22 5857   2.639   2.958  10.038  0.1112 -0.2262 -0.2590
   69SLPC   H2R 5858   2.575   2.894   9.973 -0.5268  1.2128 -1.0952
   69SLPC   H2S 5859   2.568   3.036  10.072 -1.5472 -2.0229  0.5855
   69SLPC    C3 5860   2.670   2.605  10.323  0.5470 -0.4771 -0.0231
   69SLPC    HX 5861   2.702   2.572  10.424  3.1776  2.5192  0.2809
   69SLPC    HY 5862   2.755   2.589  10.253  0.0111 -2.0974 -0.3481
   69SLPC   O31 5863   2.559   2.537  10.265  0.4468 -0.1621  0.2378
   69SLPC   C31 5864   2.495   2.445  10.338 -0.2167  1.0383  0.2348
   69SLPC   O32 5865   2.523   2.413  10.448 -0.4788 -0.3526  0.2364
   69SLPC   C32 5866   2.367   2.394  10.267 -0.2574 -0.3726  0.1907
   69SLPC   H2X 5867   2.369   2.443  10.167 -1.8764 -2.6636 -1.0402
   69SLPC   H2Y 5868   2.279   2.432  10.322  0.7956 -1.1243  2.5151
   69SLPC   C23 5869   2.750   3.015   9.946  0.2197 -0.2088  0.1743
   69SLPC   H3R 5870   2.813   3.070  10.019 -1.6897  1.6724  0.5240
   69SLPC   H3S 5871   2.695   3.093   9.890  2.9134 -0.5981 -3.3164
   69SLPC   C24 5872   2.824   2.904   9.869 -0.1814  0.2860  0.4497
   69SLPC   H4R 5873   2.759   2.840   9.805  2.2037  0.1074 -1.9986
   69SLPC   H4S 5874   2.905   2.857   9.929  0.2258  0.5223  0.0939
   69SLPC   C25 5875   2.903   2.981   9.754 -0.1779  0.0631 -1.2423
   69SLPC   H5R 5876   2.955   3.061   9.812 -1.1213 -1.2787  1.6533
   69SLPC   H5S 5877   2.827   3.024   9.686 -0.0263  0.8697 -0.9149
   69SLPC   C26 5878   3.002   2.902   9.671 -0.9766  0.9341  0.5294
   69SLPC   H6R 5879   3.072   2.851   9.741 -2.1610 -2.7630 -0.7463
   69SLPC   H6S 5880   3.067   2.976   9.620  1.0725 -0.9988  0.1678
   69SLPC   C27 5881   2.936   2.795   9.582 -0.1949 -0.0262 -0.5021
   69SLPC   H7R 5882   2.838   2.767   9.627  1.2597 -2.0996  1.6687
   69SLPC   H7S 5883   3.001   2.704   9.582  0.2513  0.2260 -2.6200
   69SLPC   C28 5884   2.905   2.838   9.436  0.5809  0.2967  0.2265
   69SLPC   H8R 5885   2.838   2.926   9.432  0.6486  0.3408  0.0405
   69SLPC   H8S 5886   2.842   2.754   9.400  0.7996  0.0669  0.3736
   69SLPC   C29 5887   3.044   2.860   9.370 -0.6558 -0.3423  0.3790
   69SLPC   H9R 5888   3.090   2.955   9.401 -1.9572  0.1587  0.8465
   69SLPC  C210 5889   3.118   2.794   9.275 -0.6789  0.8446 -0.3022
   69SLPC  H10R 5890   3.213   2.840   9.244 -0.5431  0.6194 -0.2209
   69SLPC  C211 5891   3.063   2.668   9.209 -0.5232 -1.0356 -0.5388
   69SLPC  H11R 5892   3.007   2.684   9.115 -0.4558  0.9515 -0.2819
   69SLPC  H11S 5893   2.983   2.618   9.267 -2.1632  0.2104 -1.6476
   69SLPC  C212 5894   3.166   2.561   9.189  0.0164 -0.4290 -0.1085
   69SLPC  H12R 5895   3.175   2.483   9.266  2.9463  0.6070  0.7643
   69SLPC  C213 5896   3.243   2.558   9.084 -0.1441 -0.1662 -0.3274
   69SLPC  H13R 5897   3.295   2.462   9.071  0.0469  0.0024 -0.8151
   69SLPC  C214 5898   3.244   2.646   8.964 -0.3897 -0.3657  0.6867
   69SLPC  H14R 5899   3.226   2.749   9.000 -0.8242  0.2261 -1.1379
   69SLPC  H14S 5900   3.167   2.621   8.888  0.6421 -1.3744 -0.0707
   69SLPC  C215 5901   3.388   2.640   8.895  0.5971 -0.2549 -0.2006
   69SLPC  H15R 5902   3.468   2.657   8.971  0.9900 -1.7204 -0.2671
   69SLPC  H15S 5903   3.398   2.725   8.825  1.1214  0.9866  1.2998
   69SLPC  C216 5904   3.412   2.514   8.821 -0.1624  0.1597 -0.3651
   69SLPC  H16R 5905   3.331   2.492   8.748  0.0816 -1.1546 -0.2552
   69SLPC  H16S 5906   3.383   2.432   8.891  1.5923 -0.1529  0.0344
   69SLPC  C217 5907   3.552   2.488   8.758 -0.1642  0.5093 -0.0042
   69SLPC  H17R 5908   3.638   2.528   8.817 -0.9163  2.8389 -0.3562
   69SLPC  H17S 5909   3.557   2.557   8.671  2.1246  2.0607  1.2357
   69SLPC  C218 5910   3.579   2.338   8.703 -0.0961 -0.7287 -1.0093
   69SLPC  H18R 5911   3.587   2.256   8.778 -3.0288 -1.1893 -1.0904
   69SLPC  H18S 5912   3.669   2.334   8.638  0.9318  2.2085  0.0686
   69SLPC  H18T 5913   3.479   2.315   8.661 -1.3864  0.5125  1.1748
   69SLPC   C33 5914   2.356   2.239  10.244  0.0349 -0.7736 -0.0571
   69SLPC   H3X 5915   2.249   2.213  10.228  0.8878 -3.1765 -2.7220
   69SLPC   H3Y 5916   2.396   2.183  10.331 -0.4494  1.9333  2.0274
   69SLPC   C34 5917   2.440   2.184  10.125  0.2592  0.0412  0.4227
   69SLPC   H4X 5918   2.422   2.077  10.149 -2.0895  0.0781 -0.9207
   69SLPC   H4Y 5919   2.544   2.221  10.133 -0.2611  1.2706  2.3972
   69SLPC   C35 5920   2.390   2.224   9.984  0.6349  0.8393  0.4209
   69SLPC   H5X 5921   2.400   2.333   9.964  1.1545  0.5240 -1.2186
   69SLPC   H5Y 5922   2.284   2.190   9.978  1.2522 -0.9260 -1.4734
   69SLPC   C36 5923   2.447   2.145   9.858 -0.5926  0.2186 -0.0667
   69SLPC   H6X 5924   2.463   2.040   9.891  0.3250 -0.0178 -1.2114
   69SLPC   H6Y 5925   2.551   2.184   9.852 -0.2478 -0.6766  0.0010
   69SLPC   C37 5926   2.388   2.172   9.717 -0.3865  0.3906 -1.1677
   69SLPC   H7X 5927   2.364   2.280   9.701 -0.5806  0.5172 -0.1300
   69SLPC   H7Y 5928   2.289   2.122   9.713 -0.9027  1.3722 -1.2019
   69SLPC   C38 5929   2.484   2.130   9.605  0.1884  0.2085 -0.8278
   69SLPC   H8X 5930   2.526   2.029   9.629  0.6964  0.8380  1.1967
   69SLPC   H8Y 5931   2.566   2.203   9.622 -1.6548  2.5214 -1.4018
   69SLPC   C39 5932   2.418   2.153   9.471 -0.5547  0.0287  0.4413
   69SLPC   H9X 5933   2.389   2.260   9.469 -1.5209 -0.2239 -0.9785
   69SLPC   H9Y 5934   2.324   2.094   9.471 -1.8747  2.0543  0.8164
   69SLPC  C310 5935   2.506   2.123   9.356 -0.6210 -0.2598  0.3833
   69SLPC  H10X 5936   2.537   2.017   9.372 -2.5869 -0.8423  0.5776
   69SLPC  H10Y 5937   2.587   2.199   9.358 -2.6694  2.0821 -1.0899
   69SLPC  C311 5938   2.435   2.147   9.217 -0.2670 -0.2000  0.6075
   69SLPC  H11X 5939   2.384   2.245   9.207 -0.5852 -0.4885 -0.8066
   69SLPC  H11Y 5940   2.348   2.081   9.197 -2.2732  2.3720  0.4012
   69SLPC  C312 5941   2.545   2.134   9.112  0.1508  0.6637 -0.1271
   69SLPC  H12X 5942   2.592   2.035   9.123 -0.5345  0.0175 -2.5269
   69SLPC  H12Y 5943   2.619   2.213   9.139 -0.3217  0.3787  2.3153
   69SLPC  C313 5944   2.498   2.162   8.966 -0.0485 -0.0048  0.3400
   69SLPC  H13X 5945   2.443   2.255   8.943 -0.1249 -0.6389 -2.4052
   69SLPC  H13Y 5946   2.430   2.075   8.956  1.5504 -1.2750  0.0750
   69SLPC  C314 5947   2.606   2.157   8.867 -0.1404  0.3216 -0.2443
   69SLPC  H14X 5948   2.656   2.059   8.884  0.3995  0.4504 -1.0269
   69SLPC  H14Y 5949   2.680   2.239   8.882  0.1789 -0.2191  1.3890
   69SLPC  C315 5950   2.559   2.172   8.723 -0.1466  0.2306  0.5173
   69SLPC  H15X 5951   2.510   2.271   8.718 -1.4672 -0.3920  0.7940
   69SLPC  H15Y 5952   2.478   2.099   8.703  0.5077 -0.6825  1.1188
   69SLPC  C316 5953   2.665   2.175   8.611 -0.0443 -0.3165 -0.3255
   69SLPC  H16X 5954   2.740   2.255   8.626 -0.0199 -0.3540 -0.2474
   69SLPC  H16Y 5955   2.614   2.182   8.513  2.3503 -1.3916 -1.7609
   69SLPC  C317 5956   2.739   2.047   8.605 -0.4033  0.6903 -0.2485
   69SLPC  H17X 5957   2.672   1.961   8.584  2.1220 -1.7014  0.8846
   69SLPC  H17Y 5958   2.777   2.021   8.706  1.7626 -3.4621 -1.8707
   69SLPC  C318 5959   2.852   2.058   8.500  0.4694  0.1665 -0.0259
   69SLPC  H18X 5960   2.916   1.967   8.504  1.3959  0.8336  0.9064
   69SLPC  H18Y 5961   2.917   2.147   8.510 -0.2630  0.9561 -1.8483
   69SLPC  H18Z 5962   2.822   2.059   8.393  0.1783  2.7397  0.0240
   70SLPC     N 5963   3.226   3.282  10.520 -0.0940 -0.6932 -0.0093
   70SLPC   C13 5964   3.286   3.180  10.432 -0.6315 -1.0164  0.2276
   70SLPC  H13A 5965   3.302   3.219  10.333  3.8466 -3.6442 -0.4024
   70SLPC  H13B 5966   3.384   3.148  10.464 -0.4270 -2.1878 -1.4395
   70SLPC  H13C 5967   3.222   3.093  10.430 -1.0357 -0.7006 -1.5368
   70SLPC   C14 5968   3.207   3.201  10.645  0.1176 -0.6972 -0.6972
   70SLPC  H14A 5969   3.180   3.099  10.623 -0.3634 -0.4956 -1.0567
   70SLPC  H14B 5970   3.300   3.181  10.698  0.9288  1.1936 -1.3284
   70SLPC  H14C 5971   3.127   3.242  10.704  0.9850 -0.0077  0.0499
   70SLPC   C15 5972   3.091   3.324  10.474  0.2924 -0.7934  0.3774
   70SLPC  H15A 5973   3.021   3.246  10.497 -0.0746 -0.0553  1.9361
   70SLPC  H15B 5974   3.063   3.407  10.537 -0.5678 -1.2884  0.6638
   70SLPC  H15C 5975   3.089   3.342  10.368  0.1826 -3.2291 -0.0881
   70SLPC   C12 5976   3.325   3.403  10.544  0.4322  0.0342  0.8873
   70SLPC  H12A 5977   3.384   3.383  10.632 -4.0277 -1.4551  3.9043
   70SLPC  H12B 5978   3.278   3.492  10.583  1.6400  0.8132  0.5821
   70SLPC   C11 5979   3.414   3.444  10.423 -0.1007 -1.0344  0.5495
   70SLPC  H11A 5980   3.439   3.552  10.429  0.8779 -1.2870  1.5165
   70SLPC  H11B 5981   3.356   3.443  10.329 -0.8114 -0.7615  0.9825
   70SLPC     P 5982   3.639   3.394  10.546  0.0569 -0.1844 -0.2389
   70SLPC   O13 5983   3.570   3.420  10.671 -0.4120  0.2321 -0.2090
   70SLPC   O14 5984   3.749   3.292  10.544  0.1962 -0.0974 -0.0066
   70SLPC   O12 5985   3.530   3.361  10.434 -0.3718  0.1303  0.3752
   70SLPC   O11 5986   3.689   3.532  10.496  0.1545  0.2457 -0.2011
   70SLPC    C1 5987   3.815   3.559  10.435  0.3045 -0.8199 -0.4510
   70SLPC    HA 5988   3.836   3.666  10.457 -3.3732 -0.2482  1.0071
   70SLPC    HB 5989   3.899   3.493  10.465  0.6019  0.3519  1.5425
   70SLPC    C2 5990   3.814   3.546  10.277  0.2034 -0.5500  0.2443
   70SLPC    HS 5991   3.759   3.451  10.260  1.6271 -1.4621  0.5327
   70SLPC   O21 5992   3.948   3.529  10.228  0.1465  0.0508  0.2831
   70SLPC   C21 5993   3.970   3.484  10.107 -0.2563  0.6739 -0.3433
   70SLPC   O22 5994   3.887   3.434  10.028 -0.2701 -0.6706 -0.2705
   70SLPC   C22 5995   4.114   3.511  10.064 -0.7777 -0.2200  0.0136
   70SLPC   H2R 5996   4.129   3.620  10.050  2.1664 -0.1569  2.6290
   70SLPC   H2S 5997   4.196   3.478  10.130  1.2150 -1.1378 -2.7215
   70SLPC    C3 5998   3.741   3.673  10.223 -0.1808 -0.4235  0.7358
   70SLPC    HX 5999   3.800   3.765  10.241  1.2534 -0.9100 -1.1640
   70SLPC    HY 6000   3.644   3.686  10.275  0.5493  0.1512  1.9809
   70SLPC   O31 6001   3.713   3.672  10.081  0.6194  0.4214 -0.1001
   70SLPC   C31 6002   3.600   3.604  10.047 -0.2063  0.2468  0.2564
   70SLPC   O32 6003   3.518   3.551  10.115 -0.3017  0.2271  0.4290
   70SLPC   C32 6004   3.615   3.579   9.901 -0.7119 -0.4144  0.0625
   70SLPC   H2X 6005   3.562   3.485   9.878  0.6315 -0.8900 -1.2289
   70SLPC   H2Y 6006   3.719   3.556   9.870 -1.1234 -0.3502 -1.4347
   70SLPC   C23 6007   4.157   3.445   9.921 -0.4444 -0.5049 -0.6849
   70SLPC   H3R 6008   4.217   3.523   9.870 -0.9694  0.3027 -0.0854
   70SLPC   H3S 6009   4.061   3.428   9.868 -0.8179 -0.1991 -0.1235
   70SLPC   C24 6010   4.229   3.314   9.939  0.4414 -0.0861 -0.0694
   70SLPC   H4R 6011   4.149   3.246   9.977 -0.5001  1.3270  0.5653
   70SLPC   H4S 6012   4.308   3.323  10.016  1.5610 -1.1807 -1.0344
   70SLPC   C25 6013   4.281   3.241   9.812  0.1874  0.3981 -0.6065
   70SLPC   H5R 6014   4.327   3.147   9.849  0.3788  0.7619  0.0958
   70SLPC   H5S 6015   4.370   3.297   9.776  1.2176 -0.7735  0.0282
   70SLPC   C26 6016   4.174   3.219   9.708  0.4373  0.2881  0.6376
   70SLPC   H6R 6017   4.139   3.316   9.666  0.3542  0.3720  0.9003
   70SLPC   H6S 6018   4.086   3.169   9.754  1.1296 -0.5496  1.0807
   70SLPC   C27 6019   4.237   3.140   9.587  0.1786  0.3334  0.4706
   70SLPC   H7R 6020   4.275   3.046   9.632 -2.1495 -1.4672 -1.0737
   70SLPC   H7S 6021   4.314   3.204   9.540  0.2870 -0.2009 -0.0842
   70SLPC   C28 6022   4.151   3.090   9.470  0.4188 -0.1067 -0.6113
   70SLPC   H8R 6023   4.107   3.178   9.419  1.0950  0.3902 -0.3599
   70SLPC   H8S 6024   4.066   3.030   9.510  0.2399  0.3853 -0.2435
   70SLPC   C29 6025   4.226   3.005   9.376  0.4042 -0.2324  0.3048
   70SLPC   H9R 6026   4.289   2.927   9.421  0.1980 -0.1844  0.6824
   70SLPC  C210 6027   4.214   3.001   9.243 -0.2719 -0.1418  0.1740
   70SLPC  H10R 6028   4.274   2.932   9.180 -0.0390  1.3836 -1.3483
   70SLPC  C211 6029   4.129   3.085   9.155  0.4323 -0.0564  0.2384
   70SLPC  H11R 6030   4.025   3.099   9.193  0.1579 -0.1767 -0.4571
   70SLPC  H11S 6031   4.103   3.049   9.053 -0.9742  0.8884  0.2256
   70SLPC  C212 6032   4.195   3.220   9.133  0.9558 -0.2940  0.5547
   70SLPC  H12R 6033   4.175   3.285   9.220  1.6388 -0.1797  0.6321
   70SLPC  C213 6034   4.255   3.274   9.021  0.5412 -0.1111  0.3023
   70SLPC  H13R 6035   4.292   3.377   9.020  0.6185 -0.1356  0.6375
   70SLPC  C214 6036   4.272   3.202   8.884  0.5325 -0.5090 -0.0584
   70SLPC  H14R 6037   4.294   3.093   8.891  1.7001 -0.3324 -0.8190
   70SLPC  H14S 6038   4.367   3.245   8.846 -1.2877  2.2045 -1.9209
   70SLPC  C215 6039   4.163   3.240   8.775 -0.3557  0.2550 -0.3110
   70SLPC  H15R 6040   4.195   3.332   8.722 -2.0996  1.0887 -0.0091
   70SLPC  H15S 6041   4.068   3.257   8.831 -0.1095 -1.0920  0.5644
   70SLPC  C216 6042   4.119   3.129   8.676  0.7725 -0.1163 -0.9436
   70SLPC  H16R 6043   4.211   3.115   8.615  0.8610  0.6384 -0.9909
   70SLPC  H16S 6044   4.031   3.153   8.613  0.1853 -2.5254 -1.1555
   70SLPC  C217 6045   4.079   3.007   8.755 -0.4154  0.1306 -0.0043
   70SLPC  H17R 6046   4.036   3.037   8.853  2.0502 -1.6482  1.7335
   70SLPC  H17S 6047   4.172   2.959   8.792  1.2240 -0.0258 -3.9396
   70SLPC  C218 6048   3.990   2.905   8.678 -0.1270  0.0754  0.3630
   70SLPC  H18R 6049   3.910   2.958   8.620 -1.2630 -1.1610  0.7506
   70SLPC  H18S 6050   3.951   2.834   8.754  2.5492 -0.2708  1.4955
   70SLPC  H18T 6051   4.061   2.854   8.610  2.3375  3.3626  0.1819
   70SLPC   C33 6052   3.561   3.699   9.822  0.0198 -0.4804 -0.1533
   70SLPC   H3X 6053   3.629   3.787   9.831  1.0612 -1.2395 -0.3080
   70SLPC   H3Y 6054   3.458   3.715   9.859 -0.7973 -1.6164 -1.8151
   70SLPC   C34 6055   3.559   3.675   9.664 -0.0044  0.7498 -0.0000
   70SLPC   H4X 6056   3.665   3.659   9.636  0.2974  0.9046  1.0178
   70SLPC   H4Y 6057   3.524   3.767   9.613 -1.0113  0.3396 -0.0726
   70SLPC   C35 6058   3.478   3.553   9.624  0.3120  0.6180 -0.1137
   70SLPC   H5X 6059   3.382   3.586   9.670  0.2524  1.2691 -0.6849
   70SLPC   H5Y 6060   3.520   3.458   9.662 -1.1046 -0.4890 -1.1895
   70SLPC   C36 6061   3.455   3.539   9.470  0.2269 -0.4495  0.5580
   70SLPC   H6X 6062   3.555   3.518   9.426 -0.8661 -0.1871 -2.2432
   70SLPC   H6Y 6063   3.433   3.639   9.427  0.1759 -0.1249  1.3124
   70SLPC   C37 6064   3.362   3.435   9.436  0.2428  0.1930  0.7379
   70SLPC   H7X 6065   3.254   3.456   9.454 -1.0712 -3.5070 -1.5647
   70SLPC   H7Y 6066   3.368   3.347   9.504 -1.4144 -0.7980 -0.2991
   70SLPC   C38 6067   3.368   3.381   9.295  0.2436 -0.2967 -0.2866
   70SLPC   H8X 6068   3.472   3.382   9.256  0.5891  2.5431  0.5264
   70SLPC   H8Y 6069   3.317   3.458   9.233  0.9273  1.0373  0.7767
   70SLPC   C39 6070   3.294   3.249   9.280 -0.1683  0.2946  0.2376
   70SLPC   H9X 6071   3.187   3.276   9.290 -0.1779  0.4409 -0.2568
   70SLPC   H9Y 6072   3.318   3.179   9.363 -2.7186  1.3492  2.0034
   70SLPC  C310 6073   3.311   3.183   9.146 -0.3681  0.2047  0.1132
   70SLPC  H10X 6074   3.394   3.109   9.140  0.7417  1.4460 -0.2988
   70SLPC  H10Y 6075   3.338   3.268   9.081  0.8598 -1.2235 -1.3242
   70SLPC  C311 6076   3.184   3.124   9.072  0.2544  0.2670 -0.9515
   70SLPC  H11X 6077   3.102   3.199   9.062  0.6630  0.7648 -0.6079
   70SLPC  H11Y 6078   3.150   3.041   9.138  1.4543 -1.7069 -2.6801
   70SLPC  C312 6079   3.217   3.051   8.940  0.4282  0.5001  0.3746
   70SLPC  H12X 6080   3.277   2.958   8.956  0.0974  0.3703  0.8776
   70SLPC  H12Y 6081   3.289   3.112   8.880  0.9738 -0.1450  0.3528
   70SLPC  C313 6082   3.094   3.001   8.866  0.1282 -0.0413 -0.1729
   70SLPC  H13X 6083   3.038   3.095   8.850 -1.1437 -0.2107  2.6781
   70SLPC  H13Y 6084   3.026   2.942   8.932 -0.3383  1.1117  0.3912
   70SLPC  C314 6085   3.131   2.948   8.725  0.4912  0.0198  0.4696
   70SLPC  H14X 6086   3.181   2.850   8.740 -0.3749 -0.8752 -2.0521
   70SLPC  H14Y 6087   3.206   3.023   8.693  3.6411 -1.5599  3.4157
   70SLPC  C315 6088   3.007   2.947   8.643 -1.0003  0.5583 -0.1696
   70SLPC  H15X 6089   2.963   3.046   8.618  0.3915  0.8115 -1.7398
   70SLPC  H15Y 6090   2.935   2.877   8.691 -1.6631  0.5755 -1.1155
   70SLPC  C316 6091   3.049   2.877   8.507  0.6030 -0.4033  0.0960
   70SLPC  H16X 6092   3.103   2.785   8.540  0.1634  0.1005  2.3558
   70SLPC  H16Y 6093   3.125   2.935   8.449  1.2149 -3.2533 -2.2167
   70SLPC  C317 6094   2.937   2.827   8.408  0.4583  0.1062 -0.0151
   70SLPC  H17X 6095   2.899   2.914   8.350  1.8921  0.4010 -0.5492
   70SLPC  H17Y 6096   2.858   2.775   8.466 -1.5509 -0.7083 -3.2182
   70SLPC  C318 6097   2.987   2.729   8.312 -0.6627  0.0468  0.2703
   70SLPC  H18X 6098   2.914   2.709   8.230  0.0738  2.2300 -1.0113
   70SLPC  H18Y 6099   3.017   2.631   8.354 -0.1271 -0.7179 -1.7460
   70SLPC  H18Z 6100   3.080   2.774   8.270 -0.8402 -0.1516 -0.3496
   71SLPC     N 6101   5.686   3.555  10.579 -0.4829 -0.3732  0.0221
   71SLPC   C13 6102   5.725   3.424  10.630  0.0543  0.3549  0.5513
   71SLPC  H13A 6103   5.773   3.363  10.555  0.2810  0.9386  0.2141
   71SLPC  H13B 6104   5.772   3.424  10.728 -0.2094  1.0065  0.6862
   71SLPC  H13C 6105   5.632   3.381  10.663 -2.2770  2.7594 -2.3706
   71SLPC   C14 6106   5.604   3.525  10.454 -0.2008 -0.7009 -0.3086
   71SLPC  H14A 6107   5.535   3.444  10.466  0.5861 -1.4579 -0.8143
   71SLPC  H14B 6108   5.543   3.610  10.426  0.3905 -0.7781 -1.8884
   71SLPC  H14C 6109   5.669   3.484  10.379  0.3414 -4.2152  1.8650
   71SLPC   C15 6110   5.808   3.632  10.528 -0.0979 -0.0505  0.5137
   71SLPC  H15A 6111   5.774   3.717  10.471  1.6432  0.2525 -0.1667
   71SLPC  H15B 6112   5.878   3.665  10.604  0.6155  0.7883 -0.4821
   71SLPC  H15C 6113   5.859   3.564  10.461  0.6064  2.6651 -1.8952
   71SLPC   C12 6114   5.618   3.648  10.679  0.1413 -0.1339  0.9343
   71SLPC  H12A 6115   5.674   3.656  10.772 -1.5038  2.9442  1.7959
   71SLPC  H12B 6116   5.525   3.603  10.712  0.7558 -1.0318  1.5010
   71SLPC   C11 6117   5.573   3.794  10.636  0.1515 -0.8175 -0.0081
   71SLPC  H11A 6118   5.659   3.838  10.582 -0.7620 -0.3639 -1.1602
   71SLPC  H11B 6119   5.553   3.850  10.730  1.1932 -2.2683  1.1052
   71SLPC     P 6120   5.313   3.777  10.607 -0.1018  0.1883 -0.0689
   71SLPC   O13 6121   5.321   3.695  10.727 -0.5690  0.6833 -0.0156
   71SLPC   O14 6122   5.264   3.912  10.632  0.1722 -0.6197 -0.3904
   71SLPC   O12 6123   5.461   3.788  10.542 -0.3178 -0.1066  0.3604
   71SLPC   O11 6124   5.229   3.707  10.494  0.3420 -0.7376  0.1439
   71SLPC    C1 6125   5.194   3.791  10.381  0.6914  0.2378  0.0785
   71SLPC    HA 6126   5.126   3.874  10.411  0.0437  0.7846 -2.6309
   71SLPC    HB 6127   5.287   3.828  10.332 -0.2561  2.4603 -0.1605
   71SLPC    C2 6128   5.125   3.708  10.272  0.4851 -0.1943 -0.0720
   71SLPC    HS 6129   5.046   3.660  10.335 -0.2958  0.9291 -0.1602
   71SLPC   O21 6130   5.219   3.613  10.217 -0.5502  0.8501  0.2232
   71SLPC   C21 6131   5.154   3.519  10.144  0.4852 -0.8588  0.3303
   71SLPC   O22 6132   5.030   3.507  10.143  0.1171  0.5757  0.1838
   71SLPC   C22 6133   5.254   3.442  10.055  0.3673 -0.5894 -0.3772
   71SLPC   H2R 6134   5.353   3.444  10.105 -1.0084 -1.6690  2.6118
   71SLPC   H2S 6135   5.217   3.337  10.053 -0.8895 -0.1696 -0.4748
   71SLPC    C3 6136   5.048   3.794  10.167  0.1181 -0.2038  1.0902
   71SLPC    HX 6137   4.990   3.875  10.216 -1.2146  0.3082 -1.1441
   71SLPC    HY 6138   4.968   3.737  10.115  1.8989 -0.7390 -1.2596
   71SLPC   O31 6139   5.145   3.839  10.071 -0.3364  0.1839  0.2693
   71SLPC   C31 6140   5.150   3.969  10.060 -0.3292 -0.4029 -0.3478
   71SLPC   O32 6141   5.099   4.052  10.133  0.0605  0.1313  0.8499
   71SLPC   C32 6142   5.233   4.000   9.939 -0.3424  0.1427 -0.1231
   71SLPC   H2X 6143   5.312   3.922   9.924 -0.5825  0.1464 -1.5783
   71SLPC   H2Y 6144   5.283   4.098   9.955  2.4870 -1.5119  2.1656
   71SLPC   C23 6145   5.257   3.516   9.911  0.0644 -0.5757  0.7813
   71SLPC   H3R 6146   5.336   3.462   9.854 -1.0465 -1.4107  0.0089
   71SLPC   H3S 6147   5.278   3.625   9.922 -0.5314 -0.6632  3.5257
   71SLPC   C24 6148   5.138   3.499   9.812 -0.0511  0.2114 -0.3141
   71SLPC   H4R 6149   5.045   3.548   9.848  0.1089 -1.3499  2.4932
   71SLPC   H4S 6150   5.107   3.395   9.789  0.3128  0.1970 -0.7602
   71SLPC   C25 6151   5.172   3.560   9.676 -0.1438  0.6171 -0.0079
   71SLPC   H5R 6152   5.251   3.496   9.631 -0.5093  0.5413 -0.5573
   71SLPC   H5S 6153   5.199   3.667   9.692 -1.4799  1.3379 -2.0369
   71SLPC   C26 6154   5.049   3.564   9.578 -0.1746 -0.9254 -0.0504
   71SLPC   H6R 6155   4.970   3.636   9.606  0.0295 -0.8155  0.2490
   71SLPC   H6S 6156   5.001   3.465   9.594  0.1922 -0.9834  0.7545
   71SLPC   C27 6157   5.102   3.577   9.433 -0.1946 -0.3524 -0.2265
   71SLPC   H7R 6158   5.170   3.492   9.412 -0.3505 -1.3080  2.6726
   71SLPC   H7S 6159   5.166   3.668   9.430  0.9665 -1.1664 -0.5446
   71SLPC   C28 6160   4.989   3.584   9.328  0.0789  0.0548  0.0369
   71SLPC   H8R 6161   4.930   3.494   9.353  1.1572 -0.2517  1.6426
   71SLPC   H8S 6162   5.029   3.567   9.226 -3.5584  0.3489 -1.6028
   71SLPC   C29 6163   4.901   3.707   9.335 -0.4854  0.1220  0.3261
   71SLPC   H9R 6164   4.845   3.701   9.429  0.6067  1.0221  1.0562
   71SLPC  C210 6165   4.889   3.817   9.252  0.0914  0.2158 -0.1916
   71SLPC  H10R 6166   4.815   3.892   9.283  1.7870  1.0451  2.1342
   71SLPC  C211 6167   4.971   3.853   9.130  0.1064  1.0279 -0.3895
   71SLPC  H11R 6168   4.929   3.817   9.034  2.4730  0.7459 -1.3726
   71SLPC  H11S 6169   5.060   3.790   9.148 -1.9314 -1.2248  2.9965
   71SLPC  C212 6170   5.007   3.995   9.100 -0.1934  0.1598 -0.2296
   71SLPC  H12R 6171   4.925   4.065   9.122  0.3138  0.9779 -0.8697
   71SLPC  C213 6172   5.112   4.048   9.042 -0.2128 -1.0518 -0.1035
   71SLPC  H13R 6173   5.119   4.158   9.042  1.0344 -1.0658 -2.5816
   71SLPC  C214 6174   5.234   3.975   8.993 -0.1896  0.6102  0.5214
   71SLPC  H14R 6175   5.277   4.026   8.905  0.8427  0.0120  0.6654
   71SLPC  H14S 6176   5.207   3.870   8.969 -0.0316  1.1995 -2.6889
   71SLPC  C215 6177   5.355   3.975   9.097 -0.2560 -0.1392 -0.4776
   71SLPC  H15R 6178   5.368   4.083   9.118 -0.3745 -0.6157  2.4930
   71SLPC  H15S 6179   5.442   3.922   9.054  0.6186 -0.8294  1.9676
   71SLPC  C216 6180   5.327   3.894   9.224 -0.2283 -0.4764  0.1875
   71SLPC  H16R 6181   5.326   3.784   9.205 -0.1272 -0.9909  2.7814
   71SLPC  H16S 6182   5.221   3.909   9.252 -1.1739 -3.6002 -1.2205
   71SLPC  C217 6183   5.433   3.922   9.334  0.0901  0.4215  0.2546
   71SLPC  H17R 6184   5.452   4.031   9.337  1.5072  0.3046 -2.1538
   71SLPC  H17S 6185   5.529   3.875   9.305 -0.6786 -0.5691 -0.8154
   71SLPC  C218 6186   5.385   3.865   9.468 -0.2736  0.3170 -0.1411
   71SLPC  H18R 6187   5.361   3.757   9.455  2.8940 -0.3437 -1.2656
   71SLPC  H18S 6188   5.305   3.929   9.513  0.2886  0.8156  0.1587
   71SLPC  H18T 6189   5.470   3.850   9.538 -0.0847 -1.4282 -0.7046
   71SLPC   C33 6190   5.151   4.003   9.804 -0.4885  0.2699 -0.3132
   71SLPC   H3X 6191   5.123   3.900   9.771 -0.9972 -0.8407  3.1589
   71SLPC   H3Y 6192   5.230   4.030   9.731 -0.2698 -1.1551 -0.6409
   71SLPC   C34 6193   5.027   4.094   9.809 -1.3580  0.0251 -0.2889
   71SLPC   H4X 6194   5.042   4.202   9.827  0.6440 -0.1413 -0.6511
   71SLPC   H4Y 6195   4.954   4.062   9.887 -1.3173  0.3020 -0.1382
   71SLPC   C35 6196   4.951   4.098   9.672  0.5544 -0.4112  0.4513
   71SLPC   H5X 6197   4.848   4.135   9.687  0.9344  0.6794  0.4330
   71SLPC   H5Y 6198   4.958   4.003   9.616 -1.4885  1.5273 -3.4794
   71SLPC   C36 6199   5.017   4.210   9.580 -0.7733 -0.2199 -0.0546
   71SLPC   H6X 6200   5.125   4.185   9.582 -0.5260  0.8439  0.8616
   71SLPC   H6Y 6201   4.991   4.303   9.635 -0.4625  1.7176 -2.9309
   71SLPC   C37 6202   4.959   4.213   9.439 -0.0361 -0.1490  0.2584
   71SLPC   H7X 6203   4.849   4.229   9.438  0.0943  0.8052 -0.3804
   71SLPC   H7Y 6204   4.984   4.117   9.389 -0.3958 -1.1403  1.9014
   71SLPC   C38 6205   5.029   4.331   9.357 -0.1355  0.0944 -0.0813
   71SLPC   H8X 6206   5.138   4.308   9.348 -0.5563 -2.1875 -0.0754
   71SLPC   H8Y 6207   5.016   4.430   9.406 -0.7938  0.0392 -0.1430
   71SLPC   C39 6208   4.963   4.348   9.222 -0.0671  0.4332  0.0173
   71SLPC   H9X 6209   4.861   4.387   9.242  0.0193  0.2509  0.8301
   71SLPC   H9Y 6210   4.965   4.248   9.174  2.6657 -0.4512  1.7828
   71SLPC  C310 6211   5.031   4.436   9.121 -0.5158  0.1458  0.3242
   71SLPC  H10X 6212   5.132   4.407   9.083 -0.8489  1.6742 -1.8656
   71SLPC  H10Y 6213   5.039   4.544   9.146  1.5090  0.9396 -3.0914
   71SLPC  C311 6214   4.931   4.431   8.998  0.3066 -0.7804  0.3561
   71SLPC  H11X 6215   4.835   4.484   9.017  1.0364  0.5643  0.4591
   71SLPC  H11Y 6216   4.902   4.333   8.955 -1.3857  0.6414 -1.9535
   71SLPC  C312 6217   4.992   4.506   8.883 -0.5930  0.8149 -0.1534
   71SLPC  H12X 6218   5.086   4.455   8.851 -0.5339 -0.3565  1.7128
   71SLPC  H12Y 6219   5.033   4.602   8.923 -2.6880  1.0123  1.7369
   71SLPC  C313 6220   4.886   4.528   8.773  0.8474  0.2132 -0.2210
   71SLPC  H13X 6221   4.812   4.606   8.802 -0.2383 -0.9674  0.2783
   71SLPC  H13Y 6222   4.820   4.439   8.767  0.1758  0.6077  1.0288
   71SLPC  C314 6223   4.936   4.561   8.627 -0.2833  0.3419 -0.4799
   71SLPC  H14X 6224   4.991   4.657   8.641  1.1032 -0.7562  2.4550
   71SLPC  H14Y 6225   4.845   4.582   8.565 -0.8541 -0.3082  0.1178
   71SLPC  C315 6226   5.024   4.451   8.558 -1.0710 -0.7101  0.7355
   71SLPC  H15X 6227   4.964   4.363   8.525  1.9603 -2.1945 -1.2566
   71SLPC  H15Y 6228   5.083   4.406   8.640  0.6089 -3.8564 -1.9808
   71SLPC  C316 6229   5.117   4.506   8.450  0.0088  0.5748 -0.3084
   71SLPC  H16X 6230   5.162   4.605   8.474 -1.3410  0.8441  1.2886
   71SLPC  H16Y 6231   5.058   4.520   8.357  1.4516 -1.2193 -1.5696
   71SLPC  C317 6232   5.234   4.411   8.409 -0.1082 -0.1475  0.3110
   71SLPC  H17X 6233   5.300   4.391   8.496 -0.0843  1.2894  0.6434
   71SLPC  H17Y 6234   5.299   4.462   8.335 -0.8673  0.7135  0.2237
   71SLPC  C318 6235   5.202   4.274   8.353  0.9474 -0.3630  0.5189
   71SLPC  H18X 6236   5.123   4.226   8.415 -2.2544  2.8259 -0.7319
   71SLPC  H18Y 6237   5.286   4.204   8.333  0.2986 -1.0742  0.2128
   71SLPC  H18Z 6238   5.156   4.297   8.254  1.4986 -0.5020  0.2223
   72SLPC     N 6239   4.601   3.177  10.528 -0.1189  0.0502  0.3715
   72SLPC   C13 6240   4.631   3.136  10.385  0.0153  0.0419  0.1390
   72SLPC  H13A 6241   4.555   3.074  10.341 -0.5702  0.4025  0.6336
   72SLPC  H13B 6242   4.654   3.223  10.324  1.2007  0.5824  1.2950
   72SLPC  H13C 6243   4.711   3.064  10.382 -1.0061 -1.2035  1.6620
   72SLPC   C14 6244   4.722   3.231  10.585 -0.4422 -0.1357  0.4616
   72SLPC  H14A 6245   4.755   3.325  10.544 -0.2522 -0.6547 -0.6285
   72SLPC  H14B 6246   4.700   3.245  10.690  0.2907  0.6980  0.5141
   72SLPC  H14C 6247   4.802   3.158  10.589 -0.3410 -0.0572 -0.0481
   72SLPC   C15 6248   4.554   3.065  10.618 -0.0636 -0.3827  0.7607
   72SLPC  H15A 6249   4.632   2.990  10.621 -0.6330 -0.9966  0.6241
   72SLPC  H15B 6250   4.544   3.093  10.722  1.1276  0.5459  0.6518
   72SLPC  H15C 6251   4.456   3.025  10.600  0.9117 -3.4099  1.5908
   72SLPC   C12 6252   4.501   3.294  10.534  0.3425 -0.3679  0.1330
   72SLPC  H12A 6253   4.460   3.310  10.633  0.4213 -0.7239  0.2260
   72SLPC  H12B 6254   4.423   3.268  10.463 -0.1758  1.7701 -0.1427
   72SLPC   C11 6255   4.537   3.439  10.490 -0.7300 -0.1835  0.4111
   72SLPC  H11A 6256   4.447   3.504  10.486 -0.2417  0.7005  2.3555
   72SLPC  H11B 6257   4.585   3.427  10.391  1.6687  1.4459  1.2977
   72SLPC     P 6258   4.581   3.570  10.713 -0.1623 -0.2556  0.4120
   72SLPC   O13 6259   4.440   3.549  10.724  0.6044 -0.3364 -0.2851
   72SLPC   O14 6260   4.661   3.517  10.825 -0.2892 -0.3250  0.0683
   72SLPC   O12 6261   4.634   3.505  10.572  0.2131 -0.4874 -0.6306
   72SLPC   O11 6262   4.598   3.725  10.704  0.0434 -0.4208  0.8138
   72SLPC    C1 6263   4.715   3.788  10.656 -0.3698 -0.2383 -0.1217
   72SLPC    HA 6264   4.738   3.876  10.720  1.6809 -0.0042 -1.1246
   72SLPC    HB 6265   4.809   3.731  10.664 -1.7777 -2.8915 -1.1476
   72SLPC    C2 6266   4.697   3.855  10.512  0.0622  1.1585  0.1964
   72SLPC    HS 6267   4.593   3.892  10.505  0.1867  1.1562 -2.7073
   72SLPC   O21 6268   4.731   3.753  10.416  0.3412 -0.2249 -0.1715
   72SLPC   C21 6269   4.639   3.715  10.332  0.3273 -0.4626 -0.7017
   72SLPC   O22 6270   4.518   3.743  10.342 -0.5227 -0.5527 -0.2231
   72SLPC   C22 6271   4.708   3.638  10.223 -0.3664 -0.0514  0.0365
   72SLPC   H2R 6272   4.763   3.714  10.164 -0.7344  1.0164  1.0261
   72SLPC   H2S 6273   4.772   3.562  10.273 -0.2666  0.4133  0.6300
   72SLPC    C3 6274   4.793   3.977  10.496  0.2840 -0.3592  1.1868
   72SLPC    HX 6275   4.894   3.946  10.531  0.5982 -0.2274  0.4335
   72SLPC    HY 6276   4.753   4.063  10.552  1.4653  0.8063  0.3057
   72SLPC   O31 6277   4.797   4.010  10.357 -0.5089 -0.5221 -0.1778
   72SLPC   C31 6278   4.709   4.086  10.304 -0.3609 -0.4345  0.7656
   72SLPC   O32 6279   4.616   4.140  10.365 -0.5612  0.3321 -0.4297
   72SLPC   C32 6280   4.735   4.094  10.154 -0.7655  0.6112  0.5293
   72SLPC   H2X 6281   4.837   4.056  10.136 -1.0351  0.3310 -0.4472
   72SLPC   H2Y 6282   4.746   4.201  10.125  0.1778  1.3416  3.2731
   72SLPC   C23 6283   4.609   3.563  10.128 -0.9478  0.4577 -0.7912
   72SLPC   H3R 6284   4.520   3.626  10.112 -1.1210  0.5108  0.3449
   72SLPC   H3S 6285   4.572   3.466  10.166  1.0558 -1.0849 -2.4981
   72SLPC   C24 6286   4.678   3.540   9.995  0.0848 -0.1504 -0.1994
   72SLPC   H4R 6287   4.767   3.473  10.005  1.0067  0.5412 -2.7905
   72SLPC   H4S 6288   4.721   3.633   9.952  0.7688 -1.3349 -2.2036
   72SLPC   C25 6289   4.586   3.477   9.890  0.0516  0.1851  0.4528
   72SLPC   H5R 6290   4.489   3.530   9.885  0.1475  0.5113  1.6959
   72SLPC   H5S 6291   4.555   3.373   9.915  0.4112  0.2362  1.1310
   72SLPC   C26 6292   4.665   3.472   9.759  0.5003 -0.0952 -0.4385
   72SLPC   H6R 6293   4.748   3.408   9.795 -0.4929 -0.1355  2.0124
   72SLPC   H6S 6294   4.695   3.574   9.729 -1.4474  1.1332  1.5280
   72SLPC   C27 6295   4.587   3.404   9.644 -0.5038 -0.1113  0.3580
   72SLPC   H7R 6296   4.498   3.464   9.617  0.7153  0.2465 -3.4210
   72SLPC   H7S 6297   4.547   3.309   9.684  0.9091 -0.0245  2.1400
   72SLPC   C28 6298   4.661   3.377   9.509  0.2605  0.1682  0.0595
   72SLPC   H8R 6299   4.746   3.312   9.541 -0.3283 -1.0542 -0.7841
   72SLPC   H8S 6300   4.705   3.470   9.469 -0.2273  0.4049  0.0682
   72SLPC   C29 6301   4.569   3.315   9.403 -0.0254  0.1337  0.1685
   72SLPC   H9R 6302   4.537   3.213   9.427 -2.3074  0.8674  0.4544
   72SLPC  C210 6303   4.538   3.370   9.282 -0.7502  0.0538  0.7089
   72SLPC  H10R 6304   4.448   3.328   9.234 -0.1516 -0.8247  0.3353
   72SLPC  C211 6305   4.579   3.508   9.228  1.0256  0.7652 -0.2075
   72SLPC  H11R 6306   4.690   3.505   9.231  1.0120  0.7765  0.3239
   72SLPC  H11S 6307   4.549   3.592   9.293  1.4556 -0.6901  1.9987
   72SLPC  C212 6308   4.539   3.532   9.085  0.1255 -0.1288  0.0182
   72SLPC  H12R 6309   4.542   3.444   9.020 -1.6518  0.1204 -0.4596
   72SLPC  C213 6310   4.497   3.655   9.041 -0.2265  0.4255 -0.4351
   72SLPC  H13R 6311   4.471   3.657   8.934 -3.0336 -1.7626  0.0644
   72SLPC  C214 6312   4.485   3.780   9.124  0.3670 -0.5509  0.3942
   72SLPC  H14R 6313   4.580   3.816   9.167 -0.3906  0.5580  1.2009
   72SLPC  H14S 6314   4.426   3.767   9.218 -0.4640 -1.0038 -0.1744
   72SLPC  C215 6315   4.413   3.892   9.052  0.7606  0.0500  0.8748
   72SLPC  H15R 6316   4.387   3.977   9.118 -0.9199 -0.6338  1.1425
   72SLPC  H15S 6317   4.324   3.848   9.002  0.2348  0.2938  1.5715
   72SLPC  C216 6318   4.495   3.950   8.934 -0.2431 -0.0860 -0.4878
   72SLPC  H16R 6319   4.434   4.001   8.857 -1.8146 -2.4562 -0.9279
   72SLPC  H16S 6320   4.532   3.860   8.880  0.1983  0.9126 -1.8918
   72SLPC  C217 6321   4.618   4.027   8.966 -0.2768 -0.1499  0.6876
   72SLPC  H17R 6322   4.677   4.062   8.878 -1.3289 -0.9348 -0.3675
   72SLPC  H17S 6323   4.686   3.955   9.015  0.0185  0.4094  1.1188
   72SLPC  C218 6324   4.599   4.143   9.067  0.0408  0.6964 -0.0519
   72SLPC  H18R 6325   4.527   4.212   9.018 -0.1928 -1.1587 -2.5197
   72SLPC  H18S 6326   4.697   4.195   9.070  0.9864 -1.0423  0.3808
   72SLPC  H18T 6327   4.561   4.104   9.164 -3.9567  2.2045 -0.8431
   72SLPC   C33 6328   4.630   4.024  10.072  0.6030  0.1885  0.4252
   72SLPC   H3X 6329   4.528   4.068  10.082 -0.1233 -0.9822 -1.4238
   72SLPC   H3Y 6330   4.624   3.921  10.113 -0.6195  1.3925  3.6231
   72SLPC   C34 6331   4.675   4.009   9.927  0.5173 -0.0851 -0.2014
   72SLPC   H4X 6332   4.766   3.947   9.916 -0.1308 -0.9302 -1.0331
   72SLPC   H4Y 6333   4.684   4.104   9.870  0.4014 -0.2380 -0.4774
   72SLPC   C35 6334   4.575   3.920   9.848 -0.3133 -0.1105  0.6339
   72SLPC   H5X 6335   4.476   3.966   9.872 -0.2660  0.7693 -0.7535
   72SLPC   H5Y 6336   4.567   3.819   9.893  0.6661 -0.4736  0.0192
   72SLPC   C36 6337   4.608   3.907   9.694  0.2076 -0.1402 -0.1901
   72SLPC   H6X 6338   4.709   3.862   9.686 -0.0585 -1.4172  2.5256
   72SLPC   H6Y 6339   4.608   4.007   9.646  0.8871  0.5165  1.1080
   72SLPC   C37 6340   4.504   3.825   9.621 -0.3960  0.5914  1.0934
   72SLPC   H7X 6341   4.485   3.719   9.651  0.2633 -0.4735 -1.9246
   72SLPC   H7Y 6342   4.545   3.821   9.518  0.8822 -1.7151  1.6121
   72SLPC   C38 6343   4.364   3.885   9.607 -0.1710 -0.0494  0.1584
   72SLPC   H8X 6344   4.331   3.924   9.706 -0.0973  0.4987 -0.0311
   72SLPC   H8Y 6345   4.300   3.802   9.570  1.2337 -0.9680 -0.3000
   72SLPC   C39 6346   4.363   4.010   9.516 -0.0572  0.2179  0.1932
   72SLPC   H9X 6347   4.374   3.972   9.413  1.6671  1.5974 -0.1980
   72SLPC   H9Y 6348   4.446   4.082   9.537  0.9861 -1.1541  0.9233
   72SLPC  C310 6349   4.237   4.095   9.534  0.2475  0.3294 -0.7601
   72SLPC  H10X 6350   4.237   4.134   9.638 -1.2234 -0.0015 -0.6092
   72SLPC  H10Y 6351   4.147   4.031   9.527  2.7914 -3.9605  1.5697
   72SLPC  C311 6352   4.233   4.210   9.436 -0.0062 -0.0307 -0.2631
   72SLPC  H11X 6353   4.330   4.264   9.439  0.3007 -0.5994  0.1063
   72SLPC  H11Y 6354   4.160   4.288   9.468  1.5233  0.5663  1.9897
   72SLPC  C312 6355   4.201   4.179   9.289  0.3171  0.2005  0.3581
   72SLPC  H12X 6356   4.264   4.099   9.245 -0.3025 -0.5101  0.7627
   72SLPC  H12Y 6357   4.211   4.273   9.229 -0.4410 -0.1552 -0.3395
   72SLPC  C313 6358   4.056   4.133   9.271 -0.4699  0.7209  0.0310
   72SLPC  H13X 6359   3.982   4.212   9.298  1.3987  2.6352 -0.1418
   72SLPC  H13Y 6360   4.038   4.043   9.333 -0.1150  0.6851  0.0824
   72SLPC  C314 6361   4.001   4.103   9.130  0.4670 -0.2691  0.0096
   72SLPC  H14X 6362   3.990   4.195   9.067  1.7926  0.6808  1.0860
   72SLPC  H14Y 6363   3.904   4.051   9.137  0.5712 -0.6050 -0.8741
   72SLPC  C315 6364   4.093   4.001   9.050  0.0081 -0.0994 -0.5481
   72SLPC  H15X 6365   4.104   3.910   9.112 -0.4779  0.5168  0.4734
   72SLPC  H15Y 6366   4.191   4.050   9.030 -0.0023 -1.2136 -3.8843
   72SLPC  C316 6367   4.023   3.953   8.920  0.8589 -0.1930 -0.0793
   72SLPC  H16X 6368   4.002   4.031   8.845  3.0768  0.1028 -0.4698
   72SLPC  H16Y 6369   3.925   3.920   8.961 -0.0253  1.1943 -1.0164
   72SLPC  C317 6370   4.093   3.836   8.851  1.1458  0.1829  0.4531
   72SLPC  H17X 6371   4.188   3.876   8.810  0.9463  0.1571 -0.0410
   72SLPC  H17Y 6372   4.035   3.804   8.763  0.5130  0.0240  0.9210
   72SLPC  C318 6373   4.122   3.698   8.924 -0.1163 -0.6650 -0.3339
   72SLPC  H18X 6374   4.176   3.710   9.020 -2.8480 -3.9707  1.8589
   72SLPC  H18Y 6375   4.173   3.623   8.860 -0.8889 -2.0374  0.6193
   72SLPC  H18Z 6376   4.021   3.655   8.944  0.1687 -1.0322  0.3345
   73SLPC     N 6377   4.001   0.825  11.179  0.0691  0.0184 -0.4529
   73SLPC   C13 6378   4.073   0.820  11.307  0.1788  0.0840  0.3421
   73SLPC  H13A 6379   4.039   0.896  11.376 -1.1285  1.7272 -1.9344
   73SLPC  H13B 6380   4.078   0.730  11.365  2.5171  0.6540  1.1085
   73SLPC  H13C 6381   4.176   0.842  11.287  0.1762  1.1616  1.3884
   73SLPC   C14 6382   3.867   0.763  11.201  0.4005  0.0049 -0.3844
   73SLPC  H14A 6383   3.803   0.816  11.270  0.3447  0.2966 -0.6567
   73SLPC  H14B 6384   3.811   0.758  11.109  0.0870 -4.2574 -0.1501
   73SLPC  H14C 6385   3.879   0.659  11.226 -1.7976 -0.6682 -1.9052
   73SLPC   C15 6386   4.084   0.738  11.084  0.4955  0.0613  0.3862
   73SLPC  H15A 6387   4.119   0.646  11.127 -1.6035 -0.1016  1.8789
   73SLPC  H15B 6388   4.018   0.709  11.004 -1.1950  0.0639  1.7344
   73SLPC  H15C 6389   4.165   0.792  11.036 -2.4415  1.4946 -3.5828
   73SLPC   C12 6390   3.978   0.963  11.119  0.7608 -0.1631  0.2475
   73SLPC  H12A 6391   3.891   1.011  11.161 -1.0431 -0.9359 -2.3559
   73SLPC  H12B 6392   3.945   0.945  11.018 -2.6871  0.6461  1.1142
   73SLPC   C11 6393   4.101   1.056  11.109  0.0514  0.0020 -0.5109
   73SLPC  H11A 6394   4.145   1.053  11.211 -2.1046 -0.5100  0.4661
   73SLPC  H11B 6395   4.068   1.158  11.081 -1.4407 -0.1578  0.5445
   73SLPC     P 6396   4.196   1.034  10.868 -0.0079 -0.1036  0.2935
   73SLPC   O13 6397   4.244   1.172  10.843  0.7458  0.2097  0.3862
   73SLPC   O14 6398   4.270   0.921  10.805  0.0758  0.0369  0.0966
   73SLPC   O12 6399   4.209   1.008  11.022  0.2878  0.0706  0.0708
   73SLPC   O11 6400   4.039   1.028  10.836 -0.4273  0.2324  0.9737
   73SLPC    C1 6401   3.981   1.113  10.731  0.2276  0.4575 -0.2739
   73SLPC    HA 6402   3.870   1.101  10.734  0.2568  0.2666  0.1391
   73SLPC    HB 6403   3.994   1.217  10.768 -1.1665  0.5144  0.1443
   73SLPC    C2 6404   4.015   1.065  10.587 -1.2367 -0.2627 -0.7747
   73SLPC    HS 6405   4.007   0.954  10.584  0.8966 -0.4486 -2.3999
   73SLPC   O21 6406   4.158   1.102  10.555  0.6748  0.0479  0.6314
   73SLPC   C21 6407   4.216   1.012  10.478  0.2453  0.0032 -0.7646
   73SLPC   O22 6408   4.179   0.900  10.449  0.5829 -0.6728 -0.1825
   73SLPC   C22 6409   4.350   1.065  10.425  0.2150 -0.2456 -0.2962
   73SLPC   H2R 6410   4.349   1.175  10.413  0.6880 -0.3086 -0.9628
   73SLPC   H2S 6411   4.436   1.046  10.492 -0.8149 -1.2709  0.7852
   73SLPC    C3 6412   3.908   1.120  10.487  0.7653  0.1155  0.7108
   73SLPC    HX 6413   3.909   1.226  10.520 -0.2640  0.1316  0.7312
   73SLPC    HY 6414   3.801   1.093  10.503  0.3133  1.8817  0.7950
   73SLPC   O31 6415   3.943   1.105  10.345  0.5406  0.0378  0.5154
   73SLPC   C31 6416   3.891   0.989  10.292 -0.1146  0.2253 -0.3821
   73SLPC   O32 6417   3.830   0.906  10.358  0.4267 -0.2594  0.3487
   73SLPC   C32 6418   3.930   0.970  10.148 -0.0754 -0.4434  0.0640
   73SLPC   H2X 6419   3.997   1.054  10.120 -1.3487  0.1501 -1.4054
   73SLPC   H2Y 6420   3.841   0.985  10.082  1.6084 -0.0076 -2.2312
   73SLPC   C23 6421   4.384   1.010  10.284 -0.4054 -0.5991  0.9685
   73SLPC   H3R 6422   4.471   1.069  10.250 -0.5493 -0.5874  0.6159
   73SLPC   H3S 6423   4.305   1.038  10.211 -0.1651 -0.1889  0.8624
   73SLPC   C24 6424   4.416   0.859  10.263  1.3981  0.4479  0.5344
   73SLPC   H4R 6425   4.326   0.800  10.289 -0.6671  3.1068 -0.1529
   73SLPC   H4S 6426   4.511   0.837  10.315  0.5572 -0.8316  1.5905
   73SLPC   C25 6427   4.439   0.821  10.111 -0.8577 -0.1270  0.3832
   73SLPC   H5R 6428   4.357   0.852  10.043  0.6721  0.4419 -1.2841
   73SLPC   H5S 6429   4.451   0.710  10.110  2.3612  0.0625  2.1092
   73SLPC   C26 6430   4.581   0.872  10.060  1.2513 -0.6284 -0.7166
   73SLPC   H6R 6431   4.650   0.886  10.146  1.0861  1.2739 -0.8562
   73SLPC   H6S 6432   4.562   0.970  10.010 -1.6898 -1.1770 -0.8037
   73SLPC   C27 6433   4.639   0.778   9.950 -0.2438 -0.1657 -1.0222
   73SLPC   H7R 6434   4.655   0.679   9.998  0.5068  1.1508  1.6402
   73SLPC   H7S 6435   4.743   0.811   9.930  0.4757 -0.2025  2.1860
   73SLPC   C28 6436   4.561   0.755   9.820 -0.3456  0.6818 -0.0414
   73SLPC   H8R 6437   4.462   0.723   9.860 -0.4006 -1.8553 -1.9652
   73SLPC   H8S 6438   4.596   0.664   9.766 -2.1204 -0.0974  0.0345
   73SLPC   C29 6439   4.557   0.878   9.735 -0.2843 -0.2002 -0.0273
   73SLPC   H9R 6440   4.525   0.969   9.788 -1.1324  0.8788 -2.2768
   73SLPC  C210 6441   4.584   0.883   9.603  0.2309  0.0381  0.2358
   73SLPC  H10R 6442   4.576   0.983   9.557 -0.8453 -0.1329  0.0132
   73SLPC  C211 6443   4.629   0.774   9.510  0.2920 -1.0386  0.1336
   73SLPC  H11R 6444   4.698   0.703   9.559 -0.3868 -2.2562 -0.6270
   73SLPC  H11S 6445   4.694   0.810   9.427  3.0443 -1.0080  2.1549
   73SLPC  C212 6446   4.519   0.692   9.457 -0.1384  0.1258 -0.9389
   73SLPC  H12R 6447   4.440   0.692   9.533  0.8712  2.3786  0.2190
   73SLPC  C213 6448   4.505   0.643   9.329 -0.1180 -0.3859 -0.2331
   73SLPC  H13R 6449   4.422   0.579   9.297 -0.6838  0.1695  0.0974
   73SLPC  C214 6450   4.599   0.656   9.206  0.0619 -0.6331 -0.1204
   73SLPC  H14R 6451   4.639   0.553   9.192 -1.7957 -1.2763 -1.0711
   73SLPC  H14S 6452   4.685   0.723   9.225 -0.7579  0.5592 -0.4772
   73SLPC  C215 6453   4.541   0.697   9.076 -0.7135  0.2622  0.2697
   73SLPC  H15R 6454   4.635   0.693   9.016  0.5425  1.2618  2.0680
   73SLPC  H15S 6455   4.502   0.801   9.075  0.1434  0.5937  0.3385
   73SLPC  C216 6456   4.431   0.599   9.007 -0.8499 -0.1146  0.3250
   73SLPC  H16R 6457   4.340   0.611   9.069 -0.9668  2.0030 -0.1752
   73SLPC  H16S 6458   4.489   0.505   8.994  0.3093  0.6010  0.1512
   73SLPC  C217 6459   4.395   0.654   8.868  0.3229  0.2673 -0.5161
   73SLPC  H17R 6460   4.492   0.665   8.816  2.8691 -0.8037  3.5613
   73SLPC  H17S 6461   4.361   0.760   8.874 -0.2080  0.1590 -1.4001
   73SLPC  C218 6462   4.296   0.566   8.793 -0.5200 -0.1070 -0.4343
   73SLPC  H18R 6463   4.327   0.460   8.787 -0.0518 -0.0601  0.8202
   73SLPC  H18S 6464   4.285   0.596   8.687  1.7888  2.9624  0.0174
   73SLPC  H18T 6465   4.202   0.576   8.852 -0.5878  0.3408 -0.6147
   73SLPC   C33 6466   3.978   0.833  10.106  0.5135  0.9769 -0.3532
   73SLPC   H3X 6467   3.919   0.751  10.152  1.5565  0.3550 -0.0835
   73SLPC   H3Y 6468   4.080   0.821  10.149 -0.2574  1.6049  1.7581
   73SLPC   C34 6469   3.978   0.803   9.952  0.0996 -0.0438  0.2363
   73SLPC   H4X 6470   3.878   0.822   9.907  0.8981 -2.7676 -3.1223
   73SLPC   H4Y 6471   4.000   0.697   9.930 -1.1966 -0.3070  0.1673
   73SLPC   C35 6472   4.091   0.875   9.875 -0.0364  0.0391 -0.4366
   73SLPC   H5X 6473   4.171   0.871   9.953 -0.3651 -2.6607 -0.1403
   73SLPC   H5Y 6474   4.065   0.980   9.850  0.7572  0.4528  0.3966
   73SLPC   C36 6475   4.141   0.807   9.749 -0.6733 -0.4775  0.3349
   73SLPC   H6X 6476   4.176   0.703   9.764 -1.6563 -0.6352  1.7170
   73SLPC   H6Y 6477   4.221   0.871   9.704 -0.4386 -1.4216 -0.6332
   73SLPC   C37 6478   4.045   0.799   9.633 -0.1872 -0.4183  0.0887
   73SLPC   H7X 6479   3.992   0.896   9.620  2.3289  1.3642  2.0512
   73SLPC   H7Y 6480   3.969   0.721   9.657  0.0434  0.0849  2.8704
   73SLPC   C38 6481   4.117   0.778   9.501 -0.0140  0.0582  0.5506
   73SLPC   H8X 6482   4.177   0.684   9.496  1.6006  1.0686  0.5106
   73SLPC   H8Y 6483   4.200   0.852   9.498 -0.2429  0.2883 -1.8327
   73SLPC   C39 6484   4.021   0.801   9.380 -0.0846 -0.0822 -0.0613
   73SLPC   H9X 6485   3.990   0.907   9.386 -1.9547 -0.5706 -0.3471
   73SLPC   H9Y 6486   3.934   0.735   9.404 -0.6313  0.9349  0.8682
   73SLPC  C310 6487   4.086   0.766   9.248 -0.2021  0.6534  0.6801
   73SLPC  H10X 6488   4.139   0.668   9.252 -0.2403  0.6012  0.0186
   73SLPC  H10Y 6489   4.155   0.850   9.225  1.1635  0.2140  2.9446
   73SLPC  C311 6490   3.978   0.739   9.150 -0.0637 -0.8304 -0.4304
   73SLPC  H11X 6491   3.907   0.824   9.139  0.1816 -0.6252 -0.4102
   73SLPC  H11Y 6492   3.909   0.659   9.186 -1.7162  1.0748  0.9117
   73SLPC  C312 6493   4.025   0.702   9.006 -0.5283  0.3211 -0.0868
   73SLPC  H12X 6494   4.046   0.593   9.007  1.5182  0.6765  0.1175
   73SLPC  H12Y 6495   4.116   0.750   8.967  0.4018  0.4006  2.0524
   73SLPC  C313 6496   3.902   0.730   8.903  1.1412  0.6545 -0.1730
   73SLPC  H13X 6497   3.851   0.828   8.919  0.0214  0.0781 -0.0893
   73SLPC  H13Y 6498   3.823   0.653   8.916  1.1438  0.7303  0.3381
   73SLPC  C314 6499   3.951   0.714   8.753  0.3420 -0.4268  0.8208
   73SLPC  H14X 6500   4.003   0.617   8.743  0.9861 -0.1542  1.4555
   73SLPC  H14Y 6501   4.023   0.795   8.728  2.1163 -2.5224 -1.3883
   73SLPC  C315 6502   3.832   0.719   8.653  0.0052 -0.4279  0.3163
   73SLPC  H15X 6503   3.750   0.789   8.681  2.0824  2.4099 -0.1655
   73SLPC  H15Y 6504   3.785   0.619   8.644 -1.5122  0.0568  2.1949
   73SLPC  C316 6505   3.865   0.760   8.503 -0.5388  1.2053 -0.4659
   73SLPC  H16X 6506   3.774   0.764   8.441 -0.7556 -0.1749 -0.2689
   73SLPC  H16Y 6507   3.921   0.671   8.466  1.2728  1.8794  0.5108
   73SLPC  C317 6508   3.940   0.886   8.479  0.1707 -0.0651 -0.2497
   73SLPC  H17X 6509   3.966   0.888   8.371  0.9291 -0.2958 -0.0710
   73SLPC  H17Y 6510   4.028   0.891   8.545 -0.2622 -2.4115  0.5787
   73SLPC  C318 6511   3.842   1.010   8.503 -0.1680 -0.2725  0.3042
   73SLPC  H18X 6512   3.739   0.997   8.463  0.7685 -1.3139 -1.8995
   73SLPC  H18Y 6513   3.900   1.094   8.459  2.5033 -2.5223 -0.7420
   73SLPC  H18Z 6514   3.851   1.032   8.612  0.0110 -1.1004  0.4625
   74SLPC     N 6515   6.415   1.285  10.576 -0.1758 -0.4018 -0.2582
   74SLPC   C13 6516   6.469   1.349  10.694 -0.4115 -0.4415  0.3314
   74SLPC  H13A 6517   6.395   1.424  10.719 -0.6351 -0.4227 -0.3704
   74SLPC  H13B 6518   6.477   1.278  10.775 -0.6649  1.5468  2.1959
   74SLPC  H13C 6519   6.565   1.398  10.689  0.6435 -2.5663 -2.4604
   74SLPC   C14 6520   6.408   1.402  10.482 -0.3595  0.5160 -0.0620
   74SLPC  H14A 6521   6.349   1.382  10.394  1.0186  2.9169 -1.6634
   74SLPC  H14B 6522   6.356   1.481  10.535  0.5992  1.5229 -0.5806
   74SLPC  H14C 6523   6.509   1.430  10.456 -0.4054  1.4510  0.6994
   74SLPC   C15 6524   6.273   1.243  10.611  1.4117 -0.2607 -0.2036
   74SLPC  H15A 6525   6.279   1.187  10.703 -2.6982 -0.5982  0.0645
   74SLPC  H15B 6526   6.205   1.326  10.626  1.6544 -0.3312  1.5717
   74SLPC  H15C 6527   6.238   1.179  10.532  1.8404  1.5144 -1.9132
   74SLPC   C12 6528   6.499   1.171  10.518 -0.5657  0.0804  0.3724
   74SLPC  H12A 6529   6.444   1.111  10.448  1.4419  0.6359 -1.8253
   74SLPC  H12B 6530   6.529   1.111  10.603  1.9868  0.5586 -0.0888
   74SLPC   C11 6531   6.636   1.214  10.450 -0.1670 -0.5426 -0.0700
   74SLPC  H11A 6532   6.623   1.276  10.359  1.3342 -1.8951 -1.2711
   74SLPC  H11B 6533   6.691   1.128  10.405  1.9214  0.2774  0.7750
   74SLPC     P 6534   6.803   1.199  10.634  0.0456  0.0838  0.0461
   74SLPC   O13 6535   6.847   1.270  10.756  0.0302  0.3382  0.3634
   74SLPC   O14 6536   6.732   1.072  10.655  0.3197 -0.7122 -0.2600
   74SLPC   O12 6537   6.720   1.291  10.536 -0.5053  0.6777 -0.3682
   74SLPC   O11 6538   6.930   1.181  10.541 -0.0912 -0.1810  0.0686
   74SLPC    C1 6539   7.014   1.291  10.507  0.1027 -0.4655 -0.3465
   74SLPC    HA 6540   6.998   1.384  10.566  0.8790 -1.6281  1.7733
   74SLPC    HB 6541   7.115   1.255  10.534 -1.1362 -1.8595  2.9449
   74SLPC    C2 6542   7.012   1.324  10.354  0.0171  0.1199  0.5869
   74SLPC    HS 6543   7.111   1.372  10.342 -1.0265  1.6409 -3.9648
   74SLPC   O21 6544   6.903   1.412  10.335 -0.0290 -0.1035 -0.4236
   74SLPC   C21 6545   6.927   1.497  10.241  0.3526 -0.5074 -0.4237
   74SLPC   O22 6546   7.034   1.519  10.187 -0.6513 -0.1151 -0.2849
   74SLPC   C22 6547   6.803   1.568  10.198 -0.4320  0.0118  0.3220
   74SLPC   H2R 6548   6.783   1.651  10.268 -0.1908 -0.9227  1.5316
   74SLPC   H2S 6549   6.827   1.616  10.100 -0.3878 -0.6491  0.0025
   74SLPC    C3 6550   7.009   1.194  10.273  0.1353 -0.7240 -0.2762
   74SLPC    HX 6551   6.906   1.156  10.291 -0.8781  1.1021 -1.8480
   74SLPC    HY 6552   7.087   1.128  10.316  2.4880  1.3917 -1.0920
   74SLPC   O31 6553   7.041   1.222  10.142  0.5365  0.1894 -0.3688
   74SLPC   C31 6554   6.953   1.198  10.052  0.7397  0.0725 -0.3858
   74SLPC   O32 6555   6.838   1.171  10.074 -0.5249  0.0351  0.0859
   74SLPC   C32 6556   6.993   1.232   9.912 -0.3126 -0.0688  0.0795
   74SLPC   H2X 6557   7.044   1.141   9.875  4.1502  1.7451  1.0408
   74SLPC   H2Y 6558   7.073   1.309   9.914  0.3483 -0.6667 -1.8774
   74SLPC   C23 6559   6.665   1.495  10.188 -0.4343  0.0218 -1.2654
   74SLPC   H3R 6560   6.624   1.475  10.289  2.8486 -2.1619 -0.2202
   74SLPC   H3S 6561   6.682   1.396  10.139  1.7445 -1.2090  1.6675
   74SLPC   C24 6562   6.562   1.582  10.111 -0.0236  0.6345 -0.6488
   74SLPC   H4R 6563   6.602   1.614  10.013 -0.2420 -1.3055 -1.4200
   74SLPC   H4S 6564   6.511   1.665  10.164  0.2911  1.0471 -0.9871
   74SLPC   C25 6565   6.443   1.498  10.074  0.6765  0.2912  0.6731
   74SLPC   H5R 6566   6.406   1.452  10.168  1.0871 -1.7927 -0.1119
   74SLPC   H5S 6567   6.476   1.413  10.009  0.5225  2.2015 -2.0659
   74SLPC   C26 6568   6.326   1.582  10.009  0.2299 -0.0116 -0.3796
   74SLPC   H6R 6569   6.317   1.679  10.063  0.8639 -0.5650  0.7688
   74SLPC   H6S 6570   6.231   1.525  10.010  0.2059 -0.0059  1.1582
   74SLPC   C27 6571   6.349   1.590   9.861 -0.2148  0.5788 -0.5932
   74SLPC   H7R 6572   6.385   1.490   9.828  1.3403  0.3132  1.6932
   74SLPC   H7S 6573   6.446   1.644   9.847 -0.5449  1.8469  1.5550
   74SLPC   C28 6574   6.232   1.632   9.772 -0.0684  0.4539 -0.3550
   74SLPC   H8R 6575   6.201   1.733   9.808 -2.3335 -0.0720 -0.6725
   74SLPC   H8S 6576   6.147   1.562   9.791  0.5404 -0.9203 -2.4003
   74SLPC   C29 6577   6.264   1.632   9.625 -1.0887 -0.0540  0.6229
   74SLPC   H9R 6578   6.301   1.537   9.582 -1.9186 -0.2436  0.3259
   74SLPC  C210 6579   6.268   1.741   9.545  0.5604 -0.1614  0.0015
   74SLPC  H10R 6580   6.303   1.713   9.445 -1.9690 -0.5085 -0.8717
   74SLPC  C211 6581   6.229   1.884   9.554 -0.3647 -0.1907  0.3752
   74SLPC  H11R 6582   6.191   1.906   9.656 -3.6286  0.6177 -0.8963
   74SLPC  H11S 6583   6.140   1.901   9.490 -0.5608 -0.5568  0.5478
   74SLPC  C212 6584   6.355   1.963   9.516  0.5308 -0.7600  0.1212
   74SLPC  H12R 6585   6.429   1.960   9.597 -1.8425 -0.7630  2.4090
   74SLPC  C213 6586   6.377   2.039   9.407  0.5033 -0.5960  1.1471
   74SLPC  H13R 6587   6.471   2.093   9.385 -0.9991  2.4193  1.5948
   74SLPC  C214 6588   6.276   2.053   9.294 -0.1377 -0.8800  0.1520
   74SLPC  H14R 6589   6.248   2.160   9.290 -3.2296 -1.5056  1.7107
   74SLPC  H14S 6590   6.181   2.003   9.326  0.5220 -1.1308  1.8405
   74SLPC  C215 6591   6.315   2.008   9.151  0.3079  0.0229  0.2296
   74SLPC  H15R 6592   6.218   1.987   9.101 -0.0432  1.1966  0.3798
   74SLPC  H15S 6593   6.366   1.910   9.155 -0.3599 -0.3277  0.2070
   74SLPC  C216 6594   6.410   2.090   9.064 -0.5486 -0.2412 -0.1020
   74SLPC  H16R 6595   6.516   2.104   9.096 -0.4103 -0.0817 -0.6215
   74SLPC  H16S 6596   6.370   2.193   9.059 -1.6337 -0.6163  0.4792
   74SLPC  C217 6597   6.416   2.023   8.919 -0.0018 -0.7225  0.0048
   74SLPC  H17R 6598   6.316   2.009   8.875  0.5239 -1.3766 -1.0162
   74SLPC  H17S 6599   6.462   1.922   8.920  1.7631  0.0095 -1.2777
   74SLPC  C218 6600   6.501   2.112   8.828  0.5499  0.1937  0.6625
   74SLPC  H18R 6601   6.527   2.062   8.732 -1.3309 -1.0290  0.7488
   74SLPC  H18S 6602   6.594   2.145   8.880  0.1737  1.7341  0.4052
   74SLPC  H18T 6603   6.446   2.206   8.805 -0.0747 -0.2798  0.2044
   74SLPC   C33 6604   6.892   1.294   9.818 -0.6351 -0.2344 -0.8036
   74SLPC   H3X 6605   6.849   1.385   9.865  1.5823 -0.2583  1.5395
   74SLPC   H3Y 6606   6.818   1.212   9.806 -2.3160  0.7930  1.6768
   74SLPC   C34 6607   6.953   1.347   9.686  0.2732  0.1630 -0.2481
   74SLPC   H4X 6608   7.011   1.261   9.646 -0.5693 -1.0231  1.0274
   74SLPC   H4Y 6609   7.031   1.424   9.703 -0.2999  0.7807 -0.3731
   74SLPC   C35 6610   6.866   1.394   9.570  0.0186  0.9788 -0.3103
   74SLPC   H5X 6611   6.817   1.494   9.580 -0.0667  0.9864 -0.7963
   74SLPC   H5Y 6612   6.783   1.323   9.552 -1.6721  3.3050 -2.4889
   74SLPC   C36 6613   6.955   1.414   9.446  0.1690  0.1863 -0.2576
   74SLPC   H6X 6614   7.039   1.341   9.450  0.8037  0.8613 -0.9399
   74SLPC   H6Y 6615   7.013   1.508   9.444  3.1224 -1.5272 -1.3411
   74SLPC   C37 6616   6.873   1.397   9.322  0.1560  0.1418  0.4483
   74SLPC   H7X 6617   6.806   1.478   9.286  0.1909 -0.1242 -0.2404
   74SLPC   H7Y 6618   6.807   1.308   9.338  2.2406 -1.3452  1.1862
   74SLPC   C38 6619   6.963   1.346   9.203 -0.0054 -0.2003  0.1274
   74SLPC   H8X 6620   6.901   1.336   9.111  1.6459  2.2543 -1.3598
   74SLPC   H8Y 6621   7.005   1.246   9.227 -0.8650 -0.0282  2.6820
   74SLPC   C39 6622   7.073   1.450   9.159  0.1068 -0.3089  0.2081
   74SLPC   H9X 6623   7.152   1.482   9.229  1.8149  0.5247 -1.9775
   74SLPC   H9Y 6624   7.021   1.544   9.129 -0.3160 -0.0773  1.6214
   74SLPC  C310 6625   7.141   1.413   9.021 -0.4875  0.1820 -0.9721
   74SLPC  H10X 6626   7.185   1.507   8.981  0.0466  0.9471  1.2788
   74SLPC  H10Y 6627   7.047   1.388   8.967 -2.7580  0.6226  2.4088
   74SLPC  C311 6628   7.240   1.294   9.019  0.1282  0.3299  0.7757
   74SLPC  H11X 6629   7.182   1.212   9.067  0.3659 -2.0721 -2.7122
   74SLPC  H11Y 6630   7.333   1.309   9.079  0.7607  0.9969 -0.3311
   74SLPC  C312 6631   7.274   1.243   8.880  0.8510  0.1592  0.2384
   74SLPC  H12X 6632   7.336   1.151   8.883  0.5844 -0.0541 -0.6860
   74SLPC  H12Y 6633   7.339   1.310   8.821 -0.4852 -0.5402 -2.1537
   74SLPC  C313 6634   7.144   1.210   8.788 -0.9385 -0.6518 -0.1011
   74SLPC  H13X 6635   7.073   1.295   8.798 -1.1939 -0.8655 -0.0706
   74SLPC  H13Y 6636   7.096   1.121   8.834 -0.3444 -1.2544 -0.6249
   74SLPC  C314 6637   7.174   1.181   8.645 -0.1136 -0.3128  0.1094
   74SLPC  H14X 6638   7.233   1.088   8.647  1.4102  0.5038 -2.1739
   74SLPC  H14Y 6639   7.235   1.264   8.603 -2.1189  1.8085  1.1105
   74SLPC  C315 6640   7.048   1.170   8.555  0.2077 -0.1466  0.1270
   74SLPC  H15X 6641   6.973   1.252   8.569 -1.5379 -2.0531  3.1650
   74SLPC  H15Y 6642   6.988   1.081   8.584  2.4974 -2.1228 -0.8593
   74SLPC  C316 6643   7.085   1.168   8.407  0.0759  0.0967  0.2513
   74SLPC  H16X 6644   7.157   1.089   8.379 -1.9759 -1.4866 -0.8681
   74SLPC  H16Y 6645   7.124   1.270   8.391 -3.1194  1.3758 -0.1467
   74SLPC  C317 6646   6.957   1.130   8.324  0.0726 -0.4788  0.3993
   74SLPC  H17X 6647   6.913   1.030   8.344 -2.3766  0.3063 -0.7445
   74SLPC  H17Y 6648   6.982   1.132   8.216  0.2422 -0.2859  0.4425
   74SLPC  C318 6649   6.842   1.234   8.313  0.0969 -0.4853  0.0056
   74SLPC  H18X 6650   6.879   1.329   8.270 -0.5139 -0.5113 -0.5929
   74SLPC  H18Y 6651   6.779   1.261   8.401 -0.6536  2.2841 -1.2747
   74SLPC  H18Z 6652   6.773   1.206   8.230 -3.1773  2.9522  1.2699
   75SLPC     N 6653   3.109   3.959   6.436  0.1121  0.6474 -0.3700
   75SLPC   C13 6654   3.033   3.878   6.339  0.5370 -0.4505  0.3261
   75SLPC  H13A 6655   2.952   3.936   6.298 -1.2030 -1.6377  1.9161
   75SLPC  H13B 6656   3.089   3.844   6.252 -0.9709 -0.7640 -0.5685
   75SLPC  H13C 6657   2.985   3.796   6.391  1.0643 -2.7618 -2.5473
   75SLPC   C14 6658   3.205   4.042   6.373  0.1103  0.2068 -0.3863
   75SLPC  H14A 6659   3.168   4.117   6.306  0.1274  1.2537  0.7363
   75SLPC  H14B 6660   3.257   4.106   6.442 -0.9893  1.2570 -0.4944
   75SLPC  H14C 6661   3.291   3.995   6.327  0.5837  1.7700 -1.1607
   75SLPC   C15 6662   3.189   3.865   6.525 -0.2903 -0.1089 -0.1691
   75SLPC  H15A 6663   3.268   3.822   6.466 -0.1895  1.1675 -1.0113
   75SLPC  H15B 6664   3.227   3.926   6.606  0.5808  0.7997 -1.2307
   75SLPC  H15C 6665   3.136   3.783   6.571  1.2310 -1.1803 -0.2527
   75SLPC   C12 6666   3.016   4.040   6.529 -0.7174  0.5102  0.4998
   75SLPC  H12A 6667   3.070   4.112   6.589  0.7749  0.0733 -0.2536
   75SLPC  H12B 6668   2.975   3.966   6.596 -0.4679  0.0327  0.1343
   75SLPC   C11 6669   2.886   4.099   6.475 -0.1699 -0.1158  0.2190
   75SLPC  H11A 6670   2.902   4.174   6.395  0.6436  1.5780  1.9102
   75SLPC  H11B 6671   2.840   4.156   6.558  0.3714 -1.0564  1.1904
   75SLPC     P 6672   2.678   3.937   6.502  0.4296  0.1048  0.1805
   75SLPC   O13 6673   2.569   3.887   6.415  0.3927  0.2235 -0.0075
   75SLPC   O14 6674   2.738   3.832   6.586 -1.2036 -0.5301  0.0956
   75SLPC   O12 6675   2.795   4.004   6.417 -0.2607  0.4855 -0.3653
   75SLPC   O11 6676   2.634   4.054   6.598 -0.5116 -0.3137 -0.4325
   75SLPC    C1 6677   2.506   4.053   6.659 -0.3028 -0.3971  0.0046
   75SLPC    HA 6678   2.448   4.143   6.628  1.6559  0.9340 -0.0302
   75SLPC    HB 6679   2.449   3.963   6.627  0.4454 -0.4382 -1.2795
   75SLPC    C2 6680   2.512   4.042   6.817 -0.4414  0.2647 -1.1524
   75SLPC    HS 6681   2.407   4.044   6.853  0.0488  0.9424  0.3019
   75SLPC   O21 6682   2.597   4.140   6.878  0.5958  0.1782 -0.5202
   75SLPC   C21 6683   2.537   4.244   6.924  0.2087  0.0689  0.2410
   75SLPC   O22 6684   2.414   4.267   6.925 -0.6883 -0.4755  0.8961
   75SLPC   C22 6685   2.631   4.331   6.998 -0.1000  0.1272  0.0363
   75SLPC   H2R 6686   2.693   4.262   7.059 -0.4324 -0.4131 -0.2277
   75SLPC   H2S 6687   2.694   4.382   6.921  2.2581  1.9227  2.9346
   75SLPC    C3 6688   2.570   3.895   6.858  0.5971 -0.4403  0.1999
   75SLPC    HX 6689   2.680   3.914   6.852  0.3566  1.7612  1.4848
   75SLPC    HY 6690   2.536   3.816   6.788 -0.0775  1.2804 -1.5013
   75SLPC   O31 6691   2.519   3.863   6.995  0.1330 -0.4031 -0.2882
   75SLPC   C31 6692   2.605   3.802   7.074  0.1845  0.2926  0.3290
   75SLPC   O32 6693   2.720   3.788   7.050  0.1189  0.5192 -0.3034
   75SLPC   C32 6694   2.542   3.753   7.204  0.2140  0.3940  0.0935
   75SLPC   H2X 6695   2.450   3.705   7.165  0.6818  0.8811 -1.6839
   75SLPC   H2Y 6696   2.523   3.838   7.273  2.5939 -1.2301  3.0002
   75SLPC   C23 6697   2.549   4.445   7.063  0.4878 -0.1862 -0.2825
   75SLPC   H3R 6698   2.477   4.486   6.990  1.0001 -0.6803 -1.0817
   75SLPC   H3S 6699   2.626   4.522   7.086  1.3162 -0.7028 -1.2411
   75SLPC   C24 6700   2.468   4.408   7.194 -1.1022  0.4119  1.5581
   75SLPC   H4R 6701   2.386   4.344   7.157 -0.0850 -0.9270  1.5516
   75SLPC   H4S 6702   2.430   4.498   7.247  0.5701  1.9011  0.4053
   75SLPC   C25 6703   2.550   4.328   7.291 -0.2879  0.5720  0.3932
   75SLPC   H5R 6704   2.639   4.385   7.327  1.1191 -0.7810 -0.7784
   75SLPC   H5S 6705   2.593   4.237   7.243 -2.0341 -0.2234  0.2774
   75SLPC   C26 6706   2.459   4.287   7.404  0.8200 -0.1864 -0.5680
   75SLPC   H6R 6707   2.372   4.233   7.362  0.6329  0.2299 -0.7256
   75SLPC   H6S 6708   2.423   4.381   7.451  0.2752 -0.9619  0.6043
   75SLPC   C27 6709   2.530   4.198   7.509  0.2432 -1.3938 -0.3979
   75SLPC   H7R 6710   2.591   4.122   7.455  2.1579 -1.0867  1.2416
   75SLPC   H7S 6711   2.453   4.142   7.567 -1.2793 -1.8253 -2.6886
   75SLPC   C28 6712   2.620   4.275   7.603  0.4491  0.1228  0.1163
   75SLPC   H8R 6713   2.560   4.357   7.647  0.9777  0.7716 -0.3495
   75SLPC   H8S 6714   2.699   4.330   7.548 -1.0135  0.6871 -1.4920
   75SLPC   C29 6715   2.684   4.199   7.716 -0.0246  0.6624 -0.0858
   75SLPC   H9R 6716   2.749   4.116   7.684 -1.5188  0.0986 -1.8669
   75SLPC  C210 6717   2.665   4.215   7.848 -0.2389 -0.3721 -0.0373
   75SLPC  H10R 6718   2.722   4.160   7.925  0.2641  1.0913  0.6648
   75SLPC  C211 6719   2.580   4.315   7.921  0.0803  0.2084 -0.1739
   75SLPC  H11R 6720   2.575   4.290   8.029 -0.3598 -1.1177 -0.4755
   75SLPC  H11S 6721   2.477   4.315   7.879  0.4511  0.2650 -1.0959
   75SLPC  C212 6722   2.628   4.455   7.910 -0.5813  0.2105  0.0520
   75SLPC  H12R 6723   2.605   4.497   7.810  0.3496  0.0954 -0.2172
   75SLPC  C213 6724   2.693   4.533   8.001  0.4515  0.0622 -0.3780
   75SLPC  H13R 6725   2.743   4.628   7.977 -0.5079  0.5162 -0.6716
   75SLPC  C214 6726   2.727   4.492   8.143  0.1557  0.5712  1.0343
   75SLPC  H14R 6727   2.739   4.382   8.150 -0.3302  0.3982 -0.5525
   75SLPC  H14S 6728   2.638   4.524   8.203 -0.4643  1.2494 -0.2142
   75SLPC  C215 6729   2.856   4.558   8.192 -0.9077 -0.1408 -1.6757
   75SLPC  H15R 6730   2.952   4.523   8.149  1.2884  0.2656  2.4094
   75SLPC  H15S 6731   2.863   4.531   8.300  2.3874  0.8272 -1.5451
   75SLPC  C216 6732   2.857   4.713   8.196  0.2025 -0.0145  0.6974
   75SLPC  H16R 6733   2.840   4.751   8.299 -1.3300 -0.4708  0.6472
   75SLPC  H16S 6734   2.766   4.739   8.137  0.0159 -1.0580  0.5086
   75SLPC  C217 6735   2.986   4.776   8.132 -0.1801 -0.7390 -0.6458
   75SLPC  H17R 6736   3.003   4.717   8.039 -0.8111 -0.1281 -1.1568
   75SLPC  H17S 6737   3.071   4.758   8.201  0.5382 -0.9949 -1.5753
   75SLPC  C218 6738   2.979   4.922   8.099 -0.3607 -0.5469 -0.6510
   75SLPC  H18R 6739   2.946   4.976   8.191  0.9077  1.2040 -1.1574
   75SLPC  H18S 6740   2.914   4.943   8.012 -0.0909  0.4792 -0.6242
   75SLPC  H18T 6741   3.084   4.956   8.089 -0.0024 -0.6184  2.1033
   75SLPC   C33 6742   2.625   3.642   7.265 -0.0439  0.1798 -0.7972
   75SLPC   H3X 6743   2.558   3.581   7.329 -0.1278 -0.0865 -1.1330
   75SLPC   H3Y 6744   2.663   3.578   7.182  2.2686  3.4062 -2.4166
   75SLPC   C34 6745   2.743   3.692   7.358  0.0920  0.7161 -0.3118
   75SLPC   H4X 6746   2.682   3.737   7.439  0.4526 -2.7199  2.0917
   75SLPC   H4Y 6747   2.813   3.760   7.306  1.2360  0.4430  0.8362
   75SLPC   C35 6748   2.819   3.573   7.429 -0.2874 -0.4691 -0.4492
   75SLPC   H5X 6749   2.860   3.523   7.339 -1.0870  1.5386 -2.0157
   75SLPC   H5Y 6750   2.742   3.511   7.479  0.5625 -0.1106  1.4204
   75SLPC   C36 6751   2.927   3.615   7.529  0.2060  1.2676 -0.0150
   75SLPC   H6X 6752   2.996   3.689   7.483  0.6693  1.6773  1.2919
   75SLPC   H6Y 6753   2.980   3.525   7.566 -0.6723  1.6067  2.2431
   75SLPC   C37 6754   2.865   3.691   7.644 -0.0628 -0.9118  0.0732
   75SLPC   H7X 6755   2.815   3.622   7.715  1.7989 -0.9356  1.4273
   75SLPC   H7Y 6756   2.791   3.768   7.614 -1.6967 -2.3466  0.2410
   75SLPC   C38 6757   2.980   3.744   7.729 -0.1945 -0.0308  0.1379
   75SLPC   H8X 6758   2.940   3.792   7.821  0.0853 -0.5732  0.5465
   75SLPC   H8Y 6759   3.039   3.821   7.674 -0.8888 -1.6910 -3.2328
   75SLPC   C39 6760   3.087   3.651   7.787 -0.1281  0.2960  0.8835
   75SLPC   H9X 6761   3.150   3.706   7.860  3.6745 -1.4778 -0.7736
   75SLPC   H9Y 6762   3.150   3.605   7.708 -1.8367  2.1237 -1.6811
   75SLPC  C310 6763   3.023   3.530   7.859  0.0496 -0.4856  0.6053
   75SLPC  H10X 6764   3.106   3.466   7.894  2.3662  1.6271 -0.7043
   75SLPC  H10Y 6765   2.971   3.468   7.784 -0.7270  0.4107  0.3821
   75SLPC  C311 6766   2.931   3.565   7.986 -0.8794  0.2910 -0.9287
   75SLPC  H11X 6767   2.913   3.467   8.036  1.0206  1.4303  2.2799
   75SLPC  H11Y 6768   2.838   3.619   7.959 -1.3040 -0.4279 -0.9365
   75SLPC  C312 6769   3.002   3.644   8.098  0.6040  0.1930  0.5635
   75SLPC  H12X 6770   2.942   3.659   8.190  1.1292  0.9934  0.7857
   75SLPC  H12Y 6771   3.000   3.743   8.048 -2.4573 -0.2422 -0.3678
   75SLPC  C313 6772   3.146   3.597   8.132  0.8725  0.2073  0.1936
   75SLPC  H13X 6773   3.219   3.596   8.048  1.4272 -1.7189  0.6455
   75SLPC  H13Y 6774   3.148   3.493   8.173  1.4177 -0.1547 -0.7280
   75SLPC  C314 6775   3.221   3.682   8.233 -0.5851  0.5779  0.8554
   75SLPC  H14X 6776   3.154   3.676   8.321 -1.4836  0.9890  0.2057
   75SLPC  H14Y 6777   3.221   3.792   8.216 -1.0349  0.5497  0.6676
   75SLPC  C315 6778   3.362   3.629   8.260  0.6928  0.8010  0.1784
   75SLPC  H15X 6779   3.417   3.618   8.164  1.3052  0.5777  0.5447
   75SLPC  H15Y 6780   3.364   3.526   8.302 -0.5024  0.2380 -1.0671
   75SLPC  C316 6781   3.431   3.719   8.365  0.0937 -0.5158  0.4157
   75SLPC  H16X 6782   3.368   3.729   8.456 -1.7198  0.9749 -0.9217
   75SLPC  H16Y 6783   3.450   3.819   8.322  2.0842 -1.5027 -1.1364
   75SLPC  C317 6784   3.552   3.656   8.423 -1.0945 -0.5148  0.7154
   75SLPC  H17X 6785   3.630   3.643   8.345 -0.9492 -2.5507  1.1534
   75SLPC  H17Y 6786   3.524   3.563   8.476 -1.1048  0.9725  3.5444
   75SLPC  C318 6787   3.629   3.733   8.527  0.0111 -0.0797 -1.4142
   75SLPC  H18X 6788   3.561   3.742   8.614 -0.0386 -1.2222 -1.3220
   75SLPC  H18Y 6789   3.652   3.833   8.485  0.7049  0.1977 -0.3955
   75SLPC  H18Z 6790   3.725   3.681   8.549  0.6020  1.4354 -0.2869
   76SLPC     N 6791   1.497   1.349   5.805  0.0290 -0.8606 -0.1154
   76SLPC   C13 6792   1.407   1.258   5.722  0.4018  0.5559  0.1011
   76SLPC  H13A 6793   1.426   1.156   5.752 -0.6104 -0.2387 -1.8478
   76SLPC  H13B 6794   1.303   1.277   5.742 -0.2051 -2.7810  0.6416
   76SLPC  H13C 6795   1.416   1.268   5.615 -0.6013 -0.3136 -0.0803
   76SLPC   C14 6796   1.485   1.491   5.756  0.0593 -0.3704 -0.0722
   76SLPC  H14A 6797   1.507   1.503   5.651  0.4535 -1.8756 -0.1793
   76SLPC  H14B 6798   1.380   1.517   5.762  0.1412  0.7692 -2.4953
   76SLPC  H14C 6799   1.542   1.566   5.810  1.5508 -0.7349 -1.0901
   76SLPC   C15 6800   1.642   1.309   5.788 -0.0311 -0.2674  0.3908
   76SLPC  H15A 6801   1.714   1.372   5.840 -1.6597  1.7989  0.2797
   76SLPC  H15B 6802   1.652   1.212   5.834 -2.6551 -1.0607 -0.5695
   76SLPC  H15C 6803   1.663   1.298   5.682  0.2861 -1.2790  0.5497
   76SLPC   C12 6804   1.466   1.350   5.956  0.2120 -0.0545 -0.0446
   76SLPC  H12A 6805   1.535   1.402   6.022 -0.1700  0.6815 -0.2126
   76SLPC  H12B 6806   1.492   1.254   5.997  1.9790 -0.2834 -1.5273
   76SLPC   C11 6807   1.328   1.395   6.006  0.8643  0.0345 -0.1650
   76SLPC  H11A 6808   1.336   1.506   6.009 -1.3024  0.4204 -3.3287
   76SLPC  H11B 6809   1.305   1.348   6.104 -0.1674 -0.5026 -0.6434
   76SLPC     P 6810   1.086   1.423   5.937  0.2865  0.3858  0.5251
   76SLPC   O13 6811   1.072   1.511   5.817  0.4366 -0.0950  0.5405
   76SLPC   O14 6812   0.970   1.329   5.942 -0.0601 -0.8645  0.1055
   76SLPC   O12 6813   1.220   1.345   5.924 -0.8312  0.2530  0.1105
   76SLPC   O11 6814   1.096   1.507   6.066 -0.0286  0.1064 -1.0171
   76SLPC    C1 6815   0.980   1.556   6.134 -0.3456  0.1744 -0.0601
   76SLPC    HA 6816   0.934   1.642   6.081  1.6050  3.0456  2.5216
   76SLPC    HB 6817   0.905   1.474   6.140  2.0089 -2.1862 -0.6767
   76SLPC    C2 6818   1.023   1.584   6.283  0.1759 -0.1331  0.4876
   76SLPC    HS 6819   0.939   1.619   6.347 -0.0496  0.5166 -0.1551
   76SLPC   O21 6820   1.122   1.690   6.287 -1.1434  0.0969 -0.1954
   76SLPC   C21 6821   1.084   1.810   6.279  0.3497  0.2816  0.5568
   76SLPC   O22 6822   0.967   1.847   6.276 -0.1151 -0.8980  0.2845
   76SLPC   C22 6823   1.205   1.902   6.301  0.1871 -1.0907  0.3637
   76SLPC   H2R 6824   1.273   1.876   6.217 -1.8495 -3.2438 -0.7456
   76SLPC   H2S 6825   1.163   2.004   6.290 -1.1122 -1.7860 -2.0445
   76SLPC    C3 6826   1.065   1.452   6.342 -0.1386  0.0234  0.5865
   76SLPC    HX 6827   1.153   1.416   6.285 -0.8237  1.1804 -1.2814
   76SLPC    HY 6828   0.981   1.382   6.322  1.1658 -0.9634 -1.8758
   76SLPC   O31 6829   1.098   1.469   6.483 -0.1021 -0.2331  0.2885
   76SLPC   C31 6830   1.230   1.455   6.518 -0.2485  0.8034  0.1624
   76SLPC   O32 6831   1.319   1.437   6.435  0.3009  0.3490  0.3027
   76SLPC   C32 6832   1.241   1.433   6.670 -0.1059 -0.0550  0.0645
   76SLPC   H2X 6833   1.171   1.352   6.701 -0.9816 -0.1306 -1.9832
   76SLPC   H2Y 6834   1.205   1.522   6.724  0.6080  0.1285  0.2539
   76SLPC   C23 6835   1.272   1.882   6.439  0.7570  0.0001  0.1139
   76SLPC   H3R 6836   1.348   1.960   6.459 -0.4730  0.9883  1.1169
   76SLPC   H3S 6837   1.319   1.781   6.440  0.7390 -0.0065  0.3705
   76SLPC   C24 6838   1.177   1.881   6.565 -0.6811 -0.4307 -0.0862
   76SLPC   H4R 6839   1.093   1.811   6.552  0.6636 -2.0419 -0.4634
   76SLPC   H4S 6840   1.146   1.987   6.577  2.3135  0.3985  1.6830
   76SLPC   C25 6841   1.244   1.853   6.701 -0.4543  0.5894  0.4151
   76SLPC   H5R 6842   1.321   1.931   6.721 -1.0475  1.0664  0.8840
   76SLPC   H5S 6843   1.292   1.753   6.712 -0.7775  0.1846 -1.5643
   76SLPC   C26 6844   1.144   1.860   6.812  0.8466 -0.7589  0.4775
   76SLPC   H6R 6845   1.057   1.798   6.784  0.1896  0.1635  0.4533
   76SLPC   H6S 6846   1.107   1.964   6.805 -2.0094 -1.8359 -3.0565
   76SLPC   C27 6847   1.209   1.842   6.951  0.7275  0.0881 -0.6104
   76SLPC   H7R 6848   1.293   1.914   6.957  0.3315  0.5163 -0.1586
   76SLPC   H7S 6849   1.254   1.741   6.961  0.2543 -0.1294 -0.6242
   76SLPC   C28 6850   1.109   1.860   7.070 -0.4233 -0.0378 -0.4539
   76SLPC   H8R 6851   1.179   1.876   7.155  2.3425  0.1483 -2.5910
   76SLPC   H8S 6852   1.061   1.959   7.055  1.1244  1.0228  1.1636
   76SLPC   C29 6853   1.015   1.746   7.094 -0.3418  0.1500  0.4088
   76SLPC   H9R 6854   0.958   1.718   7.005 -1.3149 -1.0480  1.3732
   76SLPC  C210 6855   1.012   1.673   7.206 -0.2884 -0.5405  0.2751
   76SLPC  H10R 6856   0.939   1.590   7.206 -0.6147 -0.3943 -2.7390
   76SLPC  C211 6857   1.103   1.682   7.325 -0.3310 -0.1567 -0.3414
   76SLPC  H11R 6858   1.200   1.727   7.294 -1.2485  1.2027 -1.3994
   76SLPC  H11S 6859   1.120   1.576   7.352 -1.3663 -0.0758  0.6968
   76SLPC  C212 6860   1.036   1.767   7.431  0.4524  0.5078  0.1430
   76SLPC  H12R 6861   1.056   1.874   7.418  0.7560  0.1184 -3.4120
   76SLPC  C213 6862   0.964   1.716   7.532 -0.6364 -0.0506 -0.4967
   76SLPC  H13R 6863   0.913   1.778   7.607 -1.4878 -1.6068  0.2502
   76SLPC  C214 6864   0.941   1.568   7.552  0.0925  0.0355 -0.2846
   76SLPC  H14R 6865   0.931   1.516   7.454 -1.4530 -0.1377 -0.0534
   76SLPC  H14S 6866   0.856   1.540   7.618  0.4973 -0.8112 -0.0954
   76SLPC  C215 6867   1.055   1.504   7.621  0.1044  0.6026 -0.1866
   76SLPC  H15R 6868   1.067   1.548   7.723 -0.4260  1.6249 -0.5550
   76SLPC  H15S 6869   1.147   1.519   7.561  1.3767 -0.8295  1.2773
   76SLPC  C216 6870   1.036   1.347   7.638  0.1911 -0.6444  0.3705
   76SLPC  H16R 6871   1.095   1.298   7.558  0.4634  1.6337 -0.9248
   76SLPC  H16S 6872   0.928   1.326   7.623  0.8100 -2.2436 -2.6500
   76SLPC  C217 6873   1.080   1.302   7.781  0.5847 -0.2873  0.3989
   76SLPC  H17R 6874   1.010   1.346   7.855 -0.7155 -4.0048  1.6157
   76SLPC  H17S 6875   1.185   1.329   7.806  0.5410 -0.4319  0.7399
   76SLPC  C218 6876   1.075   1.147   7.791  0.1110 -0.1787 -0.1637
   76SLPC  H18R 6877   1.159   1.106   7.731  0.2800 -0.1538  0.0566
   76SLPC  H18S 6878   0.984   1.103   7.744 -0.5672 -0.7949  1.6284
   76SLPC  H18T 6879   1.093   1.112   7.895 -2.9095  0.0211  0.5398
   76SLPC   C33 6880   1.388   1.398   6.719  0.1300 -0.4417  0.2704
   76SLPC   H3X 6881   1.460   1.480   6.700  1.0508 -1.4363 -0.6091
   76SLPC   H3Y 6882   1.426   1.317   6.654  2.3088  0.2193  0.6574
   76SLPC   C34 6883   1.406   1.366   6.871  0.4115  0.2756  0.0487
   76SLPC   H4X 6884   1.513   1.339   6.884  0.4439  0.7798  0.8908
   76SLPC   H4Y 6885   1.345   1.279   6.905 -2.7645  2.5174  0.5293
   76SLPC   C35 6886   1.371   1.488   6.955 -0.4428 -0.0736 -0.6705
   76SLPC   H5X 6887   1.263   1.512   6.954 -0.9658 -2.2459 -1.7746
   76SLPC   H5Y 6888   1.408   1.586   6.919 -0.9512 -0.1392 -1.3999
   76SLPC   C36 6889   1.417   1.477   7.104 -0.2997  0.2629  0.3799
   76SLPC   H6X 6890   1.392   1.569   7.161  0.3425 -0.6807  2.2752
   76SLPC   H6Y 6891   1.528   1.474   7.106 -0.1882  2.5819  1.2025
   76SLPC   C37 6892   1.375   1.344   7.165 -0.3311 -0.3362 -0.6374
   76SLPC   H7X 6893   1.434   1.251   7.144 -0.4090 -1.1160  2.2159
   76SLPC   H7Y 6894   1.266   1.328   7.154 -0.4985 -1.1520  1.6501
   76SLPC   C38 6895   1.375   1.357   7.327  0.8547  0.4129  0.8446
   76SLPC   H8X 6896   1.320   1.270   7.370  0.8811 -1.3179 -2.3608
   76SLPC   H8Y 6897   1.324   1.453   7.352 -2.5055 -0.3347 -2.2114
   76SLPC   C39 6898   1.507   1.352   7.401 -0.1285  0.2077 -0.3052
   76SLPC   H9X 6899   1.562   1.444   7.374 -1.0629  0.3451 -1.8892
   76SLPC   H9Y 6900   1.563   1.265   7.361  3.1247  1.6609  0.7814
   76SLPC  C310 6901   1.486   1.352   7.557  0.6722  0.5420 -0.1050
   76SLPC  H10X 6902   1.450   1.252   7.588  0.8554  0.3474 -0.5233
   76SLPC  H10Y 6903   1.411   1.429   7.588  1.3316  2.6073 -3.2100
   76SLPC  C311 6904   1.621   1.381   7.627  0.4601 -0.1052 -0.5003
   76SLPC  H11X 6905   1.625   1.488   7.658 -1.6299 -0.5901  1.7295
   76SLPC  H11Y 6906   1.705   1.358   7.557  1.6786  0.6755  0.6494
   76SLPC  C312 6907   1.641   1.297   7.754  0.6310  0.1536 -0.6544
   76SLPC  H12X 6908   1.642   1.188   7.732  2.6152  0.1114 -0.5027
   76SLPC  H12Y 6909   1.556   1.315   7.824  1.6839 -2.4939  1.5139
   76SLPC  C313 6910   1.769   1.327   7.829 -0.0260 -0.7239  0.7234
   76SLPC  H13X 6911   1.761   1.434   7.857  0.2685 -0.2883 -0.7641
   76SLPC  H13Y 6912   1.847   1.320   7.749 -0.9596  1.7618 -0.5056
   76SLPC  C314 6913   1.816   1.226   7.935 -0.3900  0.2949  0.7484
   76SLPC  H14X 6914   1.830   1.131   7.879 -0.3697  0.8302 -0.1622
   76SLPC  H14Y 6915   1.733   1.224   8.010 -0.2772 -1.3655  0.8628
   76SLPC  C315 6916   1.944   1.263   8.003 -0.5247  0.5206 -0.0110
   76SLPC  H15X 6917   2.028   1.275   7.931 -1.7867 -2.4816 -2.1614
   76SLPC  H15Y 6918   1.974   1.195   8.085 -2.5598  2.5245  2.5659
   76SLPC  C316 6919   1.942   1.403   8.068  0.6358 -0.2913 -0.4956
   76SLPC  H16X 6920   1.843   1.410   8.120  0.1619  0.8846 -1.5146
   76SLPC  H16Y 6921   1.927   1.479   7.989 -0.0300  0.9077  0.7294
   76SLPC  C317 6922   2.065   1.434   8.156  0.1975  0.0044 -0.4030
   76SLPC  H17X 6923   2.054   1.526   8.217  1.5080 -0.8478  1.1714
   76SLPC  H17Y 6924   2.161   1.447   8.101  1.0921 -2.7315  0.4096
   76SLPC  C318 6925   2.089   1.323   8.262  0.7528  0.1485  0.5303
   76SLPC  H18X 6926   2.135   1.232   8.217  2.5970  0.2536  2.0917
   76SLPC  H18Y 6927   1.990   1.307   8.310  0.3506  1.8364  0.3035
   76SLPC  H18Z 6928   2.153   1.364   8.342 -0.4376  0.1541  1.5112
   77SLPC     N 6929   2.597   1.886   6.195  0.0806  0.3730 -0.0463
   77SLPC   C13 6930   2.562   1.817   6.065 -0.0517  0.6795 -0.5764
   77SLPC  H13A 6931   2.482   1.876   6.024 -0.6283  0.0847 -0.3184
   77SLPC  H13B 6932   2.643   1.817   5.994 -0.1664 -1.3562 -0.7693
   77SLPC  H13C 6933   2.532   1.715   6.080  0.2958  0.4612 -1.3499
   77SLPC   C14 6934   2.649   2.018   6.158  0.0695 -0.1653  0.0717
   77SLPC  H14A 6935   2.691   2.055   6.250  3.1747 -0.0423 -1.2615
   77SLPC  H14B 6936   2.726   2.026   6.082 -0.4961 -0.1685 -0.5136
   77SLPC  H14C 6937   2.569   2.084   6.127  0.1263 -0.0766  0.1125
   77SLPC   C15 6938   2.710   1.806   6.251  0.1879  0.0513 -0.1051
   77SLPC  H15A 6939   2.741   1.849   6.345  1.1204  0.2406 -0.4912
   77SLPC  H15B 6940   2.677   1.707   6.280 -0.5886  0.4152  0.3068
   77SLPC  H15C 6941   2.792   1.790   6.183 -1.2167 -3.3385 -1.1651
   77SLPC   C12 6942   2.479   1.893   6.290 -0.6930 -0.1746 -0.3344
   77SLPC  H12A 6943   2.440   1.793   6.298  0.6520 -0.6408  0.7497
   77SLPC  H12B 6944   2.400   1.945   6.236  0.2353  1.0948 -0.5274
   77SLPC   C11 6945   2.500   1.949   6.432  0.0449 -0.2908  0.0383
   77SLPC  H11A 6946   2.556   1.888   6.506  1.3515  0.3314 -0.4051
   77SLPC  H11B 6947   2.401   1.958   6.482  0.7843  2.5733  1.2037
   77SLPC     P 6948   2.494   2.206   6.435 -0.0017 -0.4502 -0.1243
   77SLPC   O13 6949   2.595   2.312   6.452  0.1981  0.5596  0.7156
   77SLPC   O14 6950   2.405   2.212   6.315  0.3050  1.0826  0.2830
   77SLPC   O12 6951   2.574   2.072   6.436  0.4274 -0.5984  0.8649
   77SLPC   O11 6952   2.401   2.207   6.563  0.1669 -0.0930 -0.1216
   77SLPC    C1 6953   2.452   2.232   6.695  0.0492  0.2193  0.1189
   77SLPC    HA 6954   2.557   2.266   6.701  0.2721 -0.5255  0.5991
   77SLPC    HB 6955   2.388   2.305   6.750 -0.6127  0.3264 -0.7715
   77SLPC    C2 6956   2.442   2.118   6.803 -0.6568  0.1792 -0.2409
   77SLPC    HS 6957   2.492   2.033   6.752  2.3765  0.2537  2.2986
   77SLPC   O21 6958   2.306   2.101   6.845 -0.4434  0.2246  0.0459
   77SLPC   C21 6959   2.273   1.993   6.903  0.3888 -0.5813 -1.1307
   77SLPC   O22 6960   2.339   1.894   6.920 -0.5863  0.1289  0.3730
   77SLPC   C22 6961   2.134   2.008   6.945  0.1020  0.4885 -0.4378
   77SLPC   H2R 6962   2.076   2.050   6.861 -0.3727 -2.7570 -1.8746
   77SLPC   H2S 6963   2.084   1.909   6.947 -0.8198  0.9451 -0.2682
   77SLPC    C3 6964   2.542   2.154   6.927  0.3895 -0.5019  0.1153
   77SLPC    HX 6965   2.490   2.220   7.000  2.3811  1.5173 -0.1368
   77SLPC    HY 6966   2.631   2.218   6.903 -1.5085  1.7823 -1.2951
   77SLPC   O31 6967   2.599   2.040   6.997  0.0139  0.0236  0.3483
   77SLPC   C31 6968   2.689   1.969   6.930  0.3280 -0.1244 -0.5230
   77SLPC   O32 6969   2.735   2.001   6.827  0.3650  0.1512 -0.0747
   77SLPC   C32 6970   2.722   1.844   7.014  0.2126  0.1288 -0.1728
   77SLPC   H2X 6971   2.635   1.775   7.002 -0.6482  1.1374  0.1508
   77SLPC   H2Y 6972   2.726   1.866   7.123 -0.0453 -1.9185  0.2908
   77SLPC   C23 6973   2.108   2.076   7.079  0.6167  0.3949  0.4175
   77SLPC   H3R 6974   2.013   2.134   7.083  0.8334  0.9270 -1.2697
   77SLPC   H3S 6975   2.185   2.156   7.068  1.5592 -0.8314 -2.9816
   77SLPC   C24 6976   2.134   1.980   7.198 -0.8098 -0.4451  0.1324
   77SLPC   H4R 6977   2.242   1.974   7.225 -1.0162 -1.7223  0.7456
   77SLPC   H4S 6978   2.106   1.876   7.170 -2.9836  0.6403 -2.0942
   77SLPC   C25 6979   2.039   2.003   7.315 -0.3384 -1.0562  0.2278
   77SLPC   H5R 6980   1.936   1.979   7.281 -1.3850 -1.4239  3.2993
   77SLPC   H5S 6981   2.050   2.111   7.337 -1.0788 -0.8305 -0.4819
   77SLPC   C26 6982   2.085   1.929   7.443  0.2562 -0.3964  0.2868
   77SLPC   H6R 6983   2.190   1.950   7.470 -0.3506  1.1404  1.6208
   77SLPC   H6S 6984   2.078   1.818   7.440 -0.1653 -0.3981  1.1985
   77SLPC   C27 6985   2.003   1.979   7.561 -0.4216  0.4274 -0.1803
   77SLPC   H7R 6986   2.018   2.088   7.570 -0.0701  0.3727 -0.0644
   77SLPC   H7S 6987   2.045   1.926   7.650  1.0241 -0.2343 -1.2258
   77SLPC   C28 6988   1.855   1.934   7.540  0.4358 -0.0599 -0.3255
   77SLPC   H8R 6989   1.855   1.841   7.480 -0.8445 -1.2512  1.4248
   77SLPC   H8S 6990   1.793   2.013   7.493 -1.0648 -0.0810  1.4773
   77SLPC   C29 6991   1.781   1.903   7.674 -0.2250  0.8365 -0.1974
   77SLPC   H9R 6992   1.750   1.797   7.684  3.1579 -0.4863 -2.0192
   77SLPC  C210 6993   1.748   1.997   7.758 -0.4255  0.4941 -0.1307
   77SLPC  H10R 6994   1.704   1.976   7.857 -2.3888  1.3385 -0.7814
   77SLPC  C211 6995   1.777   2.143   7.746  0.1466 -0.7293  0.1079
   77SLPC  H11R 6996   1.795   2.172   7.640 -1.7061  1.1804  0.2589
   77SLPC  H11S 6997   1.879   2.142   7.792  0.4344 -1.0356 -0.5248
   77SLPC  C212 6998   1.676   2.227   7.823  0.2633  0.5251  0.6800
   77SLPC  H12R 6999   1.596   2.269   7.760  0.3791 -1.6247 -1.0092
   77SLPC  C213 7000   1.680   2.257   7.956 -0.5891  0.1135  0.4787
   77SLPC  H13R 7001   1.593   2.313   7.994 -1.1865  0.4720 -1.3200
   77SLPC  C214 7002   1.788   2.218   8.057 -0.2453 -0.2928 -0.1039
   77SLPC  H14R 7003   1.850   2.300   8.101  1.3526  0.7817 -3.9163
   77SLPC  H14S 7004   1.854   2.141   8.012 -1.9821 -1.6955 -0.3503
   77SLPC  C215 7005   1.735   2.145   8.183 -0.0149  0.5027 -0.2681
   77SLPC  H15R 7006   1.825   2.105   8.235  0.0920  3.2121  1.8870
   77SLPC  H15S 7007   1.671   2.060   8.149  0.2931 -0.6889  1.9816
   77SLPC  C216 7008   1.672   2.244   8.285 -0.2189 -0.1456 -0.7781
   77SLPC  H16R 7009   1.579   2.281   8.236 -0.1468 -1.2485 -1.8005
   77SLPC  H16S 7010   1.742   2.330   8.292 -0.4876 -0.0621  2.5783
   77SLPC  C217 7011   1.649   2.190   8.429  0.1140  0.1807  0.0101
   77SLPC  H17R 7012   1.603   2.278   8.478  2.1191  1.8777 -0.9596
   77SLPC  H17S 7013   1.748   2.165   8.474  0.6240  0.0184 -1.1695
   77SLPC  C218 7014   1.552   2.074   8.451 -0.0781  0.0577 -0.0776
   77SLPC  H18R 7015   1.454   2.101   8.406  0.1778 -1.5140 -1.7293
   77SLPC  H18S 7016   1.535   2.046   8.557 -2.1979 -0.0381 -0.4175
   77SLPC  H18T 7017   1.587   1.981   8.399  0.3262 -0.4120  1.0140
   77SLPC   C33 7018   2.863   1.766   6.983  0.6598  0.1721 -1.3183
   77SLPC   H3X 7019   2.956   1.823   7.005  1.1856 -0.4936 -1.7665
   77SLPC   H3Y 7020   2.859   1.731   6.877 -2.4641 -3.0852 -0.3355
   77SLPC   C34 7021   2.863   1.642   7.072 -0.6471  0.4995 -0.4616
   77SLPC   H4X 7022   2.926   1.564   7.024 -1.6975  0.6844 -2.2560
   77SLPC   H4Y 7023   2.765   1.590   7.077 -0.7218  0.6626 -0.1912
   77SLPC   C35 7024   2.925   1.666   7.210 -0.0501 -0.6887 -0.0318
   77SLPC   H5X 7025   2.850   1.735   7.255 -1.3070 -0.1722 -2.6925
   77SLPC   H5Y 7026   3.025   1.712   7.199 -0.1231 -0.8791 -1.9249
   77SLPC   C36 7027   2.975   1.545   7.282 -0.5067  0.3050  0.2956
   77SLPC   H6X 7028   3.069   1.505   7.237  0.0262  2.4635 -0.6547
   77SLPC   H6Y 7029   2.903   1.461   7.288  0.9606 -0.9238  1.5933
   77SLPC   C37 7030   3.015   1.563   7.432 -0.3064 -0.4784  0.2765
   77SLPC   H7X 7031   3.090   1.483   7.453 -1.7990 -2.8286 -2.6248
   77SLPC   H7Y 7032   2.924   1.543   7.492  0.4987 -0.2921  1.5891
   77SLPC   C38 7033   3.098   1.692   7.462  0.0482 -0.1866  0.5657
   77SLPC   H8X 7034   3.046   1.785   7.431 -0.2466 -0.3414  0.5930
   77SLPC   H8Y 7035   3.198   1.682   7.415  0.7370 -1.5281  2.1750
   77SLPC   C39 7036   3.114   1.738   7.611 -0.2785 -0.7726  0.0891
   77SLPC   H9X 7037   3.017   1.777   7.648  0.0959  0.2162  0.0647
   77SLPC   H9Y 7038   3.188   1.820   7.619  1.4598 -2.3132  0.6456
   77SLPC  C310 7039   3.172   1.636   7.703 -0.3078  0.5141 -0.0375
   77SLPC  H10X 7040   3.258   1.580   7.660 -0.6748 -0.3752  0.3428
   77SLPC  H10Y 7041   3.097   1.554   7.706  0.3207 -0.1816 -2.0156
   77SLPC  C311 7042   3.209   1.687   7.840 -0.1164 -0.2747 -0.9708
   77SLPC  H11X 7043   3.131   1.761   7.868 -1.4697 -0.4942 -3.8592
   77SLPC  H11Y 7044   3.309   1.734   7.832  0.5706 -1.6895 -1.0557
   77SLPC  C312 7045   3.220   1.575   7.944 -0.1306 -0.1134 -0.7941
   77SLPC  H12X 7046   3.250   1.479   7.898 -0.9318 -1.3482  1.1194
   77SLPC  H12Y 7047   3.117   1.557   7.982  0.3080 -0.6268  0.1906
   77SLPC  C313 7048   3.307   1.607   8.066 -0.0794 -0.3341  0.1227
   77SLPC  H13X 7049   3.275   1.701   8.114 -0.0676  0.2277 -0.9350
   77SLPC  H13Y 7050   3.414   1.616   8.037 -0.3450  2.3810 -0.2404
   77SLPC  C314 7051   3.294   1.495   8.172  0.0180  0.5497 -0.2514
   77SLPC  H14X 7052   3.316   1.397   8.126  2.4926  0.3107  1.2761
   77SLPC  H14Y 7053   3.195   1.498   8.221  1.5630  3.3169  3.1724
   77SLPC  C315 7054   3.391   1.523   8.285 -0.2637  0.1541 -0.0551
   77SLPC  H15X 7055   3.363   1.628   8.310 -1.2310  0.0574 -0.6879
   77SLPC  H15Y 7056   3.492   1.516   8.238 -1.1639 -0.6200 -2.0034
   77SLPC  C316 7057   3.378   1.424   8.408 -0.0900 -0.4508 -0.0585
   77SLPC  H16X 7058   3.274   1.421   8.449  0.6357 -2.1311  1.8492
   77SLPC  H16Y 7059   3.447   1.467   8.483  0.3794  3.5903 -2.5189
   77SLPC  C317 7060   3.423   1.281   8.373  0.7287 -0.5145 -1.1881
   77SLPC  H17X 7061   3.526   1.298   8.333 -0.1633  3.1237 -2.2832
   77SLPC  H17Y 7062   3.360   1.229   8.298 -2.6735 -0.7110  1.5668
   77SLPC  C318 7063   3.436   1.184   8.485  0.3082 -0.3846  0.6235
   77SLPC  H18X 7064   3.454   1.082   8.445 -1.1832 -0.5059  0.2045
   77SLPC  H18Y 7065   3.339   1.165   8.536 -0.0985  1.8836  0.8139
   77SLPC  H18Z 7066   3.519   1.203   8.557  2.5918  0.0914 -1.9571
   78SLPC     N 7067   5.012   1.943   6.054  1.0411  0.5442  0.4411
   78SLPC   C13 7068   4.996   1.871   5.921  0.0498  0.2934 -0.1302
   78SLPC  H13A 7069   4.957   1.771   5.935  0.3066  0.2853  0.6026
   78SLPC  H13B 7070   4.926   1.921   5.856  1.3491  1.4566 -0.6851
   78SLPC  H13C 7071   5.088   1.862   5.866 -0.0524  1.0945 -0.4450
   78SLPC   C14 7072   5.077   1.851   6.152  0.2503 -0.0586 -0.0778
   78SLPC  H14A 7073   5.029   1.754   6.153 -0.3615  0.2458  0.5645
   78SLPC  H14B 7074   5.172   1.817   6.113  0.0154  0.1808 -0.8775
   78SLPC  H14C 7075   5.085   1.895   6.250 -0.3055 -1.4558  0.6114
   78SLPC   C15 7076   4.877   1.967   6.110 -0.2902 -0.1424  0.1505
   78SLPC  H15A 7077   4.820   2.041   6.056 -1.8090  0.9121  2.9458
   78SLPC  H15B 7078   4.823   1.876   6.130  0.0930 -0.8603 -1.8991
   78SLPC  H15C 7079   4.883   2.018   6.205  3.9669  0.1382 -0.0981
   78SLPC   C12 7080   5.097   2.061   6.022 -0.0630  0.2295  0.2127
   78SLPC  H12A 7081   5.048   2.122   5.947  0.1125  1.3916  1.0144
   78SLPC  H12B 7082   5.193   2.037   5.979  0.2027  3.0653 -1.0037
   78SLPC   C11 7083   5.112   2.164   6.134 -0.3808  0.3717  0.4058
   78SLPC  H11A 7084   5.009   2.196   6.164 -0.1056 -0.0796  1.9680
   78SLPC  H11B 7085   5.165   2.256   6.103  3.0826 -0.9789  1.8394
   78SLPC     P 7086   5.328   2.113   6.266 -0.0355  0.0791 -0.1751
   78SLPC   O13 7087   5.368   1.974   6.313 -0.1556 -0.4376 -0.2888
   78SLPC   O14 7088   5.385   2.156   6.141 -0.3947  0.1461  0.2696
   78SLPC   O12 7089   5.171   2.120   6.253 -0.1915  0.2893  0.4475
   78SLPC   O11 7090   5.346   2.218   6.385 -0.1643 -0.3982 -0.1061
   78SLPC    C1 7091   5.303   2.196   6.519  0.7865 -0.1684 -0.6313
   78SLPC    HA 7092   5.347   2.105   6.565  0.2383 -0.3104 -0.3795
   78SLPC    HB 7093   5.342   2.279   6.581 -0.1490  1.0308 -1.5787
   78SLPC    C2 7094   5.148   2.188   6.535  0.0419  0.0529 -1.1749
   78SLPC    HS 7095   5.108   2.096   6.488 -3.0644  0.5820  0.1408
   78SLPC   O21 7096   5.082   2.302   6.466 -0.2626 -0.4350 -0.0042
   78SLPC   C21 7097   4.951   2.284   6.444 -0.9596  0.1226 -0.8800
   78SLPC   O22 7098   4.897   2.178   6.456 -0.3737  0.3404  0.5461
   78SLPC   C22 7099   4.882   2.419   6.414 -0.0427 -0.6568  0.4829
   78SLPC   H2R 7100   4.958   2.488   6.372 -1.9031 -0.4493 -2.8441
   78SLPC   H2S 7101   4.805   2.400   6.336 -1.1020 -0.4804  1.4587
   78SLPC    C3 7102   5.108   2.188   6.692 -0.0425 -0.0259  0.2892
   78SLPC    HX 7103   4.997   2.181   6.691 -0.2230  2.0129 -1.7824
   78SLPC    HY 7104   5.127   2.289   6.734  0.0283 -0.8211  2.2904
   78SLPC   O31 7105   5.168   2.081   6.766 -0.1679 -0.2368 -0.7493
   78SLPC   C31 7106   5.111   1.966   6.773  0.6388 -0.5962 -0.1731
   78SLPC   O32 7107   5.010   1.935   6.714  0.2569  0.1348 -0.3978
   78SLPC   C32 7108   5.174   1.880   6.881  0.6957  0.6193  0.2886
   78SLPC   H2X 7109   5.236   1.810   6.821  0.2725 -0.1972  0.7843
   78SLPC   H2Y 7110   5.092   1.837   6.943 -0.1147  0.8906 -0.5755
   78SLPC   C23 7111   4.830   2.470   6.550  0.4315  0.1694 -1.3237
   78SLPC   H3R 7112   4.903   2.447   6.631 -0.8417 -0.5062 -0.3312
   78SLPC   H3S 7113   4.738   2.415   6.580 -0.7952  2.0037 -1.5550
   78SLPC   C24 7114   4.811   2.625   6.539 -0.1533  0.4297 -0.4496
   78SLPC   H4R 7115   4.739   2.648   6.458  1.2939  0.6520 -1.7141
   78SLPC   H4S 7116   4.902   2.682   6.510 -0.0037 -0.6106 -2.1455
   78SLPC   C25 7117   4.749   2.680   6.668  0.0652  0.4293 -0.1846
   78SLPC   H5R 7118   4.762   2.790   6.674 -1.9995  0.6747  0.7202
   78SLPC   H5S 7119   4.809   2.636   6.751  0.2721  2.4969  0.8511
   78SLPC   C26 7120   4.594   2.654   6.693 -0.2615  0.2798  0.1128
   78SLPC   H6R 7121   4.586   2.543   6.693  0.6800  0.1980  1.2245
   78SLPC   H6S 7122   4.538   2.690   6.604 -1.1936 -1.7373 -0.1700
   78SLPC   C27 7123   4.548   2.706   6.829 -0.0308 -0.4911  0.7087
   78SLPC   H7R 7124   4.524   2.815   6.826  2.3245  0.0982  1.1538
   78SLPC   H7S 7125   4.636   2.689   6.894 -0.0076 -1.0718  0.5268
   78SLPC   C28 7126   4.433   2.617   6.871 -0.0750 -0.2258  0.1131
   78SLPC   H8R 7127   4.477   2.516   6.881  0.6062  0.1805  1.5818
   78SLPC   H8S 7128   4.351   2.616   6.797  0.5386 -0.8254 -0.5711
   78SLPC   C29 7129   4.378   2.668   6.999 -1.0177 -0.1650  0.4590
   78SLPC   H9R 7130   4.346   2.773   7.001  1.6416  0.8259 -1.8881
   78SLPC  C210 7131   4.394   2.608   7.120  0.3289 -0.3297  0.5642
   78SLPC  H10R 7132   4.358   2.665   7.206  0.1893  2.0906 -1.0092
   78SLPC  C211 7133   4.460   2.474   7.139 -1.0166 -0.3921 -0.0880
   78SLPC  H11R 7134   4.444   2.396   7.061 -2.9149  0.3309 -0.4714
   78SLPC  H11S 7135   4.404   2.423   7.221 -3.3741  0.4550 -1.0695
   78SLPC  C212 7136   4.610   2.483   7.174 -0.3263  0.0790  0.1340
   78SLPC  H12R 7137   4.664   2.538   7.095 -1.1824  1.3310  0.3759
   78SLPC  C213 7138   4.680   2.444   7.281  0.0063  0.2259 -0.3314
   78SLPC  H13R 7139   4.789   2.462   7.281  0.0392  0.5795  2.7549
   78SLPC  C214 7140   4.623   2.384   7.403  0.0529 -0.3204  0.0785
   78SLPC  H14R 7141   4.689   2.310   7.455  0.7724 -0.2734 -0.7555
   78SLPC  H14S 7142   4.543   2.313   7.372  0.1892 -0.2413 -0.4668
   78SLPC  C215 7143   4.568   2.481   7.509  0.0853  0.0457  0.3918
   78SLPC  H15R 7144   4.473   2.520   7.466 -0.1567  0.3481  1.1861
   78SLPC  H15S 7145   4.651   2.553   7.526  1.6775 -1.8925  1.0958
   78SLPC  C216 7146   4.527   2.403   7.636  0.5437 -0.0447  0.1374
   78SLPC  H16R 7147   4.623   2.367   7.680  0.6128  1.3181  1.1850
   78SLPC  H16S 7148   4.467   2.314   7.610  0.0628  0.1807  0.4529
   78SLPC  C217 7149   4.459   2.493   7.743 -0.3321 -0.0856  0.7521
   78SLPC  H17R 7150   4.370   2.531   7.688 -0.1454 -0.0931  0.4448
   78SLPC  H17S 7151   4.536   2.567   7.774 -0.5596 -0.3345  1.9654
   78SLPC  C218 7152   4.409   2.411   7.868 -0.7804  0.7500 -0.0474
   78SLPC  H18R 7153   4.310   2.361   7.860 -0.0461 -0.8950  0.8587
   78SLPC  H18S 7154   4.405   2.480   7.955  1.5355 -1.1167  1.6719
   78SLPC  H18T 7155   4.480   2.328   7.883 -0.3816  0.1488 -4.0780
   78SLPC   C33 7156   5.280   1.939   6.980  0.2491  0.2935 -0.0379
   78SLPC   H3X 7157   5.273   2.050   6.973 -0.5831  0.2346 -0.2266
   78SLPC   H3Y 7158   5.381   1.918   6.939  0.6827  1.3970  0.4147
   78SLPC   C34 7159   5.265   1.899   7.126 -0.6113 -0.0462  0.0084
   78SLPC   H4X 7160   5.279   1.789   7.127  0.1133  0.0230  1.7303
   78SLPC   H4Y 7161   5.179   1.940   7.183 -0.6404  0.7528 -0.5918
   78SLPC   C35 7162   5.391   1.950   7.206  0.1274  0.1910  0.5717
   78SLPC   H5X 7163   5.392   2.061   7.197  2.0524  0.0993 -1.3763
   78SLPC   H5Y 7164   5.478   1.923   7.142 -0.8204 -1.2055 -0.1842
   78SLPC   C36 7165   5.397   1.915   7.352  0.1778 -0.1490 -0.2376
   78SLPC   H6X 7166   5.392   1.804   7.349 -0.2884 -0.1433  0.0734
   78SLPC   H6Y 7167   5.309   1.943   7.414 -1.1337  1.2368 -2.6062
   78SLPC   C37 7168   5.517   1.976   7.413 -0.3518 -0.2426  0.7973
   78SLPC   H7X 7169   5.505   2.084   7.390 -3.2340 -0.8145 -0.8659
   78SLPC   H7Y 7170   5.615   1.939   7.376 -0.4335  0.4570 -0.1701
   78SLPC   C38 7171   5.511   1.968   7.566  0.4802  0.3527  0.3709
   78SLPC   H8X 7172   5.520   1.862   7.598  0.3854  0.0215 -0.6827
   78SLPC   H8Y 7173   5.411   2.007   7.593 -0.5967 -1.4390 -0.8202
   78SLPC   C39 7174   5.628   2.049   7.630  0.5062 -0.4527 -0.1213
   78SLPC   H9X 7175   5.628   2.159   7.611  2.9590 -0.2251  0.7670
   78SLPC   H9Y 7176   5.721   2.015   7.581  0.8736  1.0542 -0.5377
   78SLPC  C310 7177   5.643   2.026   7.785  0.3443  0.4424  0.5774
   78SLPC  H10X 7178   5.644   1.916   7.804  1.1572 -0.0503 -1.8661
   78SLPC  H10Y 7179   5.553   2.078   7.824  0.8159  0.3990  1.7536
   78SLPC  C311 7180   5.767   2.082   7.845 -0.3739  0.2580  0.5695
   78SLPC  H11X 7181   5.745   2.184   7.883  0.9154 -0.3371  3.1402
   78SLPC  H11Y 7182   5.845   2.095   7.768 -0.0677  1.5344  1.0643
   78SLPC  C312 7183   5.829   2.004   7.963 -0.0079  0.1091  0.4120
   78SLPC  H12X 7184   5.925   2.057   7.978 -1.2524  1.7585  3.3742
   78SLPC  H12Y 7185   5.842   1.896   7.940 -3.9058 -0.1054 -1.5786
   78SLPC  C313 7186   5.748   2.028   8.087  0.6392  0.3859  0.3680
   78SLPC  H13X 7187   5.650   1.980   8.070  0.8116 -0.0406  0.5483
   78SLPC  H13Y 7188   5.736   2.133   8.121 -2.2202 -0.1059  1.0908
   78SLPC  C314 7189   5.806   1.945   8.196 -0.2714 -0.4257  0.6594
   78SLPC  H14X 7190   5.905   1.987   8.225 -0.3755  0.1647  0.1909
   78SLPC  H14Y 7191   5.808   1.843   8.152 -0.9917 -0.2656  0.2293
   78SLPC  C315 7192   5.716   1.926   8.315  0.1902 -0.8653  0.6981
   78SLPC  H15X 7193   5.761   1.856   8.389  3.0533  0.3224  0.2459
   78SLPC  H15Y 7194   5.614   1.891   8.289  0.9331 -1.7293 -1.2667
   78SLPC  C316 7195   5.712   2.065   8.386 -0.1942 -0.9017 -0.4695
   78SLPC  H16X 7196   5.656   2.136   8.321  0.2326  0.2051  0.3438
   78SLPC  H16Y 7197   5.812   2.100   8.419  0.1162 -1.7106 -0.5293
   78SLPC  C317 7198   5.631   2.053   8.516 -0.3409 -0.2591  0.3518
   78SLPC  H17X 7199   5.642   2.157   8.555  0.1763  0.2813 -1.1736
   78SLPC  H17Y 7200   5.673   1.975   8.583 -0.7422 -0.6060  0.1998
   78SLPC  C318 7201   5.486   2.025   8.490  0.0672  0.5909  0.2416
   78SLPC  H18X 7202   5.474   1.924   8.447 -0.7611  0.7589  0.0704
   78SLPC  H18Y 7203   5.439   2.100   8.422  1.0750  0.3103 -0.8028
   78SLPC  H18Z 7204   5.419   2.040   8.577 -1.6094 -0.1736 -0.8680
   79SLPC     N 7205   4.655   4.626   5.998  0.1463 -0.2792 -0.6042
   79SLPC   C13 7206   4.685   4.743   5.915 -0.3370 -0.3973  0.1795
   79SLPC  H13A 7207   4.604   4.767   5.848 -0.8212  0.1591  0.9460
   79SLPC  H13B 7208   4.694   4.824   5.986  0.4188  1.4797 -1.9388
   79SLPC  H13C 7209   4.773   4.734   5.854  0.6203 -2.0555  1.7093
   79SLPC   C14 7210   4.778   4.569   6.056  0.4954 -0.2668  0.1792
   79SLPC  H14A 7211   4.740   4.507   6.136  2.7798  1.6546  3.0041
   79SLPC  H14B 7212   4.831   4.519   5.977 -1.6424 -0.5374 -1.1549
   79SLPC  H14C 7213   4.844   4.645   6.097  3.3251 -2.2562 -0.4148
   79SLPC   C15 7214   4.592   4.521   5.903 -0.2024  0.9266 -0.0207
   79SLPC  H15A 7215   4.560   4.434   5.958  0.6604  0.3582 -0.4075
   79SLPC  H15B 7216   4.515   4.572   5.847 -0.7350 -2.5909 -2.8202
   79SLPC  H15C 7217   4.663   4.487   5.830 -1.2528  2.9887 -2.1322
   79SLPC   C12 7218   4.558   4.670   6.104 -0.1987  0.9743 -0.1943
   79SLPC  H12A 7219   4.495   4.746   6.059 -1.8654  0.4708  1.1798
   79SLPC  H12B 7220   4.614   4.728   6.175  0.8880  0.5858 -0.7150
   79SLPC   C11 7221   4.477   4.569   6.182  0.0883  0.5424 -0.1850
   79SLPC  H11A 7222   4.406   4.524   6.109  0.9901  0.1953 -0.8631
   79SLPC  H11B 7223   4.416   4.609   6.266  1.5770  0.2233  1.0991
   79SLPC     P 7224   4.553   4.316   6.222 -0.0623 -0.3574  0.7243
   79SLPC   O13 7225   4.469   4.277   6.106  0.4174 -0.0566 -0.5661
   79SLPC   O14 7226   4.689   4.265   6.221  0.5540  0.2377  0.1927
   79SLPC   O12 7227   4.559   4.467   6.236 -0.3676 -0.3439 -0.3938
   79SLPC   O11 7228   4.484   4.258   6.343 -0.7840  0.2435  0.2327
   79SLPC    C1 7229   4.358   4.310   6.380  0.6735 -0.0436 -0.3683
   79SLPC    HA 7230   4.321   4.402   6.330 -0.2435 -1.3763 -2.2365
   79SLPC    HB 7231   4.282   4.238   6.345  1.6173  0.1400 -3.0472
   79SLPC    C2 7232   4.355   4.326   6.538 -0.9796  0.0022 -0.1620
   79SLPC    HS 7233   4.262   4.384   6.559 -0.1553  1.7106 -1.0119
   79SLPC   O21 7234   4.475   4.389   6.585 -0.7709  0.0643  0.4266
   79SLPC   C21 7235   4.458   4.488   6.670  0.7392  0.1854 -0.1530
   79SLPC   O22 7236   4.349   4.530   6.711 -0.2459 -0.1481 -0.0754
   79SLPC   C22 7237   4.588   4.556   6.711  0.3655 -0.3109 -0.5935
   79SLPC   H2R 7238   4.673   4.511   6.655  0.7100  1.0869 -1.2283
   79SLPC   H2S 7239   4.586   4.664   6.685 -0.7064 -0.5999 -1.8953
   79SLPC    C3 7240   4.334   4.184   6.605  0.4833 -0.1514  0.4356
   79SLPC    HX 7241   4.426   4.128   6.578  0.4659  0.8841 -2.1232
   79SLPC    HY 7242   4.256   4.130   6.546  0.0390  1.7290 -0.7968
   79SLPC   O31 7243   4.313   4.168   6.745 -0.1710  0.1240 -0.3644
   79SLPC   C31 7244   4.192   4.210   6.781 -0.0729 -0.4801  0.3678
   79SLPC   O32 7245   4.105   4.247   6.706 -0.1259  0.3997 -0.1051
   79SLPC   C32 7246   4.193   4.214   6.938 -0.1886 -0.2326 -0.5757
   79SLPC   H2X 7247   4.119   4.143   6.980  0.5416 -0.4196  0.4242
   79SLPC   H2Y 7248   4.178   4.319   6.970  1.0745  0.0658 -0.9078
   79SLPC   C23 7249   4.611   4.561   6.863  0.7331  0.4750 -0.3810
   79SLPC   H3R 7250   4.521   4.612   6.904  0.0798 -0.7281 -0.2667
   79SLPC   H3S 7251   4.691   4.628   6.900 -0.1173  0.2416  2.0589
   79SLPC   C24 7252   4.621   4.425   6.928  0.2979 -0.0426 -0.5069
   79SLPC   H4R 7253   4.719   4.378   6.905  1.2584  0.6804  1.8630
   79SLPC   H4S 7254   4.561   4.348   6.874  0.2478  0.6830 -1.5245
   79SLPC   C25 7255   4.597   4.416   7.079 -0.0160  0.2721  0.3054
   79SLPC   H5R 7256   4.618   4.311   7.110  0.4319 -0.3676 -2.0133
   79SLPC   H5S 7257   4.491   4.418   7.110 -0.0969 -1.8472  0.2678
   79SLPC   C26 7258   4.674   4.517   7.160  0.2932  0.1592 -0.3141
   79SLPC   H6R 7259   4.659   4.619   7.118 -2.7256 -0.5560 -1.2251
   79SLPC   H6S 7260   4.781   4.491   7.141  1.1683  1.1002  2.6986
   79SLPC   C27 7261   4.641   4.509   7.312 -0.2708 -0.1544  0.8235
   79SLPC   H7R 7262   4.532   4.527   7.324 -0.7044 -1.2450 -1.0918
   79SLPC   H7S 7263   4.698   4.595   7.355  1.8605 -0.4398 -1.2438
   79SLPC   C28 7264   4.686   4.372   7.380  0.0612 -0.7289  0.4610
   79SLPC   H8R 7265   4.789   4.348   7.345  1.0163  1.7308  1.3552
   79SLPC   H8S 7266   4.610   4.301   7.340 -1.4477  1.7234 -1.2721
   79SLPC   C29 7267   4.682   4.381   7.528  0.2759 -0.2455  0.3519
   79SLPC   H9R 7268   4.782   4.400   7.570  0.0095 -0.2483  1.0000
   79SLPC  C210 7269   4.576   4.374   7.610 -0.2993 -0.4024  0.2299
   79SLPC  H10R 7270   4.610   4.396   7.712  0.9111  1.0351 -0.4538
   79SLPC  C211 7271   4.432   4.345   7.584 -0.6847  0.3736  0.2153
   79SLPC  H11R 7272   4.440   4.296   7.485  2.5552 -2.6107  1.7313
   79SLPC  H11S 7273   4.364   4.433   7.591 -0.1858  0.7464  0.4113
   79SLPC  C212 7274   4.376   4.236   7.680 -0.3308 -0.4831  0.6061
   79SLPC  H12R 7275   4.405   4.135   7.650  3.2325 -0.0836  2.1585
   79SLPC  C213 7276   4.326   4.268   7.794  0.4761  0.1622  0.0335
   79SLPC  H13R 7277   4.270   4.190   7.847 -0.4990  0.6799 -0.2132
   79SLPC  C214 7278   4.307   4.405   7.852  0.6858 -0.4715 -0.2944
   79SLPC  H14R 7279   4.200   4.437   7.846  1.6527  2.8469 -2.6337
   79SLPC  H14S 7280   4.355   4.488   7.795 -1.5825 -1.2791 -3.6712
   79SLPC  C215 7281   4.361   4.395   7.994 -0.5418 -0.3302  0.3703
   79SLPC  H15R 7282   4.462   4.350   7.994 -0.3618  0.0691  1.0012
   79SLPC  H15S 7283   4.300   4.331   8.062  0.9672  0.4038  2.5099
   79SLPC  C216 7284   4.365   4.528   8.072  0.5278  0.0476  0.3302
   79SLPC  H16R 7285   4.258   4.553   8.085  0.6737  0.3278  1.0197
   79SLPC  H16S 7286   4.398   4.600   7.993 -0.5790 -2.1563 -2.3265
   79SLPC  C217 7287   4.436   4.548   8.201 -1.0371  0.4695 -0.1482
   79SLPC  H17R 7288   4.430   4.655   8.230 -0.0647  0.3423  0.5547
   79SLPC  H17S 7289   4.545   4.535   8.188 -0.7734  2.1927  0.0486
   79SLPC  C218 7290   4.383   4.463   8.317  0.3172 -0.6074 -0.0416
   79SLPC  H18R 7291   4.381   4.354   8.293 -0.6707 -0.8581  1.1137
   79SLPC  H18S 7292   4.280   4.497   8.342  0.9005  1.6601 -0.5020
   79SLPC  H18T 7293   4.439   4.485   8.410 -2.2901  0.4452  1.3838
   79SLPC   C33 7294   4.330   4.168   6.999 -0.3628  0.7014 -0.5503
   79SLPC   H3X 7295   4.412   4.234   6.962  1.7829 -1.7189 -0.3535
   79SLPC   H3Y 7296   4.355   4.067   6.961  0.0699  0.4458  0.3974
   79SLPC   C34 7297   4.333   4.168   7.151  0.3277  1.1967 -0.5153
   79SLPC   H4X 7298   4.290   4.262   7.192  0.3829  1.3782 -0.8670
   79SLPC   H4Y 7299   4.433   4.155   7.198 -0.2161  0.0805  0.3611
   79SLPC   C35 7300   4.244   4.056   7.220 -0.8693 -0.2632 -0.1481
   79SLPC   H5X 7301   4.247   3.968   7.152 -3.8906 -1.3598  0.9723
   79SLPC   H5Y 7302   4.137   4.082   7.211 -0.5847  0.3730 -2.1792
   79SLPC   C36 7303   4.300   4.004   7.354  0.0585  0.3323 -0.4750
   79SLPC   H6X 7304   4.214   3.969   7.414 -0.3185  1.0696 -0.5710
   79SLPC   H6Y 7305   4.354   4.079   7.416 -1.4162  2.5071 -1.6733
   79SLPC   C37 7306   4.392   3.879   7.346 -0.0426  0.1553 -1.0164
   79SLPC   H7X 7307   4.484   3.901   7.287  0.0832 -2.2310 -1.8257
   79SLPC   H7Y 7308   4.336   3.795   7.300 -0.8054 -0.6867  1.3001
   79SLPC   C38 7309   4.455   3.834   7.489  0.1354  0.1769 -0.6827
   79SLPC   H8X 7310   4.514   3.920   7.529  0.8332 -0.1966 -0.8936
   79SLPC   H8Y 7311   4.535   3.760   7.465  0.2420 -0.7753  2.2213
   79SLPC   C39 7312   4.368   3.794   7.613  0.5822 -0.2874  0.1790
   79SLPC   H9X 7313   4.302   3.710   7.582  1.2398  0.0039 -2.2390
   79SLPC   H9Y 7314   4.302   3.881   7.634  0.1291 -0.7967  0.9072
   79SLPC  C310 7315   4.444   3.760   7.740 -0.1768  0.1849  0.1558
   79SLPC  H10X 7316   4.524   3.836   7.754  0.9121 -0.8457 -0.3395
   79SLPC  H10Y 7317   4.503   3.667   7.725 -0.3521 -0.3465  2.4753
   79SLPC  C311 7318   4.359   3.738   7.859  0.1004  0.2585 -0.1035
   79SLPC  H11X 7319   4.412   3.687   7.942  1.9311  0.9908 -0.7692
   79SLPC  H11Y 7320   4.274   3.671   7.838  0.4314 -0.8280  1.7965
   79SLPC  C312 7321   4.294   3.870   7.920 -0.0430  0.0599 -0.6387
   79SLPC  H12X 7322   4.233   3.924   7.844 -1.6576  1.2687  1.4366
   79SLPC  H12Y 7323   4.379   3.935   7.949  0.0473 -0.1925 -0.3332
   79SLPC  C313 7324   4.202   3.817   8.032  0.1599 -0.1628 -0.3886
   79SLPC  H13X 7325   4.265   3.748   8.091  1.8941  1.6792  0.0367
   79SLPC  H13Y 7326   4.118   3.758   7.989 -0.2512  1.6535 -2.2358
   79SLPC  C314 7327   4.146   3.926   8.121  0.0142  0.6568 -0.1550
   79SLPC  H14X 7328   4.086   3.989   8.052 -0.9889 -2.7265 -2.6040
   79SLPC  H14Y 7329   4.224   3.981   8.178 -2.4359  2.1017  2.0493
   79SLPC  C315 7330   4.066   3.865   8.230  0.3255  0.2675  0.2891
   79SLPC  H15X 7331   4.112   3.776   8.278  1.0775 -0.0933 -1.0515
   79SLPC  H15Y 7332   3.967   3.837   8.187  0.5852  0.5107 -0.4855
   79SLPC  C316 7333   4.044   3.959   8.348  0.4832  0.3372  0.5650
   79SLPC  H16X 7334   3.979   4.046   8.323 -0.0825 -0.0746  0.5972
   79SLPC  H16Y 7335   4.142   3.999   8.382  1.3069 -1.7718  0.8272
   79SLPC  C317 7336   3.969   3.892   8.464 -0.3307 -0.2096 -0.2306
   79SLPC  H17X 7337   4.034   3.807   8.493 -1.4668 -0.4462  1.8019
   79SLPC  H17Y 7338   3.882   3.835   8.425  0.2125 -1.6355  0.5759
   79SLPC  C318 7339   3.929   3.988   8.577 -0.2074  0.6142 -0.3732
   79SLPC  H18X 7340   3.886   3.932   8.662  0.1102 -0.9592 -1.2186
   79SLPC  H18Y 7341   3.858   4.068   8.545 -2.6358 -0.8865  0.9476
   79SLPC  H18Z 7342   4.017   4.036   8.625 -1.1922 -0.2116  2.4305
   80SLPC     N 7343   3.145   3.439   6.086 -0.9403 -0.2983 -0.5677
   80SLPC   C13 7344   3.063   3.323   6.045  0.0861 -0.5489  0.3102
   80SLPC  H13A 7345   3.125   3.236   6.058  0.9462 -0.4646 -2.4924
   80SLPC  H13B 7346   2.972   3.320   6.103 -0.0698 -1.8358  0.0282
   80SLPC  H13C 7347   3.026   3.325   5.943 -1.1201 -0.9229  0.7195
   80SLPC   C14 7348   3.269   3.439   6.003  0.3115  0.0892 -0.3124
   80SLPC  H14A 7349   3.345   3.494   6.056 -2.4685  2.1190  1.8558
   80SLPC  H14B 7350   3.305   3.342   5.971  1.8202  1.0801 -1.7269
   80SLPC  H14C 7351   3.263   3.498   5.913  1.3896 -2.5165 -2.2092
   80SLPC   C15 7352   3.189   3.418   6.224 -0.5941 -0.1204  0.4015
   80SLPC  H15A 7353   3.103   3.402   6.287 -0.0835 -0.4402  1.0352
   80SLPC  H15B 7354   3.265   3.343   6.241  1.1207  1.4112 -0.1466
   80SLPC  H15C 7355   3.232   3.508   6.266 -0.3593 -0.5779  1.1683
   80SLPC   C12 7356   3.069   3.567   6.069 -0.2156  0.1198  0.7860
   80SLPC  H12A 7357   3.062   3.580   5.962  1.3048 -2.1931  0.3169
   80SLPC  H12B 7358   3.131   3.643   6.114 -0.2800  1.1194 -0.7568
   80SLPC   C11 7359   2.928   3.582   6.118  0.1152  0.8414  0.8641
   80SLPC  H11A 7360   2.853   3.513   6.074 -0.7029  1.2135  1.6252
   80SLPC  H11B 7361   2.899   3.681   6.078  0.3489  0.0049 -1.4851
   80SLPC     P 7362   2.860   3.482   6.349 -0.3302  0.3466  0.2412
   80SLPC   O13 7363   2.719   3.529   6.369 -0.4902 -0.0686 -0.0447
   80SLPC   O14 7364   2.876   3.343   6.301 -0.3242 -0.3307 -0.1608
   80SLPC   O12 7365   2.939   3.578   6.258 -0.5809  0.0563 -0.2187
   80SLPC   O11 7366   2.944   3.497   6.482 -0.4110 -0.2303 -0.6576
   80SLPC    C1 7367   3.057   3.415   6.508 -0.3452 -0.0300  0.0661
   80SLPC    HA 7368   3.076   3.334   6.435 -1.9131 -0.2742 -0.0983
   80SLPC    HB 7369   3.141   3.488   6.497 -0.3651  0.1750  1.1243
   80SLPC    C2 7370   3.055   3.351   6.650 -0.2051 -0.3388  0.4666
   80SLPC    HS 7371   2.964   3.287   6.657 -0.8007  0.2670 -1.3794
   80SLPC   O21 7372   3.044   3.462   6.743  0.0843 -0.1105  0.2926
   80SLPC   C21 7373   2.980   3.430   6.852 -0.0804  0.6868  1.0517
   80SLPC   O22 7374   2.909   3.334   6.870  0.2651  0.2744  0.5149
   80SLPC   C22 7375   3.004   3.540   6.953  0.7476 -0.4951  0.5776
   80SLPC   H2R 7376   3.095   3.593   6.918  0.4366 -0.9547 -0.9760
   80SLPC   H2S 7377   2.908   3.596   6.962  1.2985  0.3940  1.0822
   80SLPC    C3 7378   3.181   3.270   6.664 -0.0870 -0.2846 -0.8709
   80SLPC    HX 7379   3.259   3.349   6.668 -1.9851  1.6765  2.7491
   80SLPC    HY 7380   3.192   3.202   6.577 -2.1030 -1.1865 -0.4654
   80SLPC   O31 7381   3.200   3.206   6.789 -0.2465 -0.4752  0.4154
   80SLPC   C31 7382   3.136   3.089   6.800 -0.5282 -0.8197  0.5537
   80SLPC   O32 7383   3.059   3.045   6.717  0.1037 -0.0311 -0.0667
   80SLPC   C32 7384   3.159   3.015   6.932  0.2830 -0.3833 -0.2718
   80SLPC   H2X 7385   3.150   3.088   7.015  0.9957 -1.8828  1.1887
   80SLPC   H2Y 7386   3.258   2.965   6.937  1.2637  1.5746  1.8321
   80SLPC   C23 7387   3.042   3.489   7.096 -0.0679 -0.3762 -0.2922
   80SLPC   H3R 7388   2.961   3.429   7.143 -0.1760  0.2124  0.2772
   80SLPC   H3S 7389   3.056   3.568   7.172  1.5712 -1.1240  0.2327
   80SLPC   C24 7390   3.175   3.411   7.096  0.6068 -0.8380  0.5720
   80SLPC   H4R 7391   3.251   3.467   7.038  1.3461 -1.1787  1.1871
   80SLPC   H4S 7392   3.166   3.318   7.036  2.0740  0.1321 -1.2739
   80SLPC   C25 7393   3.221   3.380   7.234  0.0276  0.4608  0.0382
   80SLPC   H5R 7394   3.216   3.471   7.297  1.6571  0.7965 -0.2752
   80SLPC   H5S 7395   3.329   3.356   7.222 -0.2240 -0.6680 -0.1642
   80SLPC   C26 7396   3.136   3.277   7.312 -0.0493 -0.5981  0.9407
   80SLPC   H6R 7397   3.120   3.182   7.255 -4.1597 -0.1586  1.0777
   80SLPC   H6S 7398   3.037   3.324   7.329  0.9482  0.9984  2.6333
   80SLPC   C27 7399   3.204   3.230   7.444  0.2003  0.3680 -0.3467
   80SLPC   H7R 7400   3.307   3.205   7.411 -0.2901  0.8128 -2.3161
   80SLPC   H7S 7401   3.162   3.132   7.473  1.5557 -0.2132 -0.2533
   80SLPC   C28 7402   3.206   3.330   7.559  0.8618 -0.5828 -0.1129
   80SLPC   H8R 7403   3.105   3.374   7.565  1.3956  0.4849  3.2247
   80SLPC   H8S 7404   3.264   3.420   7.529 -0.7657  0.3968 -0.3940
   80SLPC   C29 7405   3.259   3.289   7.701  0.8448 -0.0760  0.5929
   80SLPC   H9R 7406   3.197   3.215   7.753 -0.6106  0.9638  0.3876
   80SLPC  C210 7407   3.366   3.332   7.767 -0.2788  0.9509 -0.1615
   80SLPC  H10R 7408   3.400   3.277   7.857 -0.7524  0.7358 -0.1134
   80SLPC  C211 7409   3.472   3.431   7.730 -0.2739  0.1004  0.0718
   80SLPC  H11R 7410   3.472   3.507   7.811  1.3459  1.6030 -1.2682
   80SLPC  H11S 7411   3.441   3.481   7.636 -0.6747 -0.3584 -0.0409
   80SLPC  C212 7412   3.611   3.367   7.701 -0.0260 -0.7228 -0.0353
   80SLPC  H12R 7413   3.667   3.336   7.790 -2.5488  0.2923  2.0402
   80SLPC  C213 7414   3.679   3.366   7.584  0.2670 -0.1905 -0.4243
   80SLPC  H13R 7415   3.780   3.325   7.575  1.1864  1.4655  1.6351
   80SLPC  C214 7416   3.621   3.427   7.459  0.4644  0.6227  0.2857
   80SLPC  H14R 7417   3.600   3.535   7.473  2.7762  0.8736  2.6819
   80SLPC  H14S 7418   3.520   3.383   7.448  1.1856 -1.0496  0.0749
   80SLPC  C215 7419   3.712   3.402   7.336  1.0868 -0.3242  0.5620
   80SLPC  H15R 7420   3.727   3.294   7.315 -1.6812 -0.4631 -1.2290
   80SLPC  H15S 7421   3.810   3.449   7.355  2.5198 -2.4103 -1.2189
   80SLPC  C216 7422   3.656   3.471   7.209  0.0874 -0.0235  0.0216
   80SLPC  H16R 7423   3.660   3.576   7.244  0.4632  0.3609 -1.1479
   80SLPC  H16S 7424   3.552   3.442   7.181  0.8780  0.1128 -3.3971
   80SLPC  C217 7425   3.752   3.451   7.099 -0.2467 -0.3655 -0.2316
   80SLPC  H17R 7426   3.764   3.341   7.099  1.5091 -0.2238  0.5341
   80SLPC  H17S 7427   3.857   3.481   7.122 -0.8160  0.5793  1.3214
   80SLPC  C218 7428   3.702   3.513   6.965 -0.6009 -0.5118  0.3946
   80SLPC  H18R 7429   3.625   3.445   6.923 -0.8421 -0.1837  0.2918
   80SLPC  H18S 7430   3.783   3.526   6.891 -0.5290  0.4103  0.6146
   80SLPC  H18T 7431   3.655   3.613   6.982 -0.8639 -0.3169 -1.2941
   80SLPC   C33 7432   3.048   2.910   6.958 -0.2398 -0.0315  0.2279
   80SLPC   H3X 7433   3.054   2.827   6.885 -0.9752  0.0255  0.0921
   80SLPC   H3Y 7434   2.942   2.945   6.954  0.3183  1.9070  1.2354
   80SLPC   C34 7435   3.074   2.841   7.097  0.0821  0.4644  0.0855
   80SLPC   H4X 7436   3.107   2.915   7.173  1.7328  2.5234 -2.4790
   80SLPC   H4Y 7437   3.160   2.772   7.084  1.4866  2.2658 -0.5676
   80SLPC   C35 7438   2.948   2.759   7.148 -0.6621 -0.3886  0.1692
   80SLPC   H5X 7439   2.853   2.808   7.118  1.4075  3.7249 -0.3499
   80SLPC   H5Y 7440   2.957   2.754   7.259  1.3509 -1.7750 -0.0207
   80SLPC   C36 7441   2.953   2.611   7.105 -0.3632 -0.5924  0.1985
   80SLPC   H6X 7442   3.025   2.547   7.162  1.8207 -0.6733 -2.4377
   80SLPC   H6Y 7443   3.000   2.603   7.004 -1.0984  1.8357 -0.3916
   80SLPC   C37 7444   2.817   2.546   7.125  0.2033  0.2315 -0.8436
   80SLPC   H7X 7445   2.826   2.439   7.095  0.3536 -0.1608  0.5108
   80SLPC   H7Y 7446   2.736   2.597   7.068  0.1771  0.8693 -0.2462
   80SLPC   C38 7447   2.768   2.552   7.271 -0.1045  0.0662 -0.0249
   80SLPC   H8X 7448   2.706   2.643   7.277 -0.9825 -0.2897 -2.6262
   80SLPC   H8Y 7449   2.857   2.553   7.339  1.0631 -3.5092 -1.2374
   80SLPC   C39 7450   2.681   2.430   7.311  0.0555  0.1401  0.2283
   80SLPC   H9X 7451   2.667   2.432   7.421  0.2294  1.4903  0.2367
   80SLPC   H9Y 7452   2.738   2.335   7.298 -2.5666 -1.6680  1.0445
   80SLPC  C310 7453   2.551   2.436   7.227 -0.2855 -0.3616 -0.0458
   80SLPC  H10X 7454   2.587   2.432   7.121 -1.0786  1.8947 -0.4570
   80SLPC  H10Y 7455   2.511   2.535   7.259 -0.8495 -0.4065 -0.5939
   80SLPC  C311 7456   2.459   2.317   7.260  0.0358 -0.1733 -0.0019
   80SLPC  H11X 7457   2.520   2.224   7.266  1.8979  1.0460  1.2598
   80SLPC  H11Y 7458   2.386   2.300   7.179  0.6604 -1.3933 -0.3322
   80SLPC  C312 7459   2.383   2.333   7.397 -0.3855  0.3629 -0.1374
   80SLPC  H12X 7460   2.294   2.397   7.376 -1.2374 -0.9031 -0.5581
   80SLPC  H12Y 7461   2.444   2.384   7.475 -1.5802 -0.1432  1.1729
   80SLPC  C313 7462   2.344   2.194   7.444 -0.2784  0.2288  0.1629
   80SLPC  H13X 7463   2.426   2.123   7.417 -0.9745  0.2477 -2.1724
   80SLPC  H13Y 7464   2.248   2.175   7.391 -1.2885  3.0744  0.8096
   80SLPC  C314 7465   2.324   2.184   7.596  0.9210 -0.6306 -0.6254
   80SLPC  H14X 7466   2.422   2.191   7.648 -0.0333  0.2363  1.1699
   80SLPC  H14Y 7467   2.277   2.085   7.618 -0.2511 -0.5641 -2.5857
   80SLPC  C315 7468   2.254   2.302   7.661 -0.0478 -0.0156 -0.2548
   80SLPC  H15X 7469   2.150   2.283   7.628  0.5487 -1.9919 -1.1505
   80SLPC  H15Y 7470   2.279   2.404   7.625  1.9393  0.1265  1.3442
   80SLPC  C316 7471   2.262   2.293   7.819 -0.1590 -0.7293  0.2623
   80SLPC  H16X 7472   2.368   2.278   7.849  0.1599 -0.1197 -0.5339
   80SLPC  H16Y 7473   2.214   2.194   7.836 -0.6924 -0.4539  0.3688
   80SLPC  C317 7474   2.187   2.403   7.890  0.6320  0.1127 -0.4391
   80SLPC  H17X 7475   2.080   2.393   7.864  0.6372  0.5583 -0.6470
   80SLPC  H17Y 7476   2.219   2.503   7.852  1.7707 -0.1502 -0.2183
   80SLPC  C318 7477   2.192   2.400   8.040 -0.5203  0.2706  0.4632
   80SLPC  H18X 7478   2.292   2.429   8.076 -1.5390  3.0355  1.3021
   80SLPC  H18Y 7479   2.158   2.303   8.082 -2.7520  0.9350  0.3660
   80SLPC  H18Z 7480   2.115   2.471   8.077  0.2819  1.6068 -0.3276
   81SAPS     N 7481   5.277   1.209  10.819  0.0785 -0.6482  0.6794
   81SAPS   HN1 7482   5.338   1.214  10.735 -1.4489 -0.7451 -0.4679
   81SAPS   HN2 7483   5.262   1.106  10.822  2.2572 -1.0557 -0.5060
   81SAPS   HN3 7484   5.197   1.268  10.788  1.0701 -0.8335 -2.5537
   81SAPS   C12 7485   5.351   1.260  10.945  0.6950 -0.4634  0.4740
   81SAPS  H12A 7486   5.273   1.279  11.017  0.8684  0.1399  0.5100
   81SAPS   C13 7487   5.453   1.152  11.002 -0.8505  0.2637  0.8106
   81SAPS  O13A 7488   5.482   1.045  10.941 -0.6674 -0.3334 -0.0738
   81SAPS  O13B 7489   5.521   1.191  11.109  0.8399  0.1992 -0.0007
   81SAPS   C11 7490   5.422   1.398  10.921 -0.2736 -0.2065  0.2761
   81SAPS  H11A 7491   5.503   1.384  10.846 -0.0409  5.2701 -0.8683
   81SAPS  H11B 7492   5.464   1.429  11.018 -2.7377  2.1990  0.6850
   81SAPS     P 7493   5.394   1.628  10.813 -0.2496 -0.0927  0.2487
   81SAPS   O13 7494   5.293   1.736  10.819 -0.0318 -0.3741  0.1999
   81SAPS   O14 7495   5.524   1.660  10.880 -0.1694 -0.5291  0.2971
   81SAPS   O12 7496   5.335   1.502  10.876 -0.6778  0.1337  0.8234
   81SAPS   O11 7497   5.414   1.588  10.662  0.0343 -0.6155 -0.2072
   81SAPS    C1 7498   5.294   1.549  10.586  0.0405 -0.9157  0.0355
   81SAPS    HA 7499   5.276   1.439  10.585 -0.3769 -0.8629 -1.7571
   81SAPS    HB 7500   5.202   1.601  10.619  1.3516  1.5594  0.0557
   81SAPS    C2 7501   5.310   1.585  10.441 -0.8738  0.6791  0.3030
   81SAPS    HS 7502   5.408   1.542  10.409  0.0046  1.5874  1.6256
   81SAPS   O21 7503   5.303   1.726  10.404 -0.4645  0.6778  0.6684
   81SAPS   C21 7504   5.403   1.814  10.403 -0.8181 -0.1400 -0.3165
   81SAPS   O22 7505   5.521   1.785  10.411  0.1135 -0.2875 -0.2349
   81SAPS   C22 7506   5.350   1.952  10.399  0.5526 -0.2803 -0.3131
   81SAPS   H2R 7507   5.242   1.946  10.373  0.5561  3.1322 -1.7108
   81SAPS   H2S 7508   5.342   1.989  10.504  1.6211  2.1503 -0.9989
   81SAPS    C3 7509   5.199   1.508  10.364 -0.2162 -0.0269 -0.1936
   81SAPS    HX 7510   5.110   1.571  10.387  0.3630  0.4213  0.8999
   81SAPS    HY 7511   5.180   1.415  10.421  2.8849 -0.2924  0.5529
   81SAPS   O31 7512   5.213   1.483  10.223  0.0940 -0.6960 -0.0228
   81SAPS   C31 7513   5.190   1.586  10.146 -1.1353  0.2297 -0.1368
   81SAPS   O32 7514   5.127   1.686  10.171  0.5402  0.3581  0.3279
   81SAPS   C32 7515   5.260   1.560  10.010  0.2783  0.0134 -0.7836
   81SAPS   H2X 7516   5.185   1.500   9.955 -0.5424 -0.0153  0.3327
   81SAPS   H2Y 7517   5.347   1.497  10.038 -0.3863 -0.4766  0.2398
   81SAPS   C23 7518   5.426   2.044  10.312  0.0239  0.5444 -0.0912
   81SAPS   H3R 7519   5.535   2.042  10.335  0.1395 -1.9774 -0.5855
   81SAPS   H3S 7520   5.396   2.151  10.324  1.8919  1.2644 -1.4037
   81SAPS   C24 7521   5.432   2.008  10.159  0.3342 -0.7632  0.0923
   81SAPS   H4R 7522   5.471   1.904  10.148  1.4054 -0.3579 -0.0248
   81SAPS   H4S 7523   5.514   2.072  10.121  2.5095 -2.3408  1.8974
   81SAPS   C25 7524   5.297   2.033  10.085 -0.0070  0.6172 -1.2441
   81SAPS   H5R 7525   5.221   1.956  10.104 -0.6869  1.4995 -0.2673
   81SAPS   C26 7526   5.269   2.130   9.997 -0.0208  0.2349 -0.7419
   81SAPS   H6R 7527   5.171   2.134   9.948 -1.4253 -2.5304  1.5172
   81SAPS   C27 7528   5.366   2.241   9.962  0.4703 -0.7215 -0.3142
   81SAPS   H7R 7529   5.469   2.203   9.974  0.8512  0.3492 -0.1476
   81SAPS   H7S 7530   5.348   2.326  10.032  1.3649 -1.7170  1.1745
   81SAPS   C28 7531   5.347   2.280   9.817 -0.1148 -0.2962 -0.1929
   81SAPS   H8R 7532   5.246   2.300   9.779 -0.4208  1.3200  1.3526
   81SAPS   C29 7533   5.446   2.302   9.726  1.0008 -0.4574 -0.5987
   81SAPS   H9R 7534   5.412   2.329   9.624 -1.3789  0.7663  0.4437
   81SAPS  C210 7535   5.591   2.303   9.741  0.2381  0.2604  0.3631
   81SAPS  H10R 7536   5.622   2.291   9.846 -1.6703 -1.0191  0.8286
   81SAPS  H10S 7537   5.627   2.403   9.708  2.9505  0.1286  2.6060
   81SAPS  C211 7538   5.663   2.198   9.654  0.3437  0.2687  0.0170
   81SAPS  H11R 7539   5.625   2.194   9.550  0.2426 -2.4822  0.0655
   81SAPS  C212 7540   5.758   2.112   9.696  0.6311  0.0103 -0.4312
   81SAPS  H12R 7541   5.794   2.042   9.619  0.7796  0.8753 -1.1671
   81SAPS  C213 7542   5.826   2.096   9.827  0.6099  0.4136 -0.0514
   81SAPS  H13R 7543   5.849   1.994   9.865  0.0506 -0.1882 -1.2674
   81SAPS  H13S 7544   5.758   2.134   9.906  1.2641  3.1627 -0.6960
   81SAPS  C214 7545   5.941   2.190   9.839 -0.7178  0.7125  0.3196
   81SAPS  H14R 7546   5.943   2.286   9.785  1.4163 -1.4066 -3.9294
   81SAPS  C215 7547   6.059   2.157   9.885 -0.3278 -0.2031  0.6223
   81SAPS  H15R 7548   6.137   2.235   9.892 -0.6954  0.1092  1.3479
   81SAPS  C216 7549   6.100   2.028   9.948 -0.2730  0.9005  0.0613
   81SAPS  H16R 7550   6.087   1.942   9.879  0.2133  2.0435 -1.5216
   81SAPS  H16S 7551   6.037   2.018  10.039  0.0577  1.9093  0.4229
   81SAPS  C217 7552   6.241   2.019  10.015 -0.0970 -0.6754 -0.4529
   81SAPS  H17R 7553   6.236   1.930  10.081  0.7692 -1.2794 -1.1696
   81SAPS  H17S 7554   6.255   2.115  10.070  1.2145 -1.7162  1.1050
   81SAPS  C218 7555   6.355   1.999   9.913 -0.0790 -0.5580  0.9192
   81SAPS  H18R 7556   6.344   2.080   9.838  0.3518 -2.5293 -1.4204
   81SAPS  H18S 7557   6.328   1.910   9.852  0.7072  0.5577 -1.1732
   81SAPS  C219 7558   6.492   1.981   9.980  0.3067  0.2344 -0.2392
   81SAPS  H19R 7559   6.567   1.952   9.904 -0.8565  0.5286 -1.5458
   81SAPS  H19S 7560   6.482   1.894  10.049  0.2903  2.4743  2.7716
   81SAPS  C220 7561   6.537   2.093  10.079 -0.4838 -0.2368  0.6231
   81SAPS  H20R 7562   6.559   2.187  10.024  0.9581 -0.2254  1.1985
   81SAPS  H20S 7563   6.626   2.064  10.137  0.2417 -0.3156 -0.4952
   81SAPS  H20T 7564   6.460   2.121  10.154  0.3949  3.9966  0.1878
   81SAPS   C33 7565   5.295   1.685   9.927  0.5283  0.9485 -0.5438
   81SAPS   H3X 7566   5.376   1.741   9.978  0.2499  0.1096  0.8570
   81SAPS   H3Y 7567   5.208   1.753   9.909  0.4879  1.2163  0.6205
   81SAPS   C34 7568   5.337   1.651   9.787  0.6225 -0.2737 -0.1006
   81SAPS   H4X 7569   5.253   1.592   9.745  0.8519 -1.2732  0.7954
   81SAPS   H4Y 7570   5.421   1.579   9.787  0.6561 -0.3492 -2.9084
   81SAPS   C35 7571   5.384   1.778   9.716 -0.0115 -0.2677 -0.1491
   81SAPS   H5X 7572   5.469   1.810   9.779  0.2138  0.0992 -0.6390
   81SAPS   H5Y 7573   5.307   1.857   9.707  0.6206  0.1226 -3.0339
   81SAPS   C36 7574   5.447   1.735   9.579  0.2321  0.0513  0.5044
   81SAPS   H6X 7575   5.370   1.681   9.519  1.4655 -1.1803 -0.0297
   81SAPS   H6Y 7576   5.528   1.660   9.595 -0.0380 -0.2126  0.6470
   81SAPS   C37 7577   5.516   1.840   9.490 -0.2442 -0.1027 -0.2273
   81SAPS   H7X 7578   5.603   1.874   9.550 -0.1907  0.3359 -0.5435
   81SAPS   H7Y 7579   5.443   1.924   9.482  1.0551  1.0497 -0.4124
   81SAPS   C38 7580   5.548   1.797   9.339  0.0782  0.7366  0.2703
   81SAPS   H8X 7581   5.456   1.764   9.287  1.4595  1.0943 -2.5915
   81SAPS   H8Y 7582   5.617   1.710   9.329 -1.3003 -0.2622 -1.0010
   81SAPS   C39 7583   5.593   1.922   9.264 -0.2167  0.6672 -0.2420
   81SAPS   H9X 7584   5.505   1.990   9.255  0.0481  0.8905 -1.2901
   81SAPS   H9Y 7585   5.627   1.896   9.161  1.7573 -1.2084  0.8015
   81SAPS  C310 7586   5.709   2.006   9.329 -0.3265  0.3847 -0.0356
   81SAPS  H10X 7587   5.683   2.059   9.423  1.4685 -0.3365  0.9134
   81SAPS  H10Y 7588   5.714   2.081   9.247 -1.8760  1.5051  0.8362
   81SAPS  C311 7589   5.835   1.925   9.357 -0.5206 -0.2788 -0.4057
   81SAPS  H11X 7590   5.844   1.876   9.457 -0.2697 -1.9269 -1.1951
   81SAPS  H11Y 7591   5.917   1.998   9.342  0.5615 -1.4578 -0.4190
   81SAPS  C312 7592   5.868   1.814   9.266 -0.3822  0.8536  0.6508
   81SAPS  H12X 7593   5.878   1.848   9.160  1.0693 -1.6087 -0.0866
   81SAPS  H12Y 7594   5.797   1.729   9.260  1.7332 -1.0686  1.2700
   81SAPS  C313 7595   5.996   1.732   9.295  0.5761 -0.1375 -0.5915
   81SAPS  H13X 7596   5.986   1.695   9.399 -0.7862 -1.8985 -1.3037
   81SAPS  H13Y 7597   6.085   1.799   9.293  1.5021 -1.3037  0.3166
   81SAPS  C314 7598   6.011   1.614   9.198  0.2097 -0.1787 -0.0094
   81SAPS  H14X 7599   6.016   1.651   9.093  2.7854  3.9367  1.3063
   81SAPS  H14Y 7600   5.920   1.551   9.210  0.4099 -0.3917  0.3900
   81SAPS  C315 7601   6.138   1.529   9.217 -0.0196  0.0828  0.7656
   81SAPS  H15X 7602   6.119   1.429   9.173 -0.8468  0.3692  0.4585
   81SAPS  H15Y 7603   6.162   1.514   9.325  1.8588 -0.5762  0.3122
   81SAPS  C316 7604   6.263   1.590   9.141  0.6443 -0.2079  0.5360
   81SAPS  H16X 7605   6.291   1.692   9.175 -0.0502  0.5771 -1.1613
   81SAPS  H16Y 7606   6.235   1.603   9.034 -1.0436 -0.7999  0.8688
   81SAPS  C317 7607   6.396   1.514   9.147  0.1083  0.3702 -0.4198
   81SAPS  H17X 7608   6.457   1.569   9.072  1.2950 -2.0924 -1.3617
   81SAPS  H17Y 7609   6.389   1.419   9.090  0.4194 -0.7508  1.3424
   81SAPS  C318 7610   6.462   1.500   9.288  0.8267 -0.1318 -0.5804
   81SAPS  H18X 7611   6.555   1.445   9.265  0.3744 -0.7802 -0.8626
   81SAPS  H18Y 7612   6.398   1.435   9.351  1.5918 -1.4642 -1.1332
   81SAPS  H18Z 7613   6.481   1.599   9.336  2.1424 -1.3974  1.6785
   82SAPS     N 7614   4.178   6.667  11.093  0.2079  0.1981 -0.1674
   82SAPS   HN1 7615   4.126   6.756  11.105 -0.8807 -0.3730 -0.5919
   82SAPS   HN2 7616   4.256   6.661  11.161  2.1995  3.0345 -1.9667
   82SAPS   HN3 7617   4.226   6.679  11.001  1.5186  2.2420  0.6949
   82SAPS   C12 7618   4.073   6.573  11.107  0.3108 -0.7332  0.3599
   82SAPS  H12A 7619   4.133   6.483  11.109  3.7235  1.2529 -2.1282
   82SAPS   C13 7620   3.986   6.586  11.231 -0.1132 -0.5805  0.9476
   82SAPS  O13A 7621   4.000   6.693  11.302 -0.8179 -0.2986  0.1351
   82SAPS  O13B 7622   3.884   6.511  11.239 -0.5694 -0.2586 -0.0639
   82SAPS   C11 7623   3.987   6.564  10.978  0.0386 -0.1744  0.2156
   82SAPS  H11A 7624   3.915   6.648  10.984  0.9163  0.5008  1.6457
   82SAPS  H11B 7625   3.925   6.471  10.985 -3.1515  1.5546 -2.1862
   82SAPS     P 7626   4.064   6.454  10.753  0.4665 -0.3720 -0.1738
   82SAPS   O13 7627   4.121   6.337  10.811 -0.7523  0.2642 -0.1232
   82SAPS   O14 7628   3.930   6.432  10.699  0.5069  0.1087 -0.0455
   82SAPS   O12 7629   4.060   6.577  10.856  0.4166  0.5843 -0.7867
   82SAPS   O11 7630   4.163   6.505  10.640  0.2432 -0.3604  0.0550
   82SAPS    C1 7631   4.180   6.632  10.582  0.3314 -0.1442 -0.0985
   82SAPS    HA 7632   4.169   6.705  10.665  0.7678  1.0541 -1.0776
   82SAPS    HB 7633   4.281   6.633  10.537  0.7022 -2.6473  0.4907
   82SAPS    C2 7634   4.076   6.657  10.476  0.7653 -0.6952  0.0782
   82SAPS    HS 7635   3.979   6.610  10.502 -0.2034  1.6429  1.0088
   82SAPS   O21 7636   4.127   6.625  10.353 -0.0697  0.1862 -0.1515
   82SAPS   C21 7637   4.090   6.506  10.306 -0.0352  0.0132  0.1093
   82SAPS   O22 7638   4.012   6.428  10.361  0.0044 -0.4783 -0.2866
   82SAPS   C22 7639   4.152   6.487  10.165  1.2635  0.2639 -0.3349
   82SAPS   H2R 7640   4.123   6.579  10.109  0.2437  0.6110  0.7201
   82SAPS   H2S 7641   4.261   6.474  10.181  1.0281 -1.2911  0.1910
   82SAPS    C3 7642   4.030   6.799  10.466  0.3495 -1.1827  0.2229
   82SAPS    HX 7643   4.108   6.877  10.451  0.2520 -1.1722 -0.2545
   82SAPS    HY 7644   3.977   6.834  10.557  1.5800  2.8603 -0.3855
   82SAPS   O31 7645   3.935   6.805  10.361 -0.1508  0.3626  0.2475
   82SAPS   C31 7646   3.894   6.922  10.326  0.2214 -1.0093 -0.9245
   82SAPS   O32 7647   3.929   7.027  10.385 -0.1540  0.2426  0.2671
   82SAPS   C32 7648   3.782   6.903  10.228  0.5849  0.6094  0.4743
   82SAPS   H2X 7649   3.754   7.005  10.192  1.0182  0.3207 -0.7555
   82SAPS   H2Y 7650   3.693   6.857  10.275 -0.2403 -2.0964 -3.2894
   82SAPS   C23 7651   4.081   6.381  10.075 -1.0078 -0.4678 -0.3816
   82SAPS   H3R 7652   4.094   6.281  10.124  0.2846 -0.8013 -1.3582
   82SAPS   H3S 7653   4.135   6.371   9.979  0.0920 -0.5462  0.2221
   82SAPS   C24 7654   3.935   6.413  10.029 -0.8336  0.1066  0.4911
   82SAPS   H4R 7655   3.938   6.507   9.970 -0.7565  1.2826  2.2626
   82SAPS   H4S 7656   3.861   6.433  10.109 -3.7425  0.3118 -2.0922
   82SAPS   C25 7657   3.887   6.303   9.936  0.2851  0.3441  0.1215
   82SAPS   H5R 7658   3.873   6.203   9.981 -0.6528 -0.8532 -2.5840
   82SAPS   C26 7659   3.871   6.305   9.803 -0.6478 -0.5805  0.3646
   82SAPS   H6R 7660   3.823   6.226   9.744 -1.4170 -0.3609  0.6845
   82SAPS   C27 7661   3.895   6.422   9.704 -0.4237  0.1584 -0.1921
   82SAPS   H7R 7662   4.001   6.422   9.670 -0.1294 -0.4127  0.6754
   82SAPS   H7S 7663   3.897   6.515   9.765  0.0083 -1.1536  1.8935
   82SAPS   C28 7664   3.804   6.434   9.586  0.4153  0.6962 -0.3531
   82SAPS   H8R 7665   3.808   6.353   9.512  0.2133 -0.3351  0.7419
   82SAPS   C29 7666   3.711   6.526   9.564  0.0039 -0.1551 -0.5998
   82SAPS   H9R 7667   3.658   6.522   9.468  1.2829 -0.8351 -1.3062
   82SAPS  C210 7668   3.670   6.642   9.654 -0.2637 -0.2698  0.0602
   82SAPS  H10R 7669   3.761   6.693   9.693  0.0100  0.4921 -1.4783
   82SAPS  H10S 7670   3.617   6.593   9.738  2.6571 -1.2431  1.4933
   82SAPS  C211 7671   3.591   6.746   9.596  0.9457  0.3720 -0.6308
   82SAPS  H11R 7672   3.642   6.840   9.569 -0.4584  1.2452 -0.3730
   82SAPS  C212 7673   3.456   6.757   9.584  0.1147  0.7304 -0.3514
   82SAPS  H12R 7674   3.407   6.845   9.542 -0.6990 -0.0102 -0.9937
   82SAPS  C213 7675   3.366   6.640   9.632 -0.1697  0.2210 -0.1354
   82SAPS  H13R 7676   3.348   6.645   9.742 -1.0648  0.4649 -0.2772
   82SAPS  H13S 7677   3.413   6.542   9.611 -1.1622  0.1409 -2.1608
   82SAPS  C214 7678   3.235   6.652   9.571 -0.1535 -0.6498  0.1646
   82SAPS  H14R 7679   3.160   6.701   9.634 -0.3379  0.9223 -1.2175
   82SAPS  C215 7680   3.201   6.627   9.443  0.1481  0.0672  0.9265
   82SAPS  H15R 7681   3.101   6.653   9.407  0.0287  1.5147  2.2096
   82SAPS  C216 7682   3.303   6.569   9.349 -0.1237  0.6298  0.1100
   82SAPS  H16R 7683   3.280   6.462   9.334  1.1635  0.5626 -1.7785
   82SAPS  H16S 7684   3.407   6.567   9.390 -0.8914 -0.6864  2.1284
   82SAPS  C217 7685   3.317   6.637   9.215  0.8751  0.6475 -0.2662
   82SAPS  H17R 7686   3.382   6.574   9.151 -0.6590  0.1479 -1.3767
   82SAPS  H17S 7687   3.364   6.738   9.220 -0.8071  1.4921 -0.7895
   82SAPS  C218 7688   3.183   6.654   9.136  0.1310 -0.3668 -0.1966
   82SAPS  H18R 7689   3.122   6.740   9.172  2.0572  1.6312 -1.4716
   82SAPS  H18S 7690   3.121   6.562   9.129 -0.7278 -0.0786  2.4170
   82SAPS  C219 7691   3.201   6.693   8.987 -0.1077  0.3466 -0.7925
   82SAPS  H19R 7692   3.226   6.600   8.931  1.8020 -0.6308  1.4908
   82SAPS  H19S 7693   3.295   6.752   8.984  0.4081 -0.3735  0.4888
   82SAPS  C220 7694   3.084   6.779   8.934 -0.3223 -0.4335 -0.4917
   82SAPS  H20R 7695   3.085   6.765   8.824 -2.9121 -1.2087 -0.4882
   82SAPS  H20S 7696   3.106   6.884   8.962  2.1901 -0.8335 -0.7458
   82SAPS  H20T 7697   2.989   6.763   8.989 -0.5060  2.5291  0.2242
   82SAPS   C33 7698   3.820   6.815  10.105 -0.2628  0.3852 -0.1883
   82SAPS   H3X 7699   3.839   6.716  10.152  3.1357  0.9105 -0.1817
   82SAPS   H3Y 7700   3.916   6.845  10.057  0.8651 -3.1364 -0.4295
   82SAPS   C34 7701   3.703   6.801  10.006  0.6064  0.1244  0.4917
   82SAPS   H4X 7702   3.623   6.743  10.056  1.1034 -3.1777 -2.2024
   82SAPS   H4Y 7703   3.734   6.729   9.927  1.5739  1.6196 -0.5441
   82SAPS   C35 7704   3.651   6.928   9.941  0.6348  0.2862 -0.4358
   82SAPS   H5X 7705   3.606   6.999  10.013 -0.0184 -0.5226 -0.0257
   82SAPS   H5Y 7706   3.567   6.891   9.879 -0.5861 -0.4485  1.5488
   82SAPS   C36 7707   3.754   6.998   9.851  0.7236  1.0877 -0.5931
   82SAPS   H6X 7708   3.805   6.941   9.771  0.2205 -0.3120  0.0577
   82SAPS   H6Y 7709   3.840   7.029   9.914  1.3365  1.1562 -1.4462
   82SAPS   C37 7710   3.689   7.107   9.764  0.2550 -1.1299  0.1665
   82SAPS   H7X 7711   3.604   7.153   9.817  0.4817 -1.1089  0.5140
   82SAPS   H7Y 7712   3.646   7.058   9.674 -0.9490  1.5067 -0.7703
   82SAPS   C38 7713   3.784   7.220   9.710 -0.5287  0.0781 -1.0651
   82SAPS   H8X 7714   3.883   7.171   9.703 -0.4086  0.1333  0.0557
   82SAPS   H8Y 7715   3.807   7.298   9.785  0.4481 -2.1792  1.1279
   82SAPS   C39 7716   3.751   7.273   9.570 -0.6079  0.2256  0.4392
   82SAPS   H9X 7717   3.820   7.357   9.545 -0.9794  0.1863 -0.8016
   82SAPS   H9Y 7718   3.649   7.315   9.575 -0.1179  1.2927  2.0221
   82SAPS  C310 7719   3.764   7.176   9.447  0.2877 -0.7714 -0.2916
   82SAPS  H10X 7720   3.681   7.102   9.456  1.4381 -1.9629  0.9204
   82SAPS  H10Y 7721   3.857   7.116   9.457  1.4721  1.1789  0.7561
   82SAPS  C311 7722   3.770   7.239   9.311  0.6588  0.0861 -0.4747
   82SAPS  H11X 7723   3.854   7.312   9.305  1.5529 -1.0005 -1.6384
   82SAPS  H11Y 7724   3.680   7.303   9.295  0.6620  1.0641  2.6734
   82SAPS  C312 7725   3.796   7.142   9.198  0.1985 -0.0770  0.4088
   82SAPS  H12X 7726   3.726   7.057   9.214  1.0861 -1.1852 -1.2224
   82SAPS  H12Y 7727   3.893   7.094   9.223 -0.5149 -0.6390  2.2112
   82SAPS  C313 7728   3.789   7.203   9.058  0.0530 -0.0896 -0.4254
   82SAPS  H13X 7729   3.853   7.293   9.048  0.2782 -0.1800  0.1600
   82SAPS  H13Y 7730   3.689   7.252   9.057 -0.1472 -0.4757 -2.2692
   82SAPS  C314 7731   3.808   7.109   8.947 -1.2038  0.4808 -0.7554
   82SAPS  H14X 7732   3.759   7.012   8.968 -0.7878  0.1110 -1.4383
   82SAPS  H14Y 7733   3.918   7.094   8.936 -0.8004  3.0387 -0.6773
   82SAPS  C315 7734   3.759   7.168   8.816 -0.2438 -0.8680 -0.0779
   82SAPS  H15X 7735   3.816   7.263   8.816  1.4790 -1.8565 -1.2223
   82SAPS  H15Y 7736   3.649   7.183   8.824  0.0761  1.4166  0.5534
   82SAPS  C316 7737   3.798   7.078   8.700  0.8688  0.5572 -0.0376
   82SAPS  H16X 7738   3.743   6.982   8.710  0.3767  0.5658 -2.2610
   82SAPS  H16Y 7739   3.904   7.048   8.711  1.2687  1.9717  0.1257
   82SAPS  C317 7740   3.761   7.144   8.565  0.3891 -0.8265 -0.2653
   82SAPS  H17X 7741   3.796   7.099   8.470 -0.0894 -0.7545 -0.4777
   82SAPS  H17Y 7742   3.824   7.235   8.576 -0.1243 -0.5162  0.1828
   82SAPS  C318 7743   3.615   7.185   8.553  0.7057 -0.0081 -0.6827
   82SAPS  H18X 7744   3.609   7.248   8.463  2.5507  1.0325 -0.1304
   82SAPS  H18Y 7745   3.592   7.257   8.635 -2.0280 -2.6688  1.1336
   82SAPS  H18Z 7746   3.547   7.098   8.542 -0.4955  0.9969 -1.4463
   83SAPS     N 7747   3.182   1.375  11.364  0.0592  0.2846  0.1422
   83SAPS   HN1 7748   3.126   1.393  11.450 -0.7877 -0.8281 -0.1656
   83SAPS   HN2 7749   3.229   1.283  11.368  0.7380  0.4792 -2.0585
   83SAPS   HN3 7750   3.256   1.444  11.339  1.4657 -0.5359  1.8744
   83SAPS   C12 7751   3.077   1.371  11.249 -0.6293  0.9607 -0.0178
   83SAPS  H12A 7752   3.035   1.271  11.252  3.2823 -0.8532  0.1555
   83SAPS   C13 7753   2.969   1.481  11.261 -0.4101  0.8132 -0.4151
   83SAPS  O13A 7754   2.949   1.525  11.378 -0.1470 -0.6257 -0.3576
   83SAPS  O13B 7755   2.874   1.482  11.174 -0.0348  0.7040  0.2702
   83SAPS   C11 7756   3.150   1.401  11.112  0.1250  0.2119  0.2667
   83SAPS  H11A 7757   3.190   1.505  11.123 -1.2401  0.5758  2.6993
   83SAPS  H11B 7758   3.070   1.387  11.036  1.1442 -0.4117 -0.6977
   83SAPS     P 7759   3.365   1.337  10.987  0.1154 -0.0116 -0.2081
   83SAPS   O13 7760   3.447   1.450  11.043 -0.2902  0.2414  0.6274
   83SAPS   O14 7761   3.434   1.204  10.959  0.3343 -0.0441  0.1678
   83SAPS   O12 7762   3.252   1.305  11.090  0.1260  0.2928  0.1567
   83SAPS   O11 7763   3.288   1.387  10.862  0.1818 -0.4581 -0.3014
   83SAPS    C1 7764   3.228   1.301  10.776  0.1056 -0.2360 -0.4095
   83SAPS    HA 7765   3.193   1.211  10.831 -0.4770 -0.7873 -1.6503
   83SAPS    HB 7766   3.131   1.341  10.741 -1.6342 -2.6813  1.2665
   83SAPS    C2 7767   3.317   1.243  10.661  0.7229 -0.3754  0.4390
   83SAPS    HS 7768   3.377   1.158  10.700 -0.0387 -1.3791 -0.5422
   83SAPS   O21 7769   3.397   1.358  10.619 -0.5933  0.7451 -0.3251
   83SAPS   C21 7770   3.517   1.328  10.572 -0.4943 -0.0394 -0.4211
   83SAPS   O22 7771   3.580   1.222  10.585  0.2459  0.3753  0.0504
   83SAPS   C22 7772   3.580   1.464  10.528 -0.1349 -0.7230 -0.3158
   83SAPS   H2R 7773   3.495   1.520  10.482 -0.2359  0.3590  1.1220
   83SAPS   H2S 7774   3.608   1.523  10.618 -0.2277  0.9830 -1.3543
   83SAPS    C3 7775   3.227   1.195  10.532  0.0624 -0.2855 -0.3792
   83SAPS    HX 7776   3.152   1.272  10.506 -0.8544 -0.9676  0.1829
   83SAPS    HY 7777   3.161   1.107  10.549 -2.4824  1.6470  0.3148
   83SAPS   O31 7778   3.313   1.192  10.419 -0.8735 -0.3668  0.2567
   83SAPS   C31 7779   3.379   1.076  10.410  1.3986  0.2393  0.1770
   83SAPS   O32 7780   3.374   0.988  10.493 -0.1818 -1.0168 -0.7128
   83SAPS   C32 7781   3.466   1.066  10.282  0.4480  1.3581 -0.1058
   83SAPS   H2X 7782   3.569   1.050  10.320  1.5000  0.0094 -3.1746
   83SAPS   H2Y 7783   3.464   1.168  10.238  0.7894  2.1338  1.5723
   83SAPS   C23 7784   3.691   1.451  10.426  0.6155 -0.4223 -0.2098
   83SAPS   H3R 7785   3.665   1.378  10.347 -1.0646 -0.1466  0.0476
   83SAPS   H3S 7786   3.782   1.410  10.475 -1.1249 -2.2474  1.7134
   83SAPS   C24 7787   3.731   1.596  10.371  0.6841  0.0617  0.4822
   83SAPS   H4R 7788   3.782   1.640  10.459  0.6995  0.6719  0.1724
   83SAPS   H4S 7789   3.648   1.666  10.350  2.4475  1.8142 -1.0439
   83SAPS   C25 7790   3.828   1.586  10.253  0.1234 -0.2731  0.3094
   83SAPS   H5R 7791   3.923   1.637  10.273 -0.0427 -0.2138  0.9751
   83SAPS   C26 7792   3.811   1.533  10.128  0.1114 -0.0561 -0.1740
   83SAPS   H6R 7793   3.898   1.525  10.061  1.2535  3.9784  0.5229
   83SAPS   C27 7794   3.685   1.462  10.077 -0.2600 -0.4110 -0.2651
   83SAPS   H7R 7795   3.595   1.488  10.137  0.8056  0.2064  1.1142
   83SAPS   H7S 7796   3.700   1.352  10.089  1.5205 -0.5042 -2.7097
   83SAPS   C28 7797   3.659   1.504   9.937 -0.1523  0.1491 -0.5164
   83SAPS   H8R 7798   3.632   1.610   9.936  0.9488  0.4853  1.1225
   83SAPS   C29 7799   3.661   1.434   9.825 -0.3253  0.0253 -0.5989
   83SAPS   H9R 7800   3.624   1.485   9.735 -2.9968 -0.3704  0.1714
   83SAPS  C210 7801   3.691   1.292   9.808  0.5992  0.6605 -0.0709
   83SAPS  H10R 7802   3.606   1.252   9.748  0.5435  1.9745 -0.9119
   83SAPS  H10S 7803   3.687   1.241   9.906  0.3509 -0.2027 -0.5191
   83SAPS  C211 7804   3.823   1.253   9.743  0.5281  0.4820 -0.4336
   83SAPS  H11R 7805   3.912   1.283   9.801  0.2299  0.1169  0.2311
   83SAPS  C212 7806   3.840   1.193   9.621  0.7187 -0.4723 -0.4312
   83SAPS  H12R 7807   3.943   1.165   9.597  1.6983  1.9624  0.5743
   83SAPS  C213 7808   3.729   1.155   9.526  0.0617  0.7328 -0.2553
   83SAPS  H13R 7809   3.682   1.251   9.496 -1.0107  0.4320  0.3997
   83SAPS  H13S 7810   3.651   1.095   9.577  0.6681 -2.4438 -2.7202
   83SAPS  C214 7811   3.783   1.082   9.407 -0.4826  0.0439  0.2159
   83SAPS  H14R 7812   3.823   0.981   9.424  0.3039 -0.0679 -1.9692
   83SAPS  C215 7813   3.777   1.121   9.280  0.5011 -0.2973  0.2450
   83SAPS  H15R 7814   3.832   1.070   9.200  1.6887  0.4524  0.5603
   83SAPS  C216 7815   3.719   1.255   9.233  0.2642  1.2773 -0.6929
   83SAPS  H16R 7816   3.745   1.341   9.298  2.2788 -0.0885  0.4151
   83SAPS  H16S 7817   3.611   1.229   9.240  0.6397 -0.4721 -0.7011
   83SAPS  C217 7818   3.733   1.281   9.085 -0.1733  0.2780  0.7153
   83SAPS  H17R 7819   3.666   1.362   9.048  2.8076  2.0994 -1.1086
   83SAPS  H17S 7820   3.682   1.197   9.033  1.0330 -0.1959  0.2736
   83SAPS  C218 7821   3.875   1.311   9.038 -0.5638 -0.3127  0.0194
   83SAPS  H18R 7822   3.938   1.220   9.044  0.1802  0.2560  1.3004
   83SAPS  H18S 7823   3.913   1.383   9.113  2.0660 -2.6402  1.1029
   83SAPS  C219 7824   3.888   1.356   8.895  1.3712  0.0880  0.1196
   83SAPS  H19R 7825   3.996   1.375   8.878  1.4765  0.8783  1.5150
   83SAPS  H19S 7826   3.840   1.450   8.862  0.9658 -0.3582 -0.5996
   83SAPS  C220 7827   3.838   1.246   8.803 -0.0296  0.1247  0.0315
   83SAPS  H20R 7828   3.875   1.288   8.707 -0.4688  1.3620  0.3926
   83SAPS  H20S 7829   3.727   1.235   8.803 -0.1065  0.3170  2.2950
   83SAPS  H20T 7830   3.873   1.142   8.824 -2.1309 -0.4304  1.0409
   83SAPS   C33 7831   3.434   0.966  10.169 -0.1232 -0.6328  0.1332
   83SAPS   H3X 7832   3.490   0.997  10.078 -0.3873 -2.4708 -0.7158
   83SAPS   H3Y 7833   3.325   0.974  10.149 -0.2606 -1.1181  0.6556
   83SAPS   C34 7834   3.492   0.827  10.187 -0.3092 -0.8236 -0.1912
   83SAPS   H4X 7835   3.438   0.771  10.267  1.5426 -1.7615  0.4573
   83SAPS   H4Y 7836   3.598   0.815  10.218 -0.9062 -3.8590  1.0385
   83SAPS   C35 7837   3.465   0.748  10.061 -0.3400 -0.4499  0.5464
   83SAPS   H5X 7838   3.355   0.755  10.043 -0.3256  0.5318  0.7744
   83SAPS   H5Y 7839   3.474   0.638  10.071 -0.3141 -0.5700 -0.6851
   83SAPS   C36 7840   3.552   0.780   9.934  0.3454 -0.1079 -0.5608
   83SAPS   H6X 7841   3.658   0.747   9.941 -0.0423 -1.1461  0.6989
   83SAPS   H6Y 7842   3.563   0.890   9.920 -0.7884  0.1263  0.2654
   83SAPS   C37 7843   3.481   0.734   9.803  0.2201  0.3116 -0.3684
   83SAPS   H7X 7844   3.380   0.780   9.794  0.0986  0.0151 -0.5377
   83SAPS   H7Y 7845   3.479   0.624   9.818  0.1855  0.4886  1.0650
   83SAPS   C38 7846   3.548   0.775   9.674 -0.5158  0.3519  0.2230
   83SAPS   H8X 7847   3.643   0.719   9.669 -1.2516 -1.1852  2.2593
   83SAPS   H8Y 7848   3.563   0.885   9.683 -0.6974  0.2509  2.3291
   83SAPS   C39 7849   3.456   0.750   9.547 -0.0274 -0.9524 -0.2419
   83SAPS   H9X 7850   3.373   0.823   9.560  0.3371 -0.6025  0.1363
   83SAPS   H9Y 7851   3.407   0.651   9.563 -3.3783  0.3050 -1.6240
   83SAPS  C310 7852   3.526   0.771   9.412  0.1926  0.4303 -0.1647
   83SAPS  H10X 7853   3.598   0.692   9.382 -1.5276 -0.4287 -2.2248
   83SAPS  H10Y 7854   3.582   0.867   9.400 -0.0136  0.3602 -1.8085
   83SAPS  C311 7855   3.413   0.765   9.303  0.1200  0.3435 -0.6110
   83SAPS  H11X 7856   3.352   0.855   9.324  0.0032 -0.0926  1.0653
   83SAPS  H11Y 7857   3.354   0.672   9.317 -0.9097  0.8412 -1.5473
   83SAPS  C312 7858   3.464   0.749   9.158  0.5425 -0.4471  0.3447
   83SAPS  H12X 7859   3.373   0.729   9.097  1.3271 -0.2378 -0.9208
   83SAPS  H12Y 7860   3.531   0.661   9.158 -0.9582 -1.6344  0.2475
   83SAPS  C313 7861   3.547   0.869   9.115 -0.7315 -0.1953  0.8241
   83SAPS  H13X 7862   3.647   0.867   9.164 -1.1764 -1.9346  1.7085
   83SAPS  H13Y 7863   3.498   0.965   9.141 -0.0810  0.2543  0.4356
   83SAPS  C314 7864   3.556   0.862   8.959 -0.4677  0.1560 -0.3737
   83SAPS  H14X 7865   3.590   0.762   8.927 -2.3799 -0.0643 -1.8463
   83SAPS  H14Y 7866   3.644   0.923   8.928  2.0574 -3.2950 -0.6381
   83SAPS  C315 7867   3.427   0.907   8.894  0.7565  0.0784 -0.6998
   83SAPS  H15X 7868   3.385   1.003   8.930 -0.4237 -1.6013  2.8209
   83SAPS  H15Y 7869   3.346   0.839   8.927 -0.6507  1.3728 -1.3644
   83SAPS  C316 7870   3.428   0.897   8.741 -0.1929  0.3684 -0.5666
   83SAPS  H16X 7871   3.510   0.962   8.704 -0.7312  1.8974  0.8267
   83SAPS  H16Y 7872   3.335   0.925   8.688 -1.0579 -1.6193 -0.1927
   83SAPS  C317 7873   3.436   0.749   8.694 -0.5033 -0.2023 -0.1049
   83SAPS  H17X 7874   3.346   0.699   8.735 -1.2066  1.7542  0.8101
   83SAPS  H17Y 7875   3.530   0.701   8.732 -0.5236  0.8236  1.3111
   83SAPS  C318 7876   3.429   0.736   8.539 -0.6273  0.0828 -0.1134
   83SAPS  H18X 7877   3.469   0.636   8.509 -2.8732 -0.4443 -1.5856
   83SAPS  H18Y 7878   3.492   0.816   8.496  0.7099 -0.3721  0.9214
   83SAPS  H18Z 7879   3.328   0.748   8.494  0.0791  0.5440 -1.6448
   84SAPS     N 7880   6.553   6.220  10.830 -0.2294  0.0984  0.6678
   84SAPS   HN1 7881   6.640   6.250  10.877  0.7437  0.1495 -1.0661
   84SAPS   HN2 7882   6.544   6.117  10.817  0.6523 -0.0495  1.1783
   84SAPS   HN3 7883   6.543   6.246  10.729 -2.1419  1.5035  1.1602
   84SAPS   C12 7884   6.431   6.271  10.899 -0.6406 -0.0864  0.2633
   84SAPS  H12A 7885   6.439   6.225  10.996  2.8467 -2.2348 -0.8588
   84SAPS   C13 7886   6.428   6.423  10.895  0.8103 -0.2474  0.1158
   84SAPS  O13A 7887   6.512   6.489  10.829 -0.3502  0.2805 -0.2257
   84SAPS  O13B 7888   6.351   6.478  10.975 -0.2578  0.0772 -0.3788
   84SAPS   C11 7889   6.304   6.205  10.835 -0.0119  0.2674 -0.5555
   84SAPS  H11A 7890   6.305   6.232  10.727 -1.3797  0.5972 -0.5169
   84SAPS  H11B 7891   6.214   6.259  10.872 -1.6069 -1.6223 -1.4806
   84SAPS     P 7892   6.193   5.962  10.809 -0.0604 -0.3300 -0.1583
   84SAPS   O13 7893   6.273   5.859  10.750 -0.3926  0.2194  0.3644
   84SAPS   O14 7894   6.103   5.905  10.915  0.0049  0.1032  0.3180
   84SAPS   O12 7895   6.301   6.064  10.867  0.3611 -0.4881 -0.1726
   84SAPS   O11 7896   6.122   6.035  10.689 -0.4999 -0.1300  0.4036
   84SAPS    C1 7897   5.992   6.100  10.699 -0.1576  0.5437  0.1603
   84SAPS    HA 7898   5.921   6.049  10.768  0.5451  1.1202  1.3337
   84SAPS    HB 7899   6.015   6.196  10.750  0.0741 -0.4420  2.0210
   84SAPS    C2 7900   5.925   6.125  10.561  0.1119  0.1573  0.4996
   84SAPS    HS 7901   5.830   6.182  10.565  1.6829  3.1629 -1.5876
   84SAPS   O21 7902   5.909   5.997  10.495  0.0213 -0.6065 -0.0720
   84SAPS   C21 7903   5.804   5.926  10.548 -0.5046  0.5352  0.6852
   84SAPS   O22 7904   5.721   5.973  10.620  0.8031 -0.1770  0.0216
   84SAPS   C22 7905   5.805   5.780  10.490 -0.0709 -0.2812 -1.1623
   84SAPS   H2R 7906   5.899   5.742  10.444  0.6917 -1.2955  1.0530
   84SAPS   H2S 7907   5.771   5.712  10.571  0.2577  1.4764  0.5258
   84SAPS    C3 7908   6.023   6.207  10.468  0.1722 -0.4820  0.8278
   84SAPS    HX 7909   6.114   6.143  10.461 -0.9318 -2.6373  4.0424
   84SAPS    HY 7910   6.060   6.298  10.519  1.9772 -0.6041 -0.1914
   84SAPS   O31 7911   5.960   6.234  10.341 -0.1848  0.4253 -0.2965
   84SAPS   C31 7912   5.999   6.176  10.227  0.2735 -0.8385 -0.4581
   84SAPS   O32 7913   6.054   6.068  10.217  0.4077 -0.7778  0.3288
   84SAPS   C32 7914   5.962   6.275  10.112 -0.4091  0.4825  0.1397
   84SAPS   H2X 7915   5.899   6.361  10.143  0.9689  2.1613 -1.4710
   84SAPS   H2Y 7916   5.896   6.212  10.049 -1.9881  0.3839  1.8079
   84SAPS   C23 7917   5.699   5.767  10.382  0.6037  0.1462  0.2895
   84SAPS   H3R 7918   5.729   5.832  10.297  1.6506 -1.6131 -0.7779
   84SAPS   H3S 7919   5.604   5.811  10.417 -0.2524  0.0503 -1.7292
   84SAPS   C24 7920   5.675   5.623  10.321  0.1033  0.1230 -0.3424
   84SAPS   H4R 7921   5.674   5.555  10.408  1.5793  4.6020  3.6050
   84SAPS   H4S 7922   5.759   5.596  10.254 -0.4352  0.6988 -1.2861
   84SAPS   C25 7923   5.541   5.615  10.259  0.0002 -0.3792  0.9311
   84SAPS   H5R 7924   5.461   5.604  10.335 -1.9936 -2.3633 -1.2911
   84SAPS   C26 7925   5.500   5.632  10.129 -0.2613  0.1760 -0.4995
   84SAPS   H6R 7926   5.395   5.615  10.103 -0.3509 -0.6411  0.3900
   84SAPS   C27 7927   5.593   5.664  10.014  0.6724  0.1434  0.1940
   84SAPS   H7R 7928   5.627   5.566   9.973  0.1228 -0.5299  1.2893
   84SAPS   H7S 7929   5.691   5.712  10.035  0.3186  1.2603 -0.5879
   84SAPS   C28 7930   5.524   5.732   9.904  0.5404 -1.0380 -0.2705
   84SAPS   H8R 7931   5.499   5.838   9.918 -1.0632 -1.5949  1.3906
   84SAPS   C29 7932   5.470   5.672   9.794 -0.0254  0.0847 -0.2978
   84SAPS   H9R 7933   5.411   5.726   9.719 -1.7711 -1.8719 -0.4319
   84SAPS  C210 7934   5.471   5.518   9.776  0.9739 -0.1277  0.4701
   84SAPS  H10R 7935   5.456   5.452   9.864  1.2135 -1.6506 -0.5745
   84SAPS  H10S 7936   5.574   5.496   9.739  0.5523  0.0020 -0.8283
   84SAPS  C211 7937   5.370   5.463   9.681 -0.2210 -0.5875  0.7259
   84SAPS  H11R 7938   5.298   5.400   9.735  1.0641 -2.8567 -0.0991
   84SAPS  C212 7939   5.369   5.472   9.549  0.1604  0.0404 -1.3324
   84SAPS  H12R 7940   5.287   5.418   9.499 -1.0210 -0.0864  0.6451
   84SAPS  C213 7941   5.470   5.546   9.461 -0.0588  0.2808 -0.3916
   84SAPS  H13R 7942   5.511   5.632   9.517 -2.3138  2.0926 -1.3589
   84SAPS  H13S 7943   5.414   5.592   9.377 -0.4932  0.0138 -0.2545
   84SAPS  C214 7944   5.575   5.445   9.416 -0.0251 -0.7459 -0.0458
   84SAPS  H14R 7945   5.658   5.428   9.486  2.8130 -2.9001 -3.5829
   84SAPS  C215 7946   5.583   5.383   9.301  0.1941  0.4202  0.0164
   84SAPS  H15R 7947   5.659   5.304   9.296 -1.3490 -1.0937 -0.1967
   84SAPS  C216 7948   5.496   5.390   9.180  0.1587  0.2270  0.4292
   84SAPS  H16R 7949   5.553   5.355   9.091 -1.8427  1.4834 -1.4590
   84SAPS  H16S 7950   5.464   5.495   9.161  1.2858  0.5473  0.2748
   84SAPS  C217 7951   5.370   5.300   9.202  0.0860 -0.1623 -0.3012
   84SAPS  H17R 7952   5.314   5.293   9.106  0.7111  0.6396 -0.7382
   84SAPS  H17S 7953   5.310   5.356   9.276  0.9638  0.3056  0.0733
   84SAPS  C218 7954   5.385   5.161   9.265 -0.2498 -0.8213 -0.4141
   84SAPS  H18R 7955   5.444   5.160   9.359  0.2317  1.5065 -0.6306
   84SAPS  H18S 7956   5.453   5.108   9.196  1.1185  0.8028 -0.3713
   84SAPS  C219 7957   5.260   5.089   9.288  0.2228 -0.3533  0.0206
   84SAPS  H19R 7958   5.268   4.979   9.278  0.4141 -0.5269  1.7418
   84SAPS  H19S 7959   5.194   5.126   9.206  1.1899 -0.5623 -0.8677
   84SAPS  C220 7960   5.194   5.127   9.423 -0.1523  0.5238 -0.6628
   84SAPS  H20R 7961   5.085   5.106   9.423 -0.2089 -0.3271  4.1308
   84SAPS  H20S 7962   5.213   5.233   9.449  1.4410  0.2619 -0.6399
   84SAPS  H20T 7963   5.237   5.066   9.506 -1.1940  2.3435  1.3175
   84SAPS   C33 7964   6.099   6.324  10.052  0.3485  0.2888 -0.6707
   84SAPS   H3X 7965   6.183   6.347  10.121 -1.4627  1.8927  1.1418
   84SAPS   H3Y 7966   6.069   6.423  10.010 -1.1695  0.1301 -0.0414
   84SAPS   C34 7967   6.143   6.235   9.937  0.3243  0.3077  0.6292
   84SAPS   H4X 7968   6.122   6.131   9.970  0.6682  0.3642  1.0435
   84SAPS   H4Y 7969   6.252   6.249   9.917 -0.1858  1.9838 -1.3211
   84SAPS   C35 7970   6.062   6.253   9.811 -0.1363  0.5209  0.6505
   84SAPS   H5X 7971   6.077   6.358   9.778  0.1775  0.9255  2.0265
   84SAPS   H5Y 7972   5.953   6.248   9.832  0.0270 -0.7957  1.2591
   84SAPS   C36 7973   6.112   6.165   9.692  1.0745 -0.4367  0.2119
   84SAPS   H6X 7974   6.130   6.064   9.734 -1.9909 -0.4318  1.7802
   84SAPS   H6Y 7975   6.215   6.198   9.664  2.0805 -1.7036  2.1852
   84SAPS   C37 7976   6.030   6.158   9.561 -0.7618  0.0380  0.2368
   84SAPS   H7X 7977   6.016   6.267   9.541 -2.8209 -0.0597  0.8168
   84SAPS   H7Y 7978   5.926   6.122   9.580 -0.5234  0.6751  3.1861
   84SAPS   C38 7979   6.095   6.080   9.450  0.5057 -0.1039  0.6454
   84SAPS   H8X 7980   6.108   5.977   9.488 -3.1389 -0.6435  0.8328
   84SAPS   H8Y 7981   6.196   6.114   9.421  1.2371 -1.7222  1.2135
   84SAPS   C39 7982   6.006   6.080   9.326 -0.3796 -0.0460  0.5756
   84SAPS   H9X 7983   5.901   6.062   9.357 -0.6151  1.0893  0.5011
   84SAPS   H9Y 7984   6.028   5.981   9.280  0.8960 -0.9077  2.8888
   84SAPS  C310 7985   6.025   6.194   9.228  0.3909 -0.2410 -0.3086
   84SAPS  H10X 7986   6.123   6.202   9.176  0.3987 -0.7801 -0.3913
   84SAPS  H10Y 7987   6.006   6.283   9.292 -1.4905 -0.4479 -0.5147
   84SAPS  C311 7988   5.910   6.205   9.120 -1.1761  1.3777  1.0888
   84SAPS  H11X 7989   5.911   6.110   9.062  0.3468  1.1610  1.4354
   84SAPS  H11Y 7990   5.946   6.285   9.052  1.5723 -0.3308  0.3845
   84SAPS  C312 7991   5.775   6.238   9.175  0.1019 -0.3004 -0.3265
   84SAPS  H12X 7992   5.772   6.311   9.260 -1.4512 -1.8718  1.0377
   84SAPS  H12Y 7993   5.726   6.147   9.214 -4.1670  1.8693 -0.0673
   84SAPS  C313 7994   5.679   6.282   9.058 -0.6767  1.0356  0.0875
   84SAPS  H13X 7995   5.719   6.374   9.010 -1.7770  2.2045  1.2963
   84SAPS  H13Y 7996   5.585   6.320   9.104 -0.3748  1.5340  0.3111
   84SAPS  C314 7997   5.641   6.166   8.967  0.0443  0.0393 -0.5890
   84SAPS  H14X 7998   5.594   6.093   9.036  1.4700  0.4033  0.8390
   84SAPS  H14Y 7999   5.731   6.115   8.927  0.6182  0.8836 -0.3982
   84SAPS  C315 8000   5.553   6.209   8.851  0.2005  0.2892 -0.1076
   84SAPS  H15X 8001   5.616   6.276   8.788 -1.6572  0.1912 -2.1937
   84SAPS  H15Y 8002   5.474   6.277   8.890  1.4192  1.3380  0.6017
   84SAPS  C316 8003   5.492   6.087   8.792  0.2866 -0.0831  0.3728
   84SAPS  H16X 8004   5.475   6.004   8.864  1.2136  0.9698  1.8578
   84SAPS  H16Y 8005   5.561   6.042   8.717 -0.8869 -0.7540 -0.3448
   84SAPS  C317 8006   5.352   6.105   8.721 -0.2114 -0.0374  0.0222
   84SAPS  H17X 8007   5.319   6.001   8.698 -1.1126 -0.0372  1.2148
   84SAPS  H17Y 8008   5.365   6.166   8.630 -0.6365 -0.7256 -0.5159
   84SAPS  C318 8009   5.245   6.177   8.804 -0.3030 -0.6384  0.7162
   84SAPS  H18X 8010   5.142   6.167   8.763  0.1524  0.7464 -0.8886
   84SAPS  H18Y 8011   5.260   6.287   8.816  2.7942 -0.8333 -0.4850
   84SAPS  H18Z 8012   5.248   6.150   8.911  0.5677  1.0484  1.1518
   85SAPS     N 8013   2.128   1.254  10.779  0.2477 -0.3304 -0.0538
   85SAPS   HN1 8014   2.032   1.283  10.751  0.0807  1.8773  2.3458
   85SAPS   HN2 8015   2.186   1.213  10.704  0.2131  3.2371 -2.2834
   85SAPS   HN3 8016   2.127   1.189  10.860  3.5837  0.2413  0.5791
   85SAPS   C12 8017   2.191   1.365  10.849  0.2480 -0.7507  0.3066
   85SAPS  H12A 8018   2.115   1.435  10.880 -1.3013 -2.9142  1.6802
   85SAPS   C13 8019   2.252   1.326  10.976 -0.2998  1.0761 -0.3593
   85SAPS  O13A 8020   2.245   1.206  11.015  0.1810 -0.7292  0.0029
   85SAPS  O13B 8021   2.292   1.413  11.055  0.6973 -0.3122  0.5721
   85SAPS   C11 8022   2.292   1.425  10.753  0.6790  0.0793 -0.3079
   85SAPS  H11A 8023   2.368   1.346  10.741 -0.6329 -1.4416  0.9028
   85SAPS  H11B 8024   2.337   1.520  10.790 -1.1813  0.2294  1.8189
   85SAPS     P 8025   2.245   1.576  10.539  0.2812  0.3471 -0.2856
   85SAPS   O13 8026   2.262   1.690  10.632  0.0150  0.1108 -0.3592
   85SAPS   O14 8027   2.345   1.566  10.432 -0.3478 -0.0190 -0.4846
   85SAPS   O12 8028   2.234   1.443  10.621  0.2573 -0.3356 -0.5377
   85SAPS   O11 8029   2.103   1.593  10.470  0.0831  0.7645  0.0477
   85SAPS    C1 8030   2.027   1.472  10.433  0.0654 -0.9223  0.3808
   85SAPS    HA 8031   2.102   1.389  10.427  2.2523  0.8779  1.2794
   85SAPS    HB 8032   1.959   1.447  10.518 -1.5231  1.0483 -0.2358
   85SAPS    C2 8033   1.958   1.480  10.294 -0.6379 -0.1655 -0.3081
   85SAPS    HS 8034   2.037   1.521  10.228 -0.1506 -0.5167  0.0553
   85SAPS   O21 8035   1.848   1.573  10.299  0.7471  0.3207  0.3049
   85SAPS   C21 8036   1.834   1.650  10.199 -0.3976 -0.1868 -0.1849
   85SAPS   O22 8037   1.919   1.668  10.112 -0.8337  0.3336 -0.4267
   85SAPS   C22 8038   1.705   1.723  10.207  0.0003  0.2597  0.2983
   85SAPS   H2R 8039   1.620   1.653  10.226  0.2504 -0.0112  0.4164
   85SAPS   H2S 8040   1.714   1.794  10.293  1.8105  0.3087  0.1055
   85SAPS    C3 8041   1.916   1.344  10.246  0.2583 -0.6078 -0.7830
   85SAPS    HX 8042   1.840   1.305  10.316 -1.1770 -0.3397 -2.1216
   85SAPS    HY 8043   2.002   1.274  10.253 -0.2234 -1.0152  2.7167
   85SAPS   O31 8044   1.854   1.335  10.115  0.0352 -0.1763  0.0590
   85SAPS   C31 8045   1.935   1.313  10.019 -0.1105  0.0247  0.0542
   85SAPS   O32 8046   2.049   1.272  10.024 -0.6465 -1.1454 -0.3270
   85SAPS   C32 8047   1.867   1.322   9.888  0.0639 -1.1384 -0.6793
   85SAPS   H2X 8048   1.808   1.416   9.880  1.6639 -0.1729 -1.4807
   85SAPS   H2Y 8049   1.793   1.239   9.882 -0.0024 -1.2615  1.1687
   85SAPS   C23 8050   1.673   1.803  10.079  0.0400 -0.8215  0.6398
   85SAPS   H3R 8051   1.764   1.859  10.049  1.7381 -3.3626  0.7800
   85SAPS   H3S 8052   1.591   1.873  10.108 -1.1084 -1.6126 -0.5654
   85SAPS   C24 8053   1.616   1.722   9.964  0.0471 -0.1299  0.2750
   85SAPS   H4R 8054   1.548   1.649  10.012  0.3659  0.4663  1.6692
   85SAPS   H4S 8055   1.697   1.663   9.917 -0.9841 -0.6217 -0.9649
   85SAPS   C25 8056   1.544   1.808   9.861 -0.1962  0.6780 -0.1020
   85SAPS   H5R 8057   1.486   1.892   9.901  0.0212  0.7641  0.0330
   85SAPS   C26 8058   1.554   1.805   9.729 -0.3661 -0.1215 -0.3816
   85SAPS   H6R 8059   1.494   1.879   9.674  0.2298  0.2025 -0.6077
   85SAPS   C27 8060   1.636   1.716   9.648 -0.7557  0.7487  0.4512
   85SAPS   H7R 8061   1.683   1.635   9.708 -1.5857  0.2239  0.4196
   85SAPS   H7S 8062   1.721   1.775   9.608 -1.3696  0.3832 -1.5029
   85SAPS   C28 8063   1.560   1.653   9.537  0.2150  0.2173  0.2784
   85SAPS   H8R 8064   1.459   1.623   9.567  0.1223  1.1425  0.9307
   85SAPS   C29 8065   1.593   1.654   9.405  0.0151 -1.1453  0.5453
   85SAPS   H9R 8066   1.513   1.622   9.336 -2.0449  0.3886  2.1145
   85SAPS  C210 8067   1.720   1.714   9.343  0.4999 -1.5577 -0.2375
   85SAPS  H10R 8068   1.810   1.669   9.391  1.4927  1.1906  0.6184
   85SAPS  H10S 8069   1.726   1.822   9.367  1.2143 -1.6236 -0.0889
   85SAPS  C211 8070   1.722   1.686   9.194  0.2465 -0.0902  0.1324
   85SAPS  H11R 8071   1.749   1.580   9.183  0.1779 -0.9087  5.2561
   85SAPS  C212 8072   1.690   1.765   9.092  0.5133 -0.0364 -0.1861
   85SAPS  H12R 8073   1.670   1.725   8.992 -0.3039  2.1429 -0.9554
   85SAPS  C213 8074   1.648   1.910   9.099  0.0324  0.0131  0.8175
   85SAPS  H13R 8075   1.741   1.959   9.134 -0.1600 -0.3800  1.9443
   85SAPS  H13S 8076   1.572   1.926   9.179 -0.3339  2.2944  0.0879
   85SAPS  C214 8077   1.594   1.967   8.966  0.2662 -0.1272 -0.2197
   85SAPS  H14R 8078   1.501   1.914   8.942  0.8911 -1.6183  0.5215
   85SAPS  C215 8079   1.647   2.053   8.878 -0.1310  0.1949 -0.1892
   85SAPS  H15R 8080   1.596   2.067   8.782  0.2558 -0.5181 -0.5004
   85SAPS  C216 8081   1.778   2.130   8.907 -0.3360 -0.0639 -0.0275
   85SAPS  H16R 8082   1.813   2.131   9.012  2.6260  1.7784 -0.8993
   85SAPS  H16S 8083   1.778   2.240   8.888  1.0834 -0.3645 -2.1031
   85SAPS  C217 8084   1.899   2.060   8.845  0.2727 -0.1085  0.5027
   85SAPS  H17R 8085   1.897   1.952   8.872  1.3682 -0.1840  0.3254
   85SAPS  H17S 8086   1.990   2.095   8.899  0.1878  0.8827  0.0171
   85SAPS  C218 8087   1.929   2.090   8.696  0.5525  0.3120 -0.1802
   85SAPS  H18R 8088   1.938   2.201   8.686 -0.8650  0.4936  0.2667
   85SAPS  H18S 8089   1.842   2.064   8.632  1.3073 -0.7203 -0.8075
   85SAPS  C219 8090   2.058   2.026   8.648 -0.2021 -0.7850 -0.1138
   85SAPS  H19R 8091   2.055   2.027   8.537  0.5277 -1.9396 -0.1556
   85SAPS  H19S 8092   2.062   1.920   8.681  0.0413  0.1378  3.1935
   85SAPS  C220 8093   2.191   2.102   8.687  0.0766  0.0453  0.7605
   85SAPS  H20R 8094   2.194   2.198   8.630  0.4246 -0.3536  0.0885
   85SAPS  H20S 8095   2.279   2.034   8.676  0.1017  0.2319 -0.3793
   85SAPS  H20T 8096   2.198   2.129   8.794  0.8958 -0.3908  0.8282
   85SAPS   C33 8097   1.963   1.315   9.762  0.6214 -0.3557  0.8106
   85SAPS   H3X 8098   2.003   1.213   9.749  1.1427 -0.2929  1.8572
   85SAPS   H3Y 8099   2.042   1.393   9.768  1.1329 -0.5790 -1.8530
   85SAPS   C34 8100   1.885   1.345   9.626 -0.5094 -0.1910  0.2205
   85SAPS   H4X 8101   1.854   1.452   9.617 -1.2470 -0.4810 -0.8502
   85SAPS   H4Y 8102   1.790   1.288   9.625 -1.0935  0.7607 -0.4990
   85SAPS   C35 8103   1.970   1.307   9.504 -0.3040 -0.2196 -0.2385
   85SAPS   H5X 8104   1.983   1.197   9.502  2.7033  0.0690 -0.3367
   85SAPS   H5Y 8105   2.076   1.338   9.515 -0.1613 -1.2351  1.6558
   85SAPS   C36 8106   1.903   1.346   9.371 -0.3944  0.2452 -0.3750
   85SAPS   H6X 8107   1.880   1.455   9.363 -0.8372  0.0735 -1.7507
   85SAPS   H6Y 8108   1.808   1.290   9.359  0.0452 -0.2146 -2.0509
   85SAPS   C37 8109   1.993   1.300   9.244  0.1418  0.0647 -0.2286
   85SAPS   H7X 8110   2.015   1.191   9.241  0.9467  0.1846  0.7288
   85SAPS   H7Y 8111   2.094   1.346   9.247  0.7247 -1.1548 -0.4085
   85SAPS   C38 8112   1.938   1.355   9.108  0.1417 -0.0061  0.2244
   85SAPS   H8X 8113   2.022   1.377   9.039  1.2783 -0.1442  1.5275
   85SAPS   H8Y 8114   1.899   1.454   9.139 -0.9524 -0.9167  1.8951
   85SAPS   C39 8115   1.839   1.256   9.047 -0.3227  0.5575  0.2535
   85SAPS   H9X 8116   1.751   1.257   9.114 -2.0450 -0.2548 -1.8822
   85SAPS   H9Y 8117   1.889   1.157   9.050  0.7589  1.0962  0.7213
   85SAPS  C310 8118   1.805   1.303   8.898 -0.2467  0.0626  0.2860
   85SAPS  H10X 8119   1.730   1.231   8.862 -0.9488  0.3528  1.1266
   85SAPS  H10Y 8120   1.905   1.279   8.856 -1.1139 -3.1400 -0.2129
   85SAPS  C311 8121   1.764   1.446   8.872  0.1498 -0.2708  0.5370
   85SAPS  H11X 8122   1.840   1.518   8.909 -2.1826  1.0337  3.0864
   85SAPS  H11Y 8123   1.669   1.468   8.925  1.0802 -0.3784  2.2945
   85SAPS  C312 8124   1.755   1.477   8.716  0.5058  0.7399  0.5713
   85SAPS  H12X 8125   1.688   1.395   8.681  0.6103  0.1759  1.6545
   85SAPS  H12Y 8126   1.849   1.453   8.663 -0.7980 -0.7980 -1.1877
   85SAPS  C313 8127   1.692   1.616   8.695  0.2311 -0.4101 -0.0861
   85SAPS  H13X 8128   1.768   1.695   8.713 -0.5864  0.1589  1.0244
   85SAPS  H13Y 8129   1.608   1.636   8.766  1.1360 -0.4738  1.0410
   85SAPS  C314 8130   1.620   1.654   8.561  0.5367  0.5382 -0.8067
   85SAPS  H14X 8131   1.572   1.754   8.575  1.7974  0.8114  2.0883
   85SAPS  H14Y 8132   1.544   1.574   8.553  0.1503  0.4600  2.4235
   85SAPS  C315 8133   1.729   1.671   8.452  0.4844  0.8253 -0.0800
   85SAPS  H15X 8134   1.785   1.576   8.446  1.5388  1.5252 -2.1338
   85SAPS  H15Y 8135   1.792   1.757   8.484  0.8791  0.3706  0.3710
   85SAPS  C316 8136   1.669   1.702   8.310 -0.3229  0.0300  0.3058
   85SAPS  H16X 8137   1.588   1.777   8.324 -0.5926 -0.1987 -0.0077
   85SAPS  H16Y 8138   1.620   1.611   8.267 -2.5175  0.6863  1.2404
   85SAPS  C317 8139   1.775   1.758   8.211  0.3203  0.4647  0.4595
   85SAPS  H17X 8140   1.866   1.696   8.222 -0.8348 -1.5818 -0.8550
   85SAPS  H17Y 8141   1.806   1.861   8.237  1.7650  0.2388 -0.2661
   85SAPS  C318 8142   1.709   1.760   8.073  0.1796  0.5682  0.0456
   85SAPS  H18X 8143   1.670   1.662   8.039 -0.0308  1.3481 -2.1442
   85SAPS  H18Y 8144   1.775   1.807   7.997 -0.3480 -0.3922 -1.0275
   85SAPS  H18Z 8145   1.621   1.826   8.088  0.5709  1.4969 -1.4267
   86SAPS     N 8146   5.448   0.811  10.796 -0.2221  0.5251  0.3068
   86SAPS   HN1 8147   5.466   0.905  10.837 -2.1797  0.9141  0.3802
   86SAPS   HN2 8148   5.529   0.747  10.787 -0.2528  0.6494 -1.0997
   86SAPS   HN3 8149   5.421   0.837  10.699  0.8804  2.8103  0.5541
   86SAPS   C12 8150   5.332   0.729  10.854  0.4988  0.0359 -0.0974
   86SAPS  H12A 8151   5.363   0.702  10.954  3.6946 -0.1232 -1.0118
   86SAPS   C13 8152   5.188   0.805  10.861  0.0753  0.1272  0.7785
   86SAPS  O13A 8153   5.186   0.927  10.812 -0.0991 -0.4638 -0.2760
   86SAPS  O13B 8154   5.088   0.746  10.886  0.0696  1.0407  0.0654
   86SAPS   C11 8155   5.320   0.601  10.758  0.4512 -0.7648  0.1678
   86SAPS  H11A 8156   5.308   0.640  10.655  0.0559  0.2365  0.5799
   86SAPS  H11B 8157   5.230   0.541  10.783 -0.7271  0.9119  0.0806
   86SAPS     P 8158   5.559   0.506  10.678  0.3102 -0.3399  0.1275
   86SAPS   O13 8159   5.630   0.632  10.709  0.2135 -1.1706  0.8500
   86SAPS   O14 8160   5.634   0.380  10.710 -0.0398 -0.7212 -0.1444
   86SAPS   O12 8161   5.426   0.505  10.772 -0.7308 -0.4591  0.4672
   86SAPS   O11 8162   5.502   0.503  10.534  0.7103 -0.2294 -0.0374
   86SAPS    C1 8163   5.426   0.387  10.494 -0.0550 -0.3282 -0.1271
   86SAPS    HA 8164   5.430   0.301  10.565 -2.8719  0.2731  0.8910
   86SAPS    HB 8165   5.318   0.404  10.475 -0.5032 -1.2701  1.3502
   86SAPS    C2 8166   5.483   0.326  10.366 -0.0070 -0.2313  0.1232
   86SAPS    HS 8167   5.583   0.285  10.393  1.3577  0.9342 -2.7552
   86SAPS   O21 8168   5.496   0.429  10.259  0.3132 -0.3277  0.0316
   86SAPS   C21 8169   5.592   0.408  10.179  0.2086 -0.3251 -0.0260
   86SAPS   O22 8170   5.669   0.313  10.180  0.0155  0.2517  0.5852
   86SAPS   C22 8171   5.591   0.508  10.065  0.2032 -0.1627 -0.0423
   86SAPS   H2R 8172   5.497   0.499  10.005  0.3777 -0.9719 -0.2089
   86SAPS   H2S 8173   5.589   0.604  10.119  2.2757 -0.7647  1.2157
   86SAPS    C3 8174   5.409   0.195  10.314  0.3005 -0.3945  0.6900
   86SAPS    HX 8175   5.410   0.123  10.398 -0.6506 -1.1127  0.1026
   86SAPS    HY 8176   5.469   0.153  10.230  1.1485 -1.9208  1.9979
   86SAPS   O31 8177   5.276   0.219  10.270  0.0517 -0.6206 -0.7006
   86SAPS   C31 8178   5.202   0.108  10.243  0.5667  0.0139 -0.4930
   86SAPS   O32 8179   5.243  -0.006  10.240  0.2579 -0.6134  0.0573
   86SAPS   C32 8180   5.058   0.144  10.214  0.1497  0.5276  0.1851
   86SAPS   H2X 8181   5.055   0.243  10.263  2.1127  0.5811  0.2843
   86SAPS   H2Y 8182   4.989   0.073  10.263  1.4019  0.1346  1.4347
   86SAPS   C23 8183   5.717   0.503   9.972  0.2285 -0.6237  0.7041
   86SAPS   H3R 8184   5.813   0.488  10.028  1.0954  0.9458 -0.2862
   86SAPS   H3S 8185   5.728   0.607   9.936 -2.5084  0.1102  1.7279
   86SAPS   C24 8186   5.691   0.399   9.869 -0.1136 -0.2206  0.2499
   86SAPS   H4R 8187   5.610   0.444   9.808 -0.7700 -3.0908 -1.1648
   86SAPS   H4S 8188   5.652   0.304   9.911 -0.6423  0.4679  1.3572
   86SAPS   C25 8189   5.814   0.388   9.772  0.6266  0.0339 -0.5024
   86SAPS   H5R 8190   5.914   0.388   9.816  0.9404  2.0628 -1.0810
   86SAPS   C26 8191   5.808   0.390   9.639  0.1400  0.5228 -0.3373
   86SAPS   H6R 8192   5.899   0.381   9.578  1.2235  2.9405  0.8340
   86SAPS   C27 8193   5.681   0.399   9.552 -0.5658  0.4766 -0.5688
   86SAPS   H7R 8194   5.631   0.494   9.581  1.2470  0.5478  2.8183
   86SAPS   H7S 8195   5.613   0.312   9.566  0.8682 -0.5858  0.0012
   86SAPS   C28 8196   5.703   0.417   9.408  0.6025  1.0044 -0.0149
   86SAPS   H8R 8197   5.659   0.510   9.369 -0.2193  1.3181  1.5514
   86SAPS   C29 8198   5.762   0.323   9.329 -0.3322 -0.7522 -0.0660
   86SAPS   H9R 8199   5.782   0.348   9.224  1.2237 -1.8501 -0.0490
   86SAPS  C210 8200   5.812   0.198   9.381  0.0849  0.2955  0.2476
   86SAPS  H10R 8201   5.756   0.114   9.334  2.2824  0.1916 -2.4628
   86SAPS  H10S 8202   5.790   0.183   9.488 -0.1484 -0.2515  0.1263
   86SAPS  C211 8203   5.955   0.175   9.371  0.1551  0.4407  0.1300
   86SAPS  H11R 8204   6.009   0.182   9.467  1.8889  0.7936 -0.8230
   86SAPS  C212 8205   6.024   0.160   9.255 -0.5134 -0.1919  0.3640
   86SAPS  H12R 8206   6.126   0.121   9.267 -0.1730 -0.2709 -2.3322
   86SAPS  C213 8207   5.983   0.171   9.109 -0.3667  0.0066  0.6821
   86SAPS  H13R 8208   6.074   0.198   9.051 -0.0866  2.2255  2.0150
   86SAPS  H13S 8209   5.919   0.259   9.087 -0.7245 -0.5220 -0.4418
   86SAPS  C214 8210   5.900   0.060   9.054 -0.4794  0.8224  0.2095
   86SAPS  H14R 8211   5.864  -0.010   9.131 -1.5292  2.2383  1.0447
   86SAPS  C215 8212   5.886   0.020   8.926 -0.0465 -0.2644  0.2813
   86SAPS  H15R 8213   5.827  -0.071   8.910 -0.5580 -0.2133  1.7818
   86SAPS  C216 8214   5.944   0.075   8.797  0.0313 -0.6443  0.0373
   86SAPS  H16R 8215   5.997  -0.007   8.742  2.6163  0.8051  0.2113
   86SAPS  H16S 8216   6.010   0.160   8.824 -1.8816  0.7617  0.5000
   86SAPS  C217 8217   5.830   0.140   8.713 -0.4163  0.1956  0.8684
   86SAPS  H17R 8218   5.803   0.240   8.751  0.6321  1.1867 -0.8794
   86SAPS  H17S 8219   5.737   0.081   8.732  0.6266 -1.1485  2.0882
   86SAPS  C218 8220   5.859   0.148   8.559 -0.3819 -0.1110 -0.1214
   86SAPS  H18R 8221   5.905   0.053   8.524  0.7178  0.6122 -0.6622
   86SAPS  H18S 8222   5.934   0.229   8.557 -0.6756  0.2138  1.1237
   86SAPS  C219 8223   5.735   0.170   8.475 -0.0173  0.6803 -0.1831
   86SAPS  H19R 8224   5.638   0.183   8.528 -0.8973  0.3410 -1.6402
   86SAPS  H19S 8225   5.724   0.069   8.429 -0.2179  0.9791 -0.7974
   86SAPS  C220 8226   5.747   0.272   8.363 -0.1556 -0.1526  0.1100
   86SAPS  H20R 8227   5.745   0.373   8.408 -0.9118 -0.8279  1.6559
   86SAPS  H20S 8228   5.673   0.262   8.281 -0.5183 -1.0395  0.5359
   86SAPS  H20T 8229   5.852   0.257   8.328 -0.0235  0.3981  0.2558
   86SAPS   C33 8230   5.034   0.165  10.067 -0.2101 -0.3643  0.4201
   86SAPS   H3X 8231   5.124   0.218  10.030 -0.3028  0.1345  0.9085
   86SAPS   H3Y 8232   4.946   0.232  10.062  0.2867  0.6676  3.4251
   86SAPS   C34 8233   5.006   0.040   9.982  0.3395  0.5861  0.0352
   86SAPS   H4X 8234   5.075  -0.044  10.005  1.7329  1.7180  0.0696
   86SAPS   H4Y 8235   5.014   0.073   9.877 -0.7740 -1.8989 -0.9224
   86SAPS   C35 8236   4.861  -0.015  10.010 -0.7988  0.2643 -1.1644
   86SAPS   H5X 8237   4.781   0.049   9.967 -0.9253  0.5971 -0.4423
   86SAPS   H5Y 8238   4.854  -0.010  10.121 -0.1086  1.9327 -1.1543
   86SAPS   C36 8239   4.840  -0.161   9.967  0.5397  0.4732  0.0995
   86SAPS   H6X 8240   4.740  -0.195  10.003  0.8702 -0.1623  0.4279
   86SAPS   H6Y 8241   4.905  -0.238  10.013 -2.5715 -2.6006 -0.2023
   86SAPS   C37 8242   4.835  -0.184   9.814 -0.1870  0.3794 -0.4600
   86SAPS   H7X 8243   4.940  -0.182   9.777  0.4797 -3.7172  0.6125
   86SAPS   H7Y 8244   4.786  -0.088   9.787  0.5739  1.0786  0.5636
   86SAPS   C38 8245   4.759  -0.314   9.758  0.1476  0.9242 -0.9467
   86SAPS   H8X 8246   4.652  -0.307   9.784  0.3151 -1.7947  0.9187
   86SAPS   H8Y 8247   4.796  -0.402   9.815  1.1702  1.4293 -0.8104
   86SAPS   C39 8248   4.778  -0.343   9.612 -0.7465 -0.1338  0.5305
   86SAPS   H9X 8249   4.759  -0.452   9.597 -1.6298  0.1657 -0.6877
   86SAPS   H9Y 8250   4.877  -0.314   9.571 -0.9932  1.0053  0.7173
   86SAPS  C310 8251   4.665  -0.273   9.537  0.0473  0.4925 -0.3145
   86SAPS  H10X 8252   4.677  -0.163   9.545 -2.4099  0.7760  0.1821
   86SAPS  H10Y 8253   4.564  -0.292   9.579 -0.0908  1.7327 -0.0426
   86SAPS  C311 8254   4.677  -0.310   9.387  0.4965 -0.0533  0.5393
   86SAPS  H11X 8255   4.671  -0.418   9.362 -1.1469  0.2452 -0.4675
   86SAPS  H11Y 8256   4.777  -0.277   9.350  0.9328 -3.0214 -1.2591
   86SAPS  C312 8257   4.557  -0.243   9.310 -0.2083  0.7075 -0.5147
   86SAPS  H12X 8258   4.570  -0.134   9.325 -0.2122  0.5713  0.6206
   86SAPS  H12Y 8259   4.466  -0.275   9.365 -0.0667  1.9273  0.4827
   86SAPS  C313 8260   4.551  -0.294   9.166 -0.3574 -0.1163 -0.3500
   86SAPS  H13X 8261   4.587  -0.399   9.162  0.8881  0.3146 -3.4918
   86SAPS  H13Y 8262   4.637  -0.251   9.110  0.6594 -0.5299  0.8323
   86SAPS  C314 8263   4.411  -0.277   9.106 -0.4893  0.0334 -0.0024
   86SAPS  H14X 8264   4.368  -0.196   9.169 -0.0560  1.2919 -1.2804
   86SAPS  H14Y 8265   4.355  -0.372   9.119  1.3552 -1.0653  0.1698
   86SAPS  C315 8266   4.419  -0.235   8.956 -0.2027  0.4386 -0.0038
   86SAPS  H15X 8267   4.446  -0.128   8.965 -0.6181  0.6057 -0.6876
   86SAPS  H15Y 8268   4.317  -0.224   8.913  0.0897 -1.4481 -1.3498
   86SAPS  C316 8269   4.507  -0.324   8.867  0.6277 -0.1724 -0.0503
   86SAPS  H16X 8270   4.463  -0.425   8.854  1.5143 -0.5172 -0.4060
   86SAPS  H16Y 8271   4.605  -0.343   8.916  0.7301 -3.7508 -1.3223
   86SAPS  C317 8272   4.548  -0.252   8.733  0.5299 -0.1860 -0.5706
   86SAPS  H17X 8273   4.461  -0.223   8.670 -1.0297  0.7414  1.8872
   86SAPS  H17Y 8274   4.611  -0.318   8.670  1.0337  0.7595 -1.0813
   86SAPS  C318 8275   4.634  -0.132   8.760  0.2314  0.0367  0.2989
   86SAPS  H18X 8276   4.719  -0.153   8.828 -0.9546  1.5979  2.3640
   86SAPS  H18Y 8277   4.572  -0.054   8.808 -0.8862 -0.8268  0.2899
   86SAPS  H18Z 8278   4.679  -0.085   8.669  0.7173  0.2277  0.6335
   87SAPS     N 8279   5.911   2.592  10.970 -0.1125 -0.3366 -0.0806
   87SAPS   HN1 8280   5.933   2.688  11.005 -0.3924  0.2250 -1.3734
   87SAPS   HN2 8281   5.860   2.538  11.042 -2.1568  2.7935  0.9939
   87SAPS   HN3 8282   5.999   2.538  10.954  0.3108 -0.0869  1.3178
   87SAPS   C12 8283   5.831   2.603  10.846 -0.3851  0.2100 -0.3017
   87SAPS  H12A 8284   5.889   2.570  10.761  0.1004  2.1135 -0.7730
   87SAPS   C13 8285   5.702   2.527  10.853  0.1891 -0.1399 -0.6173
   87SAPS  O13A 8286   5.676   2.463  10.960  0.4269 -0.0783  0.2577
   87SAPS  O13B 8287   5.625   2.524  10.755  0.3882 -0.1764  0.3566
   87SAPS   C11 8288   5.787   2.752  10.825 -0.0842 -0.1747  0.9048
   87SAPS  H11A 8289   5.735   2.789  10.915  1.1901  2.9738  0.4842
   87SAPS  H11B 8290   5.721   2.767  10.737 -1.7380  0.8733  2.2784
   87SAPS     P 8291   5.902   2.968  10.742  0.3407  0.1550  0.3729
   87SAPS   O13 8292   5.795   3.052  10.798 -0.1420  0.1986 -0.4516
   87SAPS   O14 8293   6.038   3.018  10.747 -0.3594 -0.4012 -0.3485
   87SAPS   O12 8294   5.911   2.826  10.816 -0.1920 -0.2957 -0.0858
   87SAPS   O11 8295   5.865   2.936  10.590  0.2233  0.5417  0.1719
   87SAPS    C1 8296   5.967   2.870  10.508  0.3953  0.9853 -0.0417
   87SAPS    HA 8297   6.020   2.942  10.442  1.1822 -0.4853 -1.0701
   87SAPS    HB 8298   6.047   2.829  10.573 -0.3404  2.1721  1.7245
   87SAPS    C2 8299   5.904   2.785  10.395 -0.1018 -0.3286  0.1255
   87SAPS    HS 8300   5.984   2.761  10.321 -0.0447 -0.3619  0.1988
   87SAPS   O21 8301   5.791   2.850  10.330 -0.5209  0.0507  0.3316
   87SAPS   C21 8302   5.818   2.938  10.232 -1.0964 -0.4201  0.2634
   87SAPS   O22 8303   5.934   2.963  10.192  0.4703 -0.1081  0.4450
   87SAPS   C22 8304   5.691   3.000  10.178  0.8592  0.0068  0.5038
   87SAPS   H2R 8305   5.639   2.923  10.117  0.1487 -0.1856  1.3312
   87SAPS   H2S 8306   5.628   3.013  10.268  0.6825  2.6907  0.0530
   87SAPS    C3 8307   5.859   2.654  10.468  0.2566 -0.0671  0.3708
   87SAPS    HX 8308   5.776   2.669  10.540 -0.1871  0.5577 -0.2538
   87SAPS    HY 8309   5.952   2.615  10.515  1.0873  1.5995  0.1941
   87SAPS   O31 8310   5.821   2.550  10.375  0.4220  0.0142  0.0078
   87SAPS   C31 8311   5.697   2.561  10.329 -0.1714  0.4778  0.3325
   87SAPS   O32 8312   5.619   2.643  10.360 -0.2443 -0.9855 -0.4532
   87SAPS   C32 8313   5.658   2.457  10.222 -0.3739  0.1759  0.0347
   87SAPS   H2X 8314   5.547   2.455  10.220 -0.4276 -1.9405  1.7192
   87SAPS   H2Y 8315   5.696   2.363  10.267  3.2420  1.5255  0.1073
   87SAPS   C23 8316   5.695   3.130  10.093  0.0201  0.0378  0.5274
   87SAPS   H3R 8317   5.719   3.107   9.987 -2.0476 -0.2523  0.0640
   87SAPS   H3S 8318   5.768   3.197  10.143  1.9316  0.2866 -2.3820
   87SAPS   C24 8319   5.549   3.190  10.105 -0.2935 -0.0367  0.4040
   87SAPS   H4R 8320   5.554   3.275  10.033 -0.0312  0.8638  1.4409
   87SAPS   H4S 8321   5.522   3.232  10.205 -0.1411  1.4489 -0.1442
   87SAPS   C25 8322   5.445   3.089  10.057  0.1239  0.5328 -0.0387
   87SAPS   H5R 8323   5.429   3.005  10.126 -2.3625 -0.0811 -1.2283
   87SAPS   C26 8324   5.379   3.077   9.936 -0.5214 -0.1681  0.3793
   87SAPS   H6R 8325   5.300   3.003   9.921 -1.8664  1.6431 -2.1560
   87SAPS   C27 8326   5.403   3.152   9.812  0.4611  0.0368  0.5928
   87SAPS   H7R 8327   5.495   3.214   9.814 -0.4164  1.3583  1.6855
   87SAPS   H7S 8328   5.318   3.222   9.795 -0.7117 -1.9968 -3.2913
   87SAPS   C28 8329   5.406   3.057   9.690 -0.8265  0.1277 -0.0447
   87SAPS   H8R 8330   5.456   2.960   9.701 -2.4725 -1.1827 -3.0955
   87SAPS   C29 8331   5.355   3.076   9.567 -0.0613 -0.3570  0.1488
   87SAPS   H9R 8332   5.363   2.994   9.493 -0.6270  0.3990 -0.7822
   87SAPS  C210 8333   5.276   3.199   9.521  0.0616 -0.2961 -0.4626
   87SAPS  H10R 8334   5.292   3.205   9.411 -1.1881 -1.5877 -0.7411
   87SAPS  H10S 8335   5.319   3.299   9.545  1.1474 -0.4015 -1.8157
   87SAPS  C211 8336   5.127   3.199   9.546  0.4184 -0.4366 -0.2262
   87SAPS  H11R 8337   5.099   3.241   9.644  0.4338 -1.6106  0.2936
   87SAPS  C212 8338   5.025   3.177   9.463 -0.7570 -0.1116  0.7059
   87SAPS  H12R 8339   4.923   3.203   9.493 -1.2118 -1.1208  0.1021
   87SAPS  C213 8340   5.037   3.129   9.319 -0.1573  0.8457 -0.2115
   87SAPS  H13R 8341   5.017   3.020   9.319  0.4083  0.7390  0.4834
   87SAPS  H13S 8342   5.143   3.125   9.288 -0.4940  0.8485 -1.4332
   87SAPS  C214 8343   4.955   3.212   9.229  0.7566 -0.1447  0.0848
   87SAPS  H14R 8344   4.849   3.215   9.260  0.6212 -0.8508 -0.2854
   87SAPS  C215 8345   4.988   3.279   9.118 -0.7425 -0.8247 -0.1538
   87SAPS  H15R 8346   4.904   3.335   9.075 -1.0819 -0.1938  1.2555
   87SAPS  C216 8347   5.130   3.284   9.058  0.2205  0.7527  0.0842
   87SAPS  H16R 8348   5.164   3.180   9.044  0.3842  0.5793  1.6695
   87SAPS  H16S 8349   5.196   3.326   9.136 -0.4130  1.5640  0.1980
   87SAPS  C217 8350   5.137   3.363   8.930 -0.8394  0.4657 -0.7216
   87SAPS  H17R 8351   5.080   3.312   8.850  0.6072 -0.2149 -1.3387
   87SAPS  H17S 8352   5.246   3.354   8.911 -0.2794 -1.9731  2.7163
   87SAPS  C218 8353   5.107   3.510   8.947  0.1573 -0.4774  0.0326
   87SAPS  H18R 8354   5.157   3.546   9.039  2.5935 -0.1842 -1.3140
   87SAPS  H18S 8355   4.997   3.519   8.959  0.1442 -2.6567  2.2779
   87SAPS  C219 8356   5.148   3.610   8.830 -0.3478  0.6676 -0.0971
   87SAPS  H19R 8357   5.113   3.712   8.856 -1.5121 -0.4381  3.1136
   87SAPS  H19S 8358   5.115   3.585   8.727 -1.8846 -3.2143  1.1422
   87SAPS  C220 8359   5.301   3.633   8.844 -0.2959  0.5245  0.0953
   87SAPS  H20R 8360   5.319   3.722   8.780  0.0999  1.2008  1.1169
   87SAPS  H20S 8361   5.355   3.545   8.803  0.6192  1.6514 -1.2516
   87SAPS  H20T 8362   5.335   3.654   8.947  0.7856 -1.1493  0.1192
   87SAPS   C33 8363   5.713   2.494  10.084  0.2056  0.0256 -0.4397
   87SAPS   H3X 8364   5.694   2.420  10.004  2.5596 -1.3944  0.2106
   87SAPS   H3Y 8365   5.823   2.496  10.099  0.2800  1.3588 -1.0440
   87SAPS   C34 8366   5.656   2.626  10.021  0.1836 -0.3088 -0.1572
   87SAPS   H4X 8367   5.664   2.716  10.086  2.3291  1.9217 -3.1565
   87SAPS   H4Y 8368   5.547   2.621  10.001  0.1808  1.0145 -0.5523
   87SAPS   C35 8369   5.728   2.668   9.890 -0.2892 -0.5403  0.1849
   87SAPS   H5X 8370   5.672   2.613   9.812 -2.4528  0.6405  0.8122
   87SAPS   H5Y 8371   5.835   2.640   9.891 -0.3798 -0.9014 -0.0304
   87SAPS   C36 8372   5.714   2.823   9.861 -0.0312  0.4653  1.3330
   87SAPS   H6X 8373   5.793   2.887   9.906  0.3542  0.2423  0.9780
   87SAPS   H6Y 8374   5.613   2.847   9.899 -0.8987  2.0800 -1.6827
   87SAPS   C37 8375   5.723   2.864   9.712  0.3921 -0.1581  0.4145
   87SAPS   H7X 8376   5.826   2.837   9.682  0.1207  1.1206 -1.8074
   87SAPS   H7Y 8377   5.708   2.973   9.701 -1.2879 -0.2622  1.2748
   87SAPS   C38 8378   5.623   2.776   9.623 -0.3193 -0.8762 -0.2987
   87SAPS   H8X 8379   5.524   2.787   9.670  0.3784 -0.9011  1.2292
   87SAPS   H8Y 8380   5.641   2.667   9.628 -0.2608 -0.8284  0.6490
   87SAPS   C39 8381   5.621   2.825   9.483  0.5937 -0.1841  0.3600
   87SAPS   H9X 8382   5.576   2.926   9.472  0.5085 -0.4165 -1.9281
   87SAPS   H9Y 8383   5.548   2.761   9.430  1.7687  0.1951 -1.8299
   87SAPS  C310 8384   5.747   2.811   9.401  0.1595 -0.5284  0.2673
   87SAPS  H10X 8385   5.824   2.860   9.464 -1.8432  1.0942  1.5910
   87SAPS  H10Y 8386   5.740   2.868   9.306  0.3924 -1.4373 -0.3042
   87SAPS  C311 8387   5.797   2.663   9.384  0.2376 -0.3887 -0.6132
   87SAPS  H11X 8388   5.781   2.610   9.480 -0.9767 -1.3392 -1.3180
   87SAPS  H11Y 8389   5.904   2.663   9.353  0.1470 -0.2002 -0.9365
   87SAPS  C312 8390   5.723   2.584   9.276 -0.3391 -0.0579 -0.3336
   87SAPS  H12X 8391   5.771   2.610   9.179  0.6643  0.2845  0.2334
   87SAPS  H12Y 8392   5.617   2.616   9.268 -0.7456 -1.7366 -2.2778
   87SAPS  C313 8393   5.724   2.435   9.316  0.4266 -0.0766  0.1329
   87SAPS  H13X 8394   5.716   2.426   9.426 -0.7457 -1.1482 -0.0209
   87SAPS  H13Y 8395   5.821   2.393   9.282 -0.3567 -0.0811 -2.2899
   87SAPS  C314 8396   5.605   2.350   9.260 -0.2778  0.0259  0.8200
   87SAPS  H14X 8397   5.507   2.400   9.273 -2.3048 -3.3628 -0.4211
   87SAPS  H14Y 8398   5.601   2.260   9.325 -0.0300  0.6263  1.6847
   87SAPS  C315 8399   5.636   2.324   9.110  0.0786  0.2916  0.9430
   87SAPS  H15X 8400   5.741   2.288   9.101  0.8398  2.6343 -0.5892
   87SAPS  H15Y 8401   5.635   2.425   9.064  0.4766 -1.3321 -3.0200
   87SAPS  C316 8402   5.532   2.253   9.028 -0.3404  0.2179  0.3405
   87SAPS  H16X 8403   5.521   2.150   9.069 -1.1652  0.1202 -0.1024
   87SAPS  H16Y 8404   5.572   2.253   8.925 -0.1335  0.1172  0.4208
   87SAPS  C317 8405   5.395   2.327   9.026  0.5009 -0.1839 -0.3224
   87SAPS  H17X 8406   5.387   2.431   8.987 -3.4477 -0.5429 -0.8892
   87SAPS  H17Y 8407   5.335   2.319   9.119  0.1421 -0.1881 -0.5506
   87SAPS  C318 8408   5.313   2.251   8.921 -0.2890 -0.2366 -0.8446
   87SAPS  H18X 8409   5.213   2.300   8.922 -1.2318 -2.0349  1.2544
   87SAPS  H18Y 8410   5.310   2.144   8.951  1.7918 -0.2822 -0.6256
   87SAPS  H18Z 8411   5.362   2.254   8.822  0.8178  0.6143 -0.3019
   88SAPS     N 8412   6.660   5.437  11.213 -0.6372  0.4028  0.2140
   88SAPS   HN1 8413   6.610   5.443  11.122 -1.2297 -4.1128  0.0173
   88SAPS   HN2 8414   6.735   5.366  11.198  0.1500  1.2701 -0.0392
   88SAPS   HN3 8415   6.597   5.403  11.289 -1.2298  2.0922  0.5301
   88SAPS   C12 8416   6.722   5.562  11.249 -0.1598  0.1511 -0.1754
   88SAPS  H12A 8417   6.642   5.635  11.254  1.7422  2.3515  0.1044
   88SAPS   C13 8418   6.810   5.565  11.380 -0.0261  0.2834  0.0614
   88SAPS  O13A 8419   6.830   5.462  11.448  0.2973 -0.3700  0.0257
   88SAPS  O13B 8420   6.851   5.681  11.418  0.4957 -0.2477  0.5981
   88SAPS   C11 8421   6.813   5.598  11.138 -0.0204 -0.0425  0.5858
   88SAPS  H11A 8422   6.900   5.530  11.130 -0.2722 -0.4394  1.1538
   88SAPS  H11B 8423   6.864   5.693  11.164 -0.1829 -0.1100  1.1631
   88SAPS     P 8424   6.830   5.665  10.878 -0.4857  0.1655 -0.0502
   88SAPS   O13 8425   6.728   5.708  10.779  0.6800  0.1040 -0.3060
   88SAPS   O14 8426   6.932   5.761  10.928 -0.2022  0.0378  0.3195
   88SAPS   O12 8427   6.754   5.629  11.010  0.2644 -0.2645 -0.1933
   88SAPS   O11 8428   6.898   5.525  10.842 -0.3632 -0.2777 -0.3227
   88SAPS    C1 8429   6.834   5.424  10.765  0.2256  0.0730  0.2488
   88SAPS    HA 8430   6.830   5.329  10.821 -0.8616 -0.1231 -0.1395
   88SAPS    HB 8431   6.724   5.441  10.760  0.0445 -1.2012 -0.4713
   88SAPS    C2 8432   6.901   5.405  10.634  0.2885 -1.5506  0.1184
   88SAPS    HS 8433   6.940   5.501  10.594 -2.0977 -0.5397  0.1017
   88SAPS   O21 8434   6.800   5.362  10.537  0.1728  0.3734  0.1724
   88SAPS   C21 8435   6.718   5.459  10.494  0.4132  0.5006 -0.3509
   88SAPS   O22 8436   6.714   5.567  10.548  0.1007 -0.0225 -0.0879
   88SAPS   C22 8437   6.632   5.406  10.378  0.0360 -0.6420  0.1843
   88SAPS   H2R 8438   6.581   5.314  10.414  0.0033 -0.6911  0.0147
   88SAPS   H2S 8439   6.558   5.485  10.358 -0.3860 -0.5710  1.9062
   88SAPS    C3 8440   7.017   5.308  10.631  0.4345  0.5707 -0.4211
   88SAPS    HX 8441   6.979   5.213  10.676 -0.8688  1.1860 -0.1722
   88SAPS    HY 8442   7.095   5.343  10.702  0.2870  1.1497 -0.5428
   88SAPS   O31 8443   7.075   5.275  10.502 -0.2757 -0.9616 -0.1628
   88SAPS   C31 8444   7.147   5.366  10.443 -0.1461  0.3528 -0.1456
   88SAPS   O32 8445   7.177   5.479  10.485  0.2178 -0.0828 -0.4961
   88SAPS   C32 8446   7.181   5.315  10.302  0.1385  0.1136  0.2507
   88SAPS   H2X 8447   7.101   5.328  10.226  0.0574 -2.0635 -0.0929
   88SAPS   H2Y 8448   7.196   5.206  10.288 -0.6758  0.3495 -3.4079
   88SAPS   C23 8449   6.721   5.388  10.252  0.5218 -0.2483 -0.0778
   88SAPS   H3R 8450   6.661   5.356  10.165 -1.3595 -0.4185  1.2231
   88SAPS   H3S 8451   6.800   5.313  10.272  1.5020  1.0092  1.0093
   88SAPS   C24 8452   6.794   5.521  10.212  0.2826  0.0804  0.5389
   88SAPS   H4R 8453   6.866   5.478  10.138  0.0810 -2.4364  1.6987
   88SAPS   H4S 8454   6.852   5.577  10.288  0.5336  1.2953 -0.5122
   88SAPS   C25 8455   6.692   5.624  10.169  0.3804 -0.1828 -0.5256
   88SAPS   H5R 8456   6.645   5.674  10.255 -0.1432  2.9453 -2.4707
   88SAPS   C26 8457   6.656   5.673  10.048 -0.2951  0.1124 -0.2239
   88SAPS   H6R 8458   6.583   5.754  10.037  0.5652  0.6522 -2.7928
   88SAPS   C27 8459   6.699   5.629   9.909 -0.8704 -0.0894  0.9074
   88SAPS   H7R 8460   6.810   5.616   9.908 -0.7123  1.0873 -0.3743
   88SAPS   H7S 8461   6.677   5.710   9.836 -1.3582 -0.2353  0.8915
   88SAPS   C28 8462   6.643   5.495   9.869  0.2037  0.6781 -0.5354
   88SAPS   H8R 8463   6.584   5.446   9.948 -0.2676  2.7023  0.4655
   88SAPS   C29 8464   6.655   5.447   9.744  0.7075  0.1769  0.5578
   88SAPS   H9R 8465   6.600   5.353   9.729 -1.4401  0.8117  3.5040
   88SAPS  C210 8466   6.708   5.513   9.616 -1.0020 -0.3840 -0.5577
   88SAPS  H10R 8467   6.795   5.454   9.582 -1.6975 -0.1541 -2.9222
   88SAPS  H10S 8468   6.753   5.607   9.653  0.7644 -1.6873  0.7937
   88SAPS  C211 8469   6.601   5.535   9.512  0.6943 -0.7986  0.5207
   88SAPS  H11R 8470   6.497   5.545   9.545 -0.3752 -2.7356 -1.9060
   88SAPS  C212 8471   6.633   5.535   9.379 -0.0200 -0.5532 -0.9687
   88SAPS  H12R 8472   6.555   5.558   9.305 -1.1222 -0.3197  0.2190
   88SAPS  C213 8473   6.770   5.520   9.321  0.2326  0.8753  0.1270
   88SAPS  H13R 8474   6.825   5.441   9.377  1.6491  1.7416 -0.0044
   88SAPS  H13S 8475   6.817   5.619   9.340  1.9836 -0.0349  0.8363
   88SAPS  C214 8476   6.777   5.471   9.175  0.2812 -0.1209 -0.2303
   88SAPS  H14R 8477   6.747   5.366   9.163  0.1017 -0.1218  0.1835
   88SAPS  C215 8478   6.809   5.541   9.068  0.4551 -0.0297  0.3388
   88SAPS  H15R 8479   6.794   5.494   8.970 -3.7024  0.5407  0.4929
   88SAPS  C216 8480   6.850   5.686   9.080  0.2525  0.5771 -0.6064
   88SAPS  H16R 8481   6.807   5.727   9.175 -1.5403  0.5503 -1.3668
   88SAPS  H16S 8482   6.801   5.742   8.998  2.2708 -0.2343 -2.4708
   88SAPS  C217 8483   7.000   5.711   9.092  0.5968 -0.7326 -0.5247
   88SAPS  H17R 8484   7.039   5.678   8.993 -1.4147 -0.2274 -1.5406
   88SAPS  H17S 8485   7.032   5.649   9.178  1.2179  2.2386  1.5142
   88SAPS  C218 8486   7.031   5.861   9.115  0.1005  0.3263  0.1783
   88SAPS  H18R 8487   6.996   5.890   9.216 -0.3587  2.5057 -0.5555
   88SAPS  H18S 8488   6.967   5.916   9.044  0.1494  0.3101  0.1220
   88SAPS  C219 8489   7.174   5.902   9.084  0.6428  0.2650 -0.1564
   88SAPS  H19R 8490   7.195   6.008   9.110 -0.2137  0.6031 -0.7991
   88SAPS  H19S 8491   7.182   5.897   8.973  2.3153  3.0971 -0.2567
   88SAPS  C220 8492   7.278   5.813   9.155 -0.2491  0.1284 -0.7657
   88SAPS  H20R 8493   7.287   5.709   9.116 -1.0624 -0.8531  1.5252
   88SAPS  H20S 8494   7.250   5.804   9.262 -2.4332  1.0762 -1.2109
   88SAPS  H20T 8495   7.384   5.846   9.147 -0.0351  0.0527  1.3604
   88SAPS   C33 8496   7.305   5.404  10.257  0.3535  0.2066 -0.2480
   88SAPS   H3X 8497   7.383   5.397  10.336 -1.6848  0.2463  1.8665
   88SAPS   H3Y 8498   7.283   5.512  10.267 -1.1525 -0.2290  1.9455
   88SAPS   C34 8499   7.366   5.356  10.129  0.4324 -0.2024 -0.0798
   88SAPS   H4X 8500   7.383   5.249  10.155 -0.5858 -0.1908  0.6797
   88SAPS   H4Y 8501   7.461   5.414  10.121  0.1328  0.0816 -2.0620
   88SAPS   C35 8502   7.290   5.375   9.997  0.3234 -0.0340 -0.0459
   88SAPS   H5X 8503   7.256   5.481   9.994  1.7867  0.4372 -0.5452
   88SAPS   H5Y 8504   7.202   5.307   9.999  1.2400 -1.2253  1.9401
   88SAPS   C36 8505   7.379   5.332   9.880 -0.6672  0.6158  0.3587
   88SAPS   H6X 8506   7.418   5.232   9.909 -0.6621  0.8306  1.1157
   88SAPS   H6Y 8507   7.464   5.403   9.868 -0.3689  0.1690 -0.2478
   88SAPS   C37 8508   7.308   5.327   9.741 -0.0151 -0.6087  0.2796
   88SAPS   H7X 8509   7.243   5.238   9.756  0.0374 -0.2010  3.3618
   88SAPS   H7Y 8510   7.390   5.306   9.668 -0.0334 -0.2127  0.1412
   88SAPS   C38 8511   7.227   5.449   9.702  0.5058  0.1382  0.6166
   88SAPS   H8X 8512   7.282   5.530   9.754  0.0547 -0.3063  1.8165
   88SAPS   H8Y 8513   7.128   5.448   9.752 -0.5129 -0.4804 -1.2986
   88SAPS   C39 8514   7.213   5.470   9.552  0.3392  0.8094  0.5058
   88SAPS   H9X 8515   7.308   5.502   9.504  0.8012  0.3693  1.1152
   88SAPS   H9Y 8516   7.157   5.560   9.518 -3.0326 -0.4708  2.1898
   88SAPS  C310 8517   7.132   5.362   9.480  0.0955 -0.2709  0.3109
   88SAPS  H10X 8518   7.032   5.346   9.526  0.5961 -2.1493  0.8633
   88SAPS  H10Y 8519   7.185   5.264   9.489  1.7419  0.4856 -0.5702
   88SAPS  C311 8520   7.119   5.400   9.333  0.2253  0.1178  0.0496
   88SAPS  H11X 8521   7.091   5.506   9.317 -0.4580 -0.2752 -1.5725
   88SAPS  H11Y 8522   7.027   5.350   9.297 -0.4181 -1.2537  3.3176
   88SAPS  C312 8523   7.233   5.347   9.246  0.1028  0.1432 -0.2553
   88SAPS  H12X 8524   7.255   5.240   9.264  0.7249  0.0407 -1.5031
   88SAPS  H12Y 8525   7.326   5.407   9.243  0.2468  0.0699  1.5865
   88SAPS  C313 8526   7.189   5.343   9.101 -0.4789  0.1320  0.1766
   88SAPS  H13X 8527   7.152   5.443   9.069 -2.4110 -0.9044 -0.9947
   88SAPS  H13Y 8528   7.111   5.267   9.079 -0.7115  0.7532 -1.1969
   88SAPS  C314 8529   7.311   5.303   9.008  0.1291  0.4314  0.4275
   88SAPS  H14X 8530   7.344   5.203   9.043 -3.2388 -0.7397  0.5636
   88SAPS  H14Y 8531   7.394   5.373   9.032  1.8602 -0.4790 -2.4281
   88SAPS  C315 8532   7.285   5.302   8.857  0.1314  0.7364 -0.1162
   88SAPS  H15X 8533   7.275   5.409   8.828 -0.1461  0.6204 -0.4544
   88SAPS  H15Y 8534   7.187   5.253   8.837  0.9758 -0.8760 -0.4574
   88SAPS  C316 8535   7.395   5.251   8.768 -0.2384  0.0295  0.7187
   88SAPS  H16X 8536   7.393   5.140   8.762 -0.9377  0.0397  0.6049
   88SAPS  H16Y 8537   7.499   5.284   8.790 -0.2984  1.0823 -0.4939
   88SAPS  C317 8538   7.359   5.302   8.622  0.4454  0.0502 -0.7215
   88SAPS  H17X 8539   7.446   5.278   8.556 -0.5872  2.6533 -3.2470
   88SAPS  H17Y 8540   7.355   5.412   8.608 -2.4836 -0.0573 -1.2183
   88SAPS  C318 8541   7.235   5.234   8.556 -0.0479  0.2946 -0.0766
   88SAPS  H18X 8542   7.235   5.246   8.446 -4.2594 -0.3309 -0.3445
   88SAPS  H18Y 8543   7.145   5.288   8.593  0.5596  1.5672 -0.4194
   88SAPS  H18Z 8544   7.217   5.129   8.590 -0.3343  1.1690  2.8225
   89SAPS     N 8545   1.157   2.279  10.870  0.3184  0.1825  0.5923
   89SAPS   HN1 8546   1.185   2.218  10.950  1.0166 -2.0893 -1.2611
   89SAPS   HN2 8547   1.211   2.241  10.789 -0.6002  1.1709 -0.5252
   89SAPS   HN3 8548   1.197   2.373  10.888  1.8824  0.2511 -2.4809
   89SAPS   C12 8549   1.010   2.284  10.868 -0.4935 -0.7462  0.0631
   89SAPS  H12A 8550   0.972   2.186  10.890 -2.9034  0.3266  0.9761
   89SAPS   C13 8551   0.950   2.401  10.953 -0.2483  0.3375  0.0574
   89SAPS  O13A 8552   1.025   2.474  11.029  0.3441  0.1618 -0.2913
   89SAPS  O13B 8553   0.829   2.428  10.949  0.2983  0.5869  0.3336
   89SAPS   C11 8554   0.962   2.309  10.716 -0.0452  0.2911  0.1192
   89SAPS  H11A 8555   1.003   2.409  10.693 -2.5525  1.4917  0.4979
   89SAPS  H11B 8556   0.852   2.321  10.705 -0.1302 -0.3106  0.2949
   89SAPS     P 8557   0.950   2.080  10.605 -0.3053  0.2210  0.0990
   89SAPS   O13 8558   1.070   1.991  10.618  0.9273  0.1189  0.2881
   89SAPS   O14 8559   0.841   2.075  10.714  0.0574  0.4599  0.0821
   89SAPS   O12 8560   1.026   2.218  10.622 -0.4670 -0.3574  0.0454
   89SAPS   O11 8561   0.881   2.074  10.466 -0.2413  0.1417 -1.3227
   89SAPS    C1 8562   0.953   2.119  10.349  0.5761  0.1360 -0.7887
   89SAPS    HA 8563   1.064   2.129  10.354  0.5794 -0.5551  2.0207
   89SAPS    HB 8564   0.934   2.052  10.263  3.1358 -1.8450  0.0539
   89SAPS    C2 8565   0.894   2.263  10.301 -1.2585 -0.9959  0.1772
   89SAPS    HS 8566   0.899   2.331  10.389  1.4064 -0.3936 -0.3382
   89SAPS   O21 8567   0.761   2.250  10.265  0.4831 -0.0332  0.0144
   89SAPS   C21 8568   0.682   2.358  10.263 -0.6383 -0.4269 -0.7928
   89SAPS   O22 8569   0.719   2.475  10.283 -0.8281  0.4825  0.8746
   89SAPS   C22 8570   0.540   2.321  10.223 -0.1960  1.3541 -0.1158
   89SAPS   H2R 8571   0.517   2.213  10.234  0.0911  1.1513 -1.3392
   89SAPS   H2S 8572   0.475   2.379  10.293 -1.2753 -0.1352  0.1687
   89SAPS    C3 8573   0.982   2.343  10.194  0.1846  0.7436 -0.1957
   89SAPS    HX 8574   1.088   2.350  10.226  0.2682 -0.7704 -0.0732
   89SAPS    HY 8575   0.948   2.449  10.201 -0.4363  0.5028  5.4321
   89SAPS   O31 8576   0.972   2.305  10.058  0.6417 -0.0176  0.0857
   89SAPS   C31 8577   1.044   2.203  10.016 -0.0121 -0.3059  1.3337
   89SAPS   O32 8578   1.123   2.139  10.082  0.5714  0.3245 -0.0343
   89SAPS   C32 8579   1.009   2.171   9.870 -0.1165  0.0211 -0.1077
   89SAPS   H2X 8580   0.948   2.257   9.837 -0.7149 -0.1971  0.3979
   89SAPS   H2Y 8581   0.940   2.084   9.859 -0.7758  0.3952  0.9769
   89SAPS   C23 8582   0.521   2.364  10.075 -0.0245  0.0919  0.4620
   89SAPS   H3R 8583   0.570   2.463  10.065  0.1418 -0.0931 -0.6235
   89SAPS   H3S 8584   0.415   2.379  10.047  0.0446 -0.8602 -0.3750
   89SAPS   C24 8585   0.593   2.274   9.973  0.2287 -0.9358 -0.3138
   89SAPS   H4R 8586   0.698   2.293  10.004  0.0531 -4.0599  2.8569
   89SAPS   H4S 8587   0.579   2.328   9.876  0.9880  2.3068  1.2433
   89SAPS   C25 8588   0.569   2.123   9.970 -0.4865 -0.0418 -0.5626
   89SAPS   H5R 8589   0.586   2.069  10.064 -1.9305 -1.1533 -0.8970
   89SAPS   C26 8590   0.519   2.057   9.866 -0.0792 -0.1186 -1.0732
   89SAPS   H6R 8591   0.499   1.951   9.885 -2.9070  0.5073 -0.1651
   89SAPS   C27 8592   0.481   2.114   9.726 -0.4094  0.4157 -0.1921
   89SAPS   H7R 8593   0.522   2.057   9.641  0.4739  2.5557 -1.2774
   89SAPS   H7S 8594   0.534   2.209   9.700  0.1340 -0.0594 -0.8527
   89SAPS   C28 8595   0.337   2.147   9.708  0.0410  0.5074  0.7614
   89SAPS   H8R 8596   0.282   2.186   9.794 -0.0170  0.0678  0.9248
   89SAPS   C29 8597   0.267   2.116   9.597 -0.2748 -0.3050 -1.1756
   89SAPS   H9R 8598   0.162   2.145   9.591 -0.5139 -1.1157 -1.0988
   89SAPS  C210 8599   0.321   2.047   9.470 -0.0343  0.1163 -0.8054
   89SAPS  H10R 8600   0.231   2.012   9.416  0.2354 -1.2107 -0.4257
   89SAPS  H10S 8601   0.378   1.953   9.489  0.1926  0.4680  0.3241
   89SAPS  C211 8602   0.395   2.148   9.391 -0.5968 -0.6283  0.3246
   89SAPS  H11R 8603   0.481   2.196   9.441 -1.0015  0.0418  0.3851
   89SAPS  C212 8604   0.386   2.169   9.260  0.0596 -0.0380 -0.1584
   89SAPS  H12R 8605   0.463   2.233   9.215 -1.2839  1.6355 -0.1916
   89SAPS  C213 8606   0.307   2.082   9.163 -0.1562 -0.0915 -0.2560
   89SAPS  H13R 8607   0.260   1.995   9.213  0.5831 -0.4095 -0.0948
   89SAPS  H13S 8608   0.389   2.037   9.102  0.8774  0.6268  0.5573
   89SAPS  C214 8609   0.210   2.152   9.074 -0.2526 -0.3831  0.2511
   89SAPS  H14R 8610   0.153   2.228   9.130 -1.4580 -0.7996 -0.3678
   89SAPS  C215 8611   0.196   2.141   8.943  0.8062 -0.1399  0.8546
   89SAPS  H15R 8612   0.117   2.199   8.893  1.1856 -1.5549 -1.5353
   89SAPS  C216 8613   0.271   2.045   8.857  0.3371  0.0226  0.2056
   89SAPS  H16R 8614   0.197   1.982   8.803 -1.0517  1.2240  0.6298
   89SAPS  H16S 8615   0.338   1.975   8.911 -0.5326  0.1175  1.4393
   89SAPS  C217 8616   0.358   2.126   8.757  0.6898 -0.4938 -0.2798
   89SAPS  H17R 8617   0.279   2.171   8.693  1.5370 -1.0723 -1.8061
   89SAPS  H17S 8618   0.412   2.055   8.690  0.9767 -4.0688  3.4044
   89SAPS  C218 8619   0.456   2.228   8.815  0.6281 -0.0898 -0.0050
   89SAPS  H18R 8620   0.522   2.174   8.885  0.4038 -1.0595 -0.5166
   89SAPS  H18S 8621   0.393   2.309   8.858  0.5168 -0.5608  0.7315
   89SAPS  C219 8622   0.544   2.297   8.709 -0.4328  0.5723 -0.1201
   89SAPS  H19R 8623   0.596   2.224   8.643 -1.2757  0.0719 -0.2415
   89SAPS  H19S 8624   0.615   2.351   8.776 -2.9250  0.0379  3.2070
   89SAPS  C220 8625   0.471   2.394   8.618  0.9985  0.5070  0.4144
   89SAPS  H20R 8626   0.539   2.420   8.534  0.0093  1.6921 -0.0422
   89SAPS  H20S 8627   0.441   2.491   8.662 -0.7371  0.6245 -0.8871
   89SAPS  H20T 8628   0.381   2.349   8.572  0.2754  1.7659  0.5500
   89SAPS   C33 8629   1.135   2.164   9.778 -0.0259 -0.5605 -0.3495
   89SAPS   H3X 8630   1.200   2.076   9.797  0.8461 -0.0678 -0.9923
   89SAPS   H3Y 8631   1.191   2.256   9.802 -1.6863  0.3549  0.2033
   89SAPS   C34 8632   1.096   2.162   9.631 -0.0219 -0.4366  0.1249
   89SAPS   H4X 8633   1.050   2.262   9.615  3.1508  0.9647 -0.9628
   89SAPS   H4Y 8634   1.015   2.088   9.610 -0.1224 -0.5816  0.9794
   89SAPS   C35 8635   1.214   2.153   9.534  0.2128  0.3577 -0.4016
   89SAPS   H5X 8636   1.272   2.060   9.551 -2.6312 -1.4575 -0.1231
   89SAPS   H5Y 8637   1.283   2.240   9.547  0.0937  0.2543  1.2109
   89SAPS   C36 8638   1.166   2.142   9.397  0.2299  0.0336 -0.6688
   89SAPS   H6X 8639   1.081   2.212   9.383 -1.2137 -1.2224  1.3383
   89SAPS   H6Y 8640   1.130   2.039   9.373 -1.9690  0.5204  0.3119
   89SAPS   C37 8641   1.274   2.180   9.294 -0.0000 -0.1145 -0.8683
   89SAPS   H7X 8642   1.358   2.111   9.320 -1.4992 -1.5445  0.4086
   89SAPS   H7Y 8643   1.311   2.283   9.314  2.3913 -1.0732  0.0933
   89SAPS   C38 8644   1.228   2.165   9.142 -0.5575  0.1330  0.2388
   89SAPS   H8X 8645   1.142   2.231   9.117  0.2174  1.3677  0.7816
   89SAPS   H8Y 8646   1.202   2.058   9.126  0.1800 -0.1211  0.6904
   89SAPS   C39 8647   1.360   2.200   9.063 -0.5480 -0.2282  0.5645
   89SAPS   H9X 8648   1.442   2.131   9.092 -0.4154  0.5798  2.2303
   89SAPS   H9Y 8649   1.388   2.301   9.098 -3.2129  1.0906 -0.8122
   89SAPS  C310 8650   1.354   2.204   8.912 -0.6497  0.2433  0.2974
   89SAPS  H10X 8651   1.306   2.107   8.885 -0.6578 -0.1046  1.5161
   89SAPS  H10Y 8652   1.456   2.218   8.870  0.2829  0.7467  2.5551
   89SAPS  C311 8653   1.259   2.308   8.859  0.4255 -0.2565  0.2938
   89SAPS  H11X 8654   1.320   2.382   8.802 -1.6979  1.3657 -0.0052
   89SAPS  H11Y 8655   1.202   2.359   8.939 -0.5983  2.0837 -1.7711
   89SAPS  C312 8656   1.158   2.238   8.756 -0.4770  0.8340  0.1593
   89SAPS  H12X 8657   1.093   2.167   8.812  2.8049 -1.7996  0.9439
   89SAPS  H12Y 8658   1.217   2.177   8.684 -0.9263  1.1165 -0.4645
   89SAPS  C313 8659   1.077   2.335   8.674  0.1101  0.5870  0.3912
   89SAPS  H13X 8660   1.147   2.387   8.604 -0.6368  1.1086  0.0150
   89SAPS  H13Y 8661   1.025   2.404   8.744 -1.2446 -1.0278  1.0432
   89SAPS  C314 8662   0.964   2.281   8.586  0.1909 -0.3834  0.4799
   89SAPS  H14X 8663   0.891   2.220   8.644 -1.3142 -1.2468 -2.1595
   89SAPS  H14Y 8664   1.004   2.205   8.515  0.1399  0.7072 -0.7404
   89SAPS  C315 8665   0.883   2.378   8.509 -0.4974 -0.0012  0.5791
   89SAPS  H15X 8666   0.938   2.455   8.450  1.4811 -0.5030  1.6688
   89SAPS  H15Y 8667   0.814   2.434   8.575 -1.1334 -0.9772  0.7573
   89SAPS  C316 8668   0.783   2.313   8.404 -0.4793  0.1445  0.6039
   89SAPS  H16X 8669   0.722   2.398   8.365  0.5398 -0.2679 -2.0787
   89SAPS  H16Y 8670   0.716   2.238   8.451 -1.5868  0.4675 -0.4161
   89SAPS  C317 8671   0.852   2.263   8.274 -0.4832  0.3120 -0.7060
   89SAPS  H17X 8672   0.867   2.154   8.284  1.0418  0.4934 -0.8128
   89SAPS  H17Y 8673   0.953   2.307   8.262  0.3503 -1.1664  0.5018
   89SAPS  C318 8674   0.764   2.292   8.155  0.3378  0.8394  0.0499
   89SAPS  H18X 8675   0.735   2.399   8.147  0.8818  1.1602  2.0213
   89SAPS  H18Y 8676   0.674   2.227   8.169  0.5210 -0.0247 -2.2836
   89SAPS  H18Z 8677   0.803   2.245   8.062 -2.3804  1.1677 -1.3671
   90SAPS     N 8678   2.008   1.822  10.645  0.1880 -0.4824 -0.1830
   90SAPS   HN1 8679   2.099   1.773  10.630 -0.1482 -1.1700 -0.0361
   90SAPS   HN2 8680   1.987   1.861  10.551  1.6790  0.1550 -0.2916
   90SAPS   HN3 8681   2.015   1.897  10.717  0.6206 -0.1377 -0.5848
   90SAPS   C12 8682   1.881   1.728  10.666 -0.9040  0.2682 -0.3460
   90SAPS  H12A 8683   1.874   1.665  10.579 -1.9424  1.1520 -0.9185
   90SAPS   C13 8684   1.891   1.639  10.791  0.3445 -0.8232  0.2693
   90SAPS  O13A 8685   1.969   1.659  10.886 -0.7709 -0.3372 -0.0530
   90SAPS  O13B 8686   1.799   1.559  10.809  0.6221  0.3331 -0.7117
   90SAPS   C11 8687   1.749   1.819  10.687  0.4858  0.5422  0.1192
   90SAPS  H11A 8688   1.772   1.871  10.782  1.3798  0.1020  0.1524
   90SAPS  H11B 8689   1.666   1.746  10.693  1.7805 -0.8930  1.1840
   90SAPS     P 8690   1.647   2.036  10.624  0.2896 -0.0373 -0.2021
   90SAPS   O13 8691   1.507   1.992  10.646  0.1597  0.1531 -0.3972
   90SAPS   O14 8692   1.713   2.105  10.733  0.1686  0.6389 -0.4370
   90SAPS   O12 8693   1.731   1.907  10.580  0.0225  0.4040 -0.3078
   90SAPS   O11 8694   1.665   2.126  10.495 -0.6323 -0.1060 -0.3384
   90SAPS    C1 8695   1.783   2.109  10.409 -0.2933 -0.9816  0.0313
   90SAPS    HA 8696   1.876   2.116  10.470 -2.0599 -0.9304  2.8945
   90SAPS    HB 8697   1.766   2.012  10.358  1.6226 -0.6867 -1.2788
   90SAPS    C2 8698   1.779   2.209  10.289 -0.1105 -0.0644  0.0315
   90SAPS    HS 8699   1.778   2.312  10.331 -1.3586 -0.2577  0.5136
   90SAPS   O21 8700   1.672   2.180  10.195 -0.2563  0.3808  0.5096
   90SAPS   C21 8701   1.630   2.289  10.133  0.4673 -0.6003 -0.3400
   90SAPS   O22 8702   1.661   2.404  10.159 -0.0713 -0.1443 -0.2548
   90SAPS   C22 8703   1.509   2.264  10.046 -0.1241  0.0687 -0.4845
   90SAPS   H2R 8704   1.503   2.155  10.027 -0.1014 -0.1495  0.6849
   90SAPS   H2S 8705   1.413   2.295  10.093 -0.1226 -0.5154 -0.0880
   90SAPS    C3 8706   1.909   2.208  10.201  0.2247  0.3400 -0.4850
   90SAPS    HX 8707   1.922   2.106  10.160  0.6744 -1.0619  2.7996
   90SAPS    HY 8708   1.991   2.234  10.272 -0.1703 -0.7552  0.4026
   90SAPS   O31 8709   1.905   2.298  10.080  0.5829  0.4503 -0.1136
   90SAPS   C31 8710   1.984   2.400  10.092  0.3713 -0.7635 -1.0193
   90SAPS   O32 8711   2.036   2.444  10.194 -0.2651 -0.3415 -0.4430
   90SAPS   C32 8712   1.992   2.455   9.955  0.6129 -0.4399  0.0967
   90SAPS   H2X 8713   2.071   2.534   9.951 -0.4066  0.5315 -2.3333
   90SAPS   H2Y 8714   1.897   2.510   9.940  2.1290  1.8626 -1.7704
   90SAPS   C23 8715   1.506   2.338   9.914 -0.1082 -0.4776  0.5285
   90SAPS   H3R 8716   1.496   2.444   9.946 -1.0850 -0.9257  1.7937
   90SAPS   H3S 8717   1.419   2.300   9.856  0.0854 -0.2770  0.0997
   90SAPS   C24 8718   1.637   2.319   9.825  0.0646  0.1704  0.5116
   90SAPS   H4R 8719   1.731   2.349   9.876  0.4353 -1.0151  0.5453
   90SAPS   H4S 8720   1.616   2.393   9.745 -4.2489 -1.5128 -0.1757
   90SAPS   C25 8721   1.642   2.184   9.767  0.1966  0.5007  0.2797
   90SAPS   H5R 8722   1.653   2.105   9.843 -2.9389  0.3921  0.7472
   90SAPS   C26 8723   1.630   2.143   9.638  0.2632 -0.1645  0.1458
   90SAPS   H6R 8724   1.646   2.037   9.616  2.1561  0.0275  0.4638
   90SAPS   C27 8725   1.598   2.237   9.523  0.5023  0.0098 -0.0084
   90SAPS   H7R 8726   1.638   2.340   9.530 -0.0712  0.3980 -1.9096
   90SAPS   H7S 8727   1.490   2.262   9.529  0.9663  1.8819  1.7928
   90SAPS   C28 8728   1.632   2.187   9.382  0.2460 -0.4203 -0.4087
   90SAPS   H8R 8729   1.615   2.080   9.362 -2.4313  0.2657 -2.2732
   90SAPS   C29 8730   1.688   2.252   9.286  0.4676 -0.3781  0.0205
   90SAPS   H9R 8731   1.708   2.196   9.193 -1.5797 -1.9512  0.4591
   90SAPS  C210 8732   1.737   2.396   9.288 -0.0939 -0.0160  0.2326
   90SAPS  H10R 8733   1.822   2.401   9.216 -0.8275 -1.0488 -0.7445
   90SAPS  H10S 8734   1.781   2.414   9.388 -0.4933  0.6695  0.2887
   90SAPS  C211 8735   1.621   2.490   9.255 -0.4808 -0.8798 -0.6097
   90SAPS  H11R 8736   1.537   2.481   9.325  0.2451  1.6657  0.7394
   90SAPS  C212 8737   1.621   2.593   9.165 -0.4662  0.5868 -0.0028
   90SAPS  H12R 8738   1.523   2.636   9.141 -1.0796 -0.6797  0.1357
   90SAPS  C213 8739   1.731   2.647   9.075  0.1855  0.1986 -0.3602
   90SAPS  H13R 8740   1.818   2.654   9.144 -0.0724 -1.4660  0.1836
   90SAPS  H13S 8741   1.704   2.750   9.044 -1.1674 -0.1116 -0.2768
   90SAPS  C214 8742   1.759   2.547   8.967  0.2292 -0.4041 -0.0037
   90SAPS  H14R 8743   1.781   2.444   9.001  0.5328 -0.6004 -0.7704
   90SAPS  C215 8744   1.762   2.575   8.833 -0.3973 -0.1221 -0.8516
   90SAPS  H15R 8745   1.764   2.483   8.774  3.3097 -0.0100 -1.1291
   90SAPS  C216 8746   1.743   2.710   8.757 -0.0352 -0.7596 -0.1390
   90SAPS  H16R 8747   1.816   2.789   8.785  0.3307 -0.5287 -1.6767
   90SAPS  H16S 8748   1.649   2.756   8.793  0.7560  0.0147  1.0087
   90SAPS  C217 8749   1.741   2.682   8.603  0.1660 -0.4512  0.1033
   90SAPS  H17R 8750   1.808   2.597   8.576 -0.1606 -0.1794 -1.6711
   90SAPS  H17S 8751   1.785   2.763   8.541 -0.8648  0.0809  0.0574
   90SAPS  C218 8752   1.602   2.655   8.550  0.2840 -0.4097 -0.2212
   90SAPS  H18R 8753   1.608   2.662   8.439  0.5881  0.5024 -0.1523
   90SAPS  H18S 8754   1.540   2.742   8.580  0.9813 -0.1163  0.3951
   90SAPS  C219 8755   1.535   2.526   8.593  0.4383 -0.1488  0.1509
   90SAPS  H19R 8756   1.484   2.537   8.692 -0.2271 -0.2796 -0.1704
   90SAPS  H19S 8757   1.606   2.440   8.597 -2.2505 -2.5010  3.0724
   90SAPS  C220 8758   1.423   2.468   8.503 -0.1088  0.1510  1.4181
   90SAPS  H20R 8759   1.338   2.540   8.501 -0.2739 -0.0008  2.3010
   90SAPS  H20S 8760   1.389   2.367   8.534  0.7001 -0.0221  1.7741
   90SAPS  H20T 8761   1.460   2.469   8.399  2.9155  2.0286  2.3695
   90SAPS   C33 8762   2.012   2.367   9.837  0.6206  0.2809  0.2308
   90SAPS   H3X 8763   1.943   2.280   9.825  0.4495  0.3519  0.6530
   90SAPS   H3Y 8764   2.114   2.324   9.842 -0.3283 -2.0619  1.6732
   90SAPS   C34 8765   2.014   2.447   9.708 -0.1498 -0.0950 -0.1644
   90SAPS   H4X 8766   2.087   2.526   9.735 -1.4568  0.8917  0.5265
   90SAPS   H4Y 8767   1.919   2.503   9.693 -1.2129 -1.8993 -0.4839
   90SAPS   C35 8768   2.064   2.357   9.587 -0.3126 -0.0302 -0.3313
   90SAPS   H5X 8769   1.986   2.285   9.554  2.5539 -2.5093 -2.2730
   90SAPS   H5Y 8770   2.154   2.298   9.613  0.9376  1.6027 -0.7986
   90SAPS   C36 8771   2.107   2.445   9.469 -0.7301  0.3330  0.1224
   90SAPS   H6X 8772   2.208   2.488   9.482  0.1344 -1.7447  0.7959
   90SAPS   H6Y 8773   2.032   2.525   9.452 -0.4591  0.0716 -2.8083
   90SAPS   C37 8774   2.116   2.362   9.341 -0.3221  0.5412  0.1766
   90SAPS   H7X 8775   2.019   2.312   9.322 -1.0770  1.4517  1.4277
   90SAPS   H7Y 8776   2.190   2.283   9.363 -0.6355  0.1987  0.0213
   90SAPS   C38 8777   2.159   2.451   9.222 -1.3839 -0.1159  0.0724
   90SAPS   H8X 8778   2.268   2.461   9.234 -1.0794 -1.7185 -0.9948
   90SAPS   H8Y 8779   2.116   2.554   9.228  1.1800  0.9356  2.1093
   90SAPS   C39 8780   2.124   2.392   9.085 -0.2536 -0.3342 -0.5114
   90SAPS   H9X 8781   2.017   2.409   9.062 -0.9628 -2.4876  0.8616
   90SAPS   H9Y 8782   2.141   2.282   9.080 -0.5879 -0.4506  0.6657
   90SAPS  C310 8783   2.198   2.454   8.965 -0.0137  0.1387 -0.6141
   90SAPS  H10X 8784   2.198   2.391   8.874  0.0996  1.4719 -1.5701
   90SAPS  H10Y 8785   2.301   2.472   9.002 -0.1798  1.4675 -0.7423
   90SAPS  C311 8786   2.148   2.586   8.910 -0.2283  0.4952 -0.7416
   90SAPS  H11X 8787   2.148   2.655   8.997  0.6844  0.3288 -0.5927
   90SAPS  H11Y 8788   2.046   2.583   8.866 -0.9951  1.5976  0.8746
   90SAPS  C312 8789   2.236   2.650   8.799  0.0715 -0.1618 -1.3143
   90SAPS  H12X 8790   2.321   2.705   8.845 -0.4248 -1.2518  1.0158
   90SAPS  H12Y 8791   2.186   2.743   8.763 -1.1343  0.9021  2.6270
   90SAPS  C313 8792   2.281   2.575   8.674 -0.2246  0.6221 -0.0288
   90SAPS  H13X 8793   2.188   2.555   8.617 -1.2900 -0.7146  2.0232
   90SAPS  H13Y 8794   2.327   2.477   8.697  1.4950  1.6836  1.3708
   90SAPS  C314 8795   2.386   2.649   8.590  0.5556  0.6296 -0.4540
   90SAPS  H14X 8796   2.477   2.672   8.650 -0.6630  2.0679  0.9138
   90SAPS  H14Y 8797   2.342   2.750   8.584 -1.6464 -0.3051 -0.9498
   90SAPS  C315 8798   2.418   2.595   8.449 -0.0546  0.0918  0.1704
   90SAPS  H15X 8799   2.333   2.594   8.378  0.2417  1.2084 -0.2288
   90SAPS  H15Y 8800   2.451   2.490   8.464  4.0317  0.9653 -1.2615
   90SAPS  C316 8801   2.535   2.676   8.386 -0.5860  0.3292  0.0578
   90SAPS  H16X 8802   2.552   2.639   8.283  1.7305  0.4608  0.3426
   90SAPS  H16Y 8803   2.629   2.645   8.438 -1.0764 -1.1713  0.1135
   90SAPS  C317 8804   2.519   2.826   8.387 -0.1881 -0.8865 -0.4644
   90SAPS  H17X 8805   2.603   2.875   8.332 -1.0780  0.6272 -0.5192
   90SAPS  H17Y 8806   2.515   2.869   8.489  2.2271 -1.6907  0.0383
   90SAPS  C318 8807   2.388   2.865   8.313 -0.2763 -0.1143 -0.7502
   90SAPS  H18X 8808   2.391   2.973   8.288 -0.4995  0.4894  1.5766
   90SAPS  H18Y 8809   2.289   2.845   8.361 -1.8991 -0.4394 -3.9362
   90SAPS  H18Z 8810   2.386   2.793   8.228  0.3563 -0.7748 -0.2200
   91SAPS     N 8811   0.409   5.189   5.946 -0.1746 -0.0522 -0.5505
   91SAPS   HN1 8812   0.421   5.212   5.845  0.9383  0.1153 -0.3992
   91SAPS   HN2 8813   0.325   5.228   5.992 -0.0148  0.8320 -0.9877
   91SAPS   HN3 8814   0.487   5.234   5.999 -0.8028 -0.5405  0.8219
   91SAPS   C12 8815   0.419   5.045   5.966 -1.2504 -0.3734  0.1164
   91SAPS  H12A 8816   0.395   5.019   6.068  0.6701 -0.7678  0.4920
   91SAPS   C13 8817   0.318   4.964   5.877 -0.5992 -1.0590  0.7210
   91SAPS  O13A 8818   0.315   4.997   5.756 -0.5244 -0.3815 -0.0344
   91SAPS  O13B 8819   0.320   4.845   5.902  0.1961 -0.0134  0.0713
   91SAPS   C11 8820   0.561   4.992   5.941  0.1903  0.1080  0.2645
   91SAPS  H11A 8821   0.609   5.052   5.861  0.4266  0.7584  0.8940
   91SAPS  H11B 8822   0.549   4.891   5.897  2.6030  1.0286 -2.8792
   91SAPS     P 8823   0.652   4.878   6.162  0.0353 -0.0355  0.3907
   91SAPS   O13 8824   0.630   4.746   6.102 -0.2890  0.0865  0.3833
   91SAPS   O14 8825   0.779   4.886   6.247 -0.0761  0.0650 -0.1257
   91SAPS   O12 8826   0.652   4.992   6.056  0.0037 -0.1222  0.4751
   91SAPS   O11 8827   0.524   4.919   6.251  0.7282 -0.5862  0.3786
   91SAPS    C1 8828   0.469   4.819   6.335  0.3106  0.3581 -0.3955
   91SAPS    HA 8829   0.425   4.733   6.281  0.6883  0.2631 -0.5576
   91SAPS    HB 8830   0.555   4.781   6.394  0.9431  1.3292 -0.6525
   91SAPS    C2 8831   0.357   4.878   6.427  0.0974  0.1744  0.0976
   91SAPS    HS 8832   0.380   4.986   6.425  2.5960 -0.2262  1.8721
   91SAPS   O21 8833   0.373   4.815   6.557 -0.0259 -0.1057  0.0546
   91SAPS   C21 8834   0.468   4.871   6.635 -0.6627  0.1938  0.8184
   91SAPS   O22 8835   0.545   4.958   6.601  0.1656  0.8502  0.1125
   91SAPS   C22 8836   0.452   4.810   6.775  0.0003  0.0315 -0.5344
   91SAPS   H2R 8837   0.355   4.853   6.811  0.7050  1.5094 -0.3083
   91SAPS   H2S 8838   0.450   4.700   6.759 -1.5207 -0.4142  2.1116
   91SAPS    C3 8839   0.217   4.844   6.381  0.0764  0.0285  0.9086
   91SAPS    HX 8840   0.210   4.733   6.388 -1.8259  0.0938  0.6198
   91SAPS    HY 8841   0.201   4.867   6.273 -2.2619 -3.1964  0.4218
   91SAPS   O31 8842   0.112   4.905   6.453  0.4506  0.2653  0.8336
   91SAPS   C31 8843   0.064   4.834   6.546 -1.3154  0.5537 -0.3497
   91SAPS   O32 8844   0.092   4.723   6.573 -0.5623  1.2925 -0.5704
   91SAPS   C32 8845  -0.020   4.937   6.633 -0.0851 -0.3312  0.0452
   91SAPS   H2X 8846  -0.125   4.903   6.652 -0.6362  0.5161 -1.3795
   91SAPS   H2Y 8847  -0.032   5.036   6.585  0.7516  0.5824  1.6504
   91SAPS   C23 8848   0.570   4.839   6.874 -0.0978  0.2321  0.0090
   91SAPS   H3R 8849   0.666   4.818   6.823 -0.9878 -0.9401 -1.2450
   91SAPS   H3S 8850   0.555   4.782   6.968  0.7962  1.6469  1.0572
   91SAPS   C24 8851   0.568   4.987   6.920 -0.0365  0.9626  0.0671
   91SAPS   H4R 8852   0.580   5.059   6.836 -1.6608  0.1820 -0.8664
   91SAPS   H4S 8853   0.655   4.989   6.990  2.0450 -0.7481 -2.2863
   91SAPS   C25 8854   0.440   5.027   6.983 -0.5025 -0.5989  0.0902
   91SAPS   H5R 8855   0.363   5.085   6.931  0.4183  1.2018  0.6326
   91SAPS   C26 8856   0.409   5.002   7.115 -0.7024  1.0116  0.6667
   91SAPS   H6R 8857   0.316   5.043   7.156 -1.3077 -0.8592  1.2717
   91SAPS   C27 8858   0.492   4.925   7.219 -0.4268 -0.0429  0.5711
   91SAPS   H7R 8859   0.573   4.874   7.162 -0.8974 -1.6098  1.2433
   91SAPS   H7S 8860   0.420   4.855   7.267 -0.6186  0.4561  1.0137
   91SAPS   C28 8861   0.550   5.026   7.315  0.0067  0.4361  0.5013
   91SAPS   H8R 8862   0.604   5.114   7.276 -0.8071  0.7695  0.1223
   91SAPS   C29 8863   0.568   5.005   7.445 -0.2791 -0.0704 -0.5325
   91SAPS   H9R 8864   0.614   5.092   7.493  0.3546 -0.2480 -0.7958
   91SAPS  C210 8865   0.536   4.878   7.522 -0.5530  0.3964  0.5258
   91SAPS  H10R 8866   0.617   4.851   7.593 -1.0654  0.0992  1.0029
   91SAPS  H10S 8867   0.550   4.801   7.443 -1.6363  2.5568 -1.9154
   91SAPS  C211 8868   0.402   4.871   7.582  0.6027 -0.4852 -0.4752
   91SAPS  H11R 8869   0.329   4.851   7.503  0.0464 -3.6766  0.7061
   91SAPS  C212 8870   0.377   4.880   7.712 -0.2334  1.3182  0.0949
   91SAPS  H12R 8871   0.274   4.888   7.748 -0.2487 -0.0991  0.4132
   91SAPS  C213 8872   0.480   4.907   7.821  0.1431 -0.5272 -0.4882
   91SAPS  H13R 8873   0.433   4.951   7.912  1.5001  0.9084 -0.4316
   91SAPS  H13S 8874   0.540   4.995   7.789 -1.8539  0.9160 -0.4789
   91SAPS  C214 8875   0.565   4.791   7.852  0.4055  0.2509  0.0527
   91SAPS  H14R 8876   0.550   4.699   7.792 -1.2451  0.2517  0.4086
   91SAPS  C215 8877   0.664   4.787   7.941  0.4713  0.0664 -0.8332
   91SAPS  H15R 8878   0.701   4.685   7.961 -0.6330 -0.2558 -0.3460
   91SAPS  C216 8879   0.705   4.896   8.039 -0.4347  0.3740 -0.1236
   91SAPS  H16R 8880   0.679   4.999   8.009  1.7957  0.8273 -0.7002
   91SAPS  H16S 8881   0.815   4.897   8.055 -0.1469  0.8478 -1.9772
   91SAPS  C217 8882   0.643   4.873   8.183  0.0568 -0.6162 -0.2710
   91SAPS  H17R 8883   0.667   4.768   8.212 -1.5908 -0.4820  1.8727
   91SAPS  H17S 8884   0.533   4.889   8.179  0.0133 -0.5776  0.7591
   91SAPS  C218 8885   0.710   4.963   8.290 -0.6880  0.6354  0.4295
   91SAPS  H18R 8886   0.684   5.070   8.272 -2.3020  0.2474  0.3103
   91SAPS  H18S 8887   0.820   4.950   8.285 -0.8569 -0.5150 -4.3061
   91SAPS  C219 8888   0.655   4.935   8.436  0.5425 -0.2420  0.1448
   91SAPS  H19R 8889   0.545   4.943   8.423  0.5264  0.1227  0.4996
   91SAPS  H19S 8890   0.686   5.018   8.502 -0.9983  0.4123  0.0742
   91SAPS  C220 8891   0.697   4.791   8.484 -0.1624  0.1734 -0.1848
   91SAPS  H20R 8892   0.631   4.772   8.571  0.5330  0.9926  0.5405
   91SAPS  H20S 8893   0.798   4.798   8.529 -0.4196  2.3057  0.1753
   91SAPS  H20T 8894   0.680   4.716   8.404  2.0822 -0.0926 -0.4737
   91SAPS   C33 8895   0.043   4.967   6.777 -0.0301  0.9589 -0.3779
   91SAPS   H3X 8896   0.146   5.003   6.755  0.5609 -0.4303  0.0265
   91SAPS   H3Y 8897   0.068   4.872   6.828 -0.4677  1.3600  0.6269
   91SAPS   C34 8898  -0.041   5.067   6.861  0.3922 -0.0471  0.0035
   91SAPS   H4X 8899  -0.148   5.038   6.850 -0.0757  0.3167  2.8247
   91SAPS   H4Y 8900  -0.031   5.164   6.809 -1.0416 -0.2563 -0.7311
   91SAPS   C35 8901   0.001   5.068   7.009 -0.3129  0.3007 -0.0097
   91SAPS   H5X 8902  -0.030   5.168   7.047 -2.5891 -0.8169  1.3129
   91SAPS   H5Y 8903   0.111   5.071   7.019 -0.3982  1.9438  0.8343
   91SAPS   C36 8904  -0.071   4.952   7.084  0.0975  0.0393  0.3784
   91SAPS   H6X 8905  -0.071   4.853   7.032  0.3209  0.7292 -0.9906
   91SAPS   H6Y 8906  -0.176   4.980   7.105 -0.6786 -0.2597 -2.6410
   91SAPS   C37 8907   0.006   4.945   7.216  0.7581  0.6445  0.0339
   91SAPS   H7X 8908   0.032   5.045   7.256  1.7029  0.4416 -0.0625
   91SAPS   H7Y 8909   0.101   4.893   7.194 -0.8007 -1.7726 -1.5781
   91SAPS   C38 8910  -0.071   4.868   7.323  0.8682 -0.0382  0.3685
   91SAPS   H8X 8911  -0.118   4.776   7.281  0.5273  0.1472  0.3400
   91SAPS   H8Y 8912  -0.157   4.936   7.340 -0.3115 -1.6362  0.9548
   91SAPS   C39 8913   0.012   4.833   7.452 -0.1623 -1.0090 -0.3763
   91SAPS   H9X 8914   0.051   4.926   7.497 -1.0434 -0.1766 -1.2615
   91SAPS   H9Y 8915   0.104   4.778   7.424  0.1535  0.5005 -2.5499
   91SAPS  C310 8916  -0.060   4.749   7.562 -0.1163 -0.7010  0.5401
   91SAPS  H10X 8917  -0.048   4.657   7.501  1.5761  0.4171 -0.9003
   91SAPS  H10Y 8918  -0.167   4.777   7.570  0.4892  2.1128 -0.1546
   91SAPS  C311 8919   0.012   4.742   7.704 -0.1620 -0.1371  1.0975
   91SAPS  H11X 8920   0.031   4.841   7.748 -1.3084  0.0854  1.1324
   91SAPS  H11Y 8921   0.106   4.685   7.687 -0.2885 -0.0167 -0.1599
   91SAPS  C312 8922  -0.075   4.659   7.805  0.1206  0.0515  0.8527
   91SAPS  H12X 8923  -0.113   4.575   7.744 -0.6808  2.1221 -1.6811
   91SAPS  H12Y 8924  -0.168   4.712   7.836  0.4543  0.8227  0.5684
   91SAPS  C313 8925  -0.006   4.611   7.928  0.1282  0.9584 -0.6848
   91SAPS  H13X 8926   0.080   4.547   7.900 -0.7987 -0.0243 -1.3568
   91SAPS  H13Y 8927  -0.087   4.552   7.976 -1.6202  2.0527 -2.1970
   91SAPS  C314 8928   0.033   4.730   8.023  0.3280  0.0371  0.1977
   91SAPS  H14X 8929  -0.053   4.791   8.057 -0.3492 -1.2522  0.8706
   91SAPS  H14Y 8930   0.092   4.797   7.958  1.0951 -1.2008 -0.4178
   91SAPS  C315 8931   0.118   4.678   8.137  0.0484 -0.8710  0.0277
   91SAPS  H15X 8932   0.197   4.612   8.094  1.9218  1.3675 -0.1808
   91SAPS  H15Y 8933   0.057   4.630   8.217 -0.4946 -1.5226 -0.7588
   91SAPS  C316 8934   0.204   4.790   8.203 -0.4511  0.1019 -0.0712
   91SAPS  H16X 8935   0.143   4.867   8.255  1.8978  1.5683  0.6875
   91SAPS  H16Y 8936   0.259   4.844   8.123  1.2132  0.7749  1.4587
   91SAPS  C317 8937   0.307   4.748   8.305  0.0555  0.1351  0.8285
   91SAPS  H17X 8938   0.344   4.847   8.340 -0.8767  1.0346 -0.6332
   91SAPS  H17Y 8939   0.387   4.693   8.251 -1.6720 -0.5506 -1.1691
   91SAPS  C318 8940   0.248   4.677   8.428  0.2928  0.6915  0.0955
   91SAPS  H18X 8941   0.156   4.729   8.462 -2.6087 -2.8942 -1.5748
   91SAPS  H18Y 8942   0.321   4.666   8.511  0.4797 -3.8176 -0.4138
   91SAPS  H18Z 8943   0.208   4.576   8.406  3.2229 -1.0193  2.0384
   92SAPS     N 8944   5.808   5.136   5.960  0.2268 -0.4810 -0.1601
   92SAPS   HN1 8945   5.720   5.171   5.917  0.8839  1.5264  0.0648
   92SAPS   HN2 8946   5.788   5.042   6.001 -1.4906  0.0240  0.2416
   92SAPS   HN3 8947   5.841   5.204   6.031  0.3515  2.3963 -2.7556
   92SAPS   C12 8948   5.911   5.137   5.842  0.2121 -0.3751 -0.5642
   92SAPS  H12A 8949   5.863   5.077   5.766 -1.4272 -0.4953  0.5005
   92SAPS   C13 8950   5.948   5.281   5.801  0.4023  0.3342 -0.9407
   92SAPS  O13A 8951   5.883   5.375   5.863 -0.2310  0.2089 -0.0955
   92SAPS  O13B 8952   6.037   5.309   5.716  0.3051 -0.2687  0.0462
   92SAPS   C11 8953   6.035   5.049   5.886  0.3553  0.5032 -0.3757
   92SAPS  H11A 8954   6.071   5.112   5.971 -1.3182  1.2935 -0.2067
   92SAPS  H11B 8955   6.100   5.045   5.796 -0.0788 -1.6266 -0.6319
   92SAPS     P 8956   6.087   4.811   5.999  0.2153  0.3219 -0.3819
   92SAPS   O13 8957   5.995   4.698   6.021 -0.3951 -0.6193 -0.3271
   92SAPS   O14 8958   6.205   4.792   5.912  0.0309  0.0455  0.0695
   92SAPS   O12 8959   6.000   4.917   5.922  0.5837  0.0160 -0.1231
   92SAPS   O11 8960   6.122   4.884   6.133 -0.0846  0.0850  0.2488
   92SAPS    C1 8961   6.039   4.881   6.248 -0.9975 -0.2306 -0.5563
   92SAPS    HA 8962   6.036   4.986   6.284  1.2716 -0.3015  0.0045
   92SAPS    HB 8963   5.936   4.849   6.222 -0.5353 -2.8730  0.4348
   92SAPS    C2 8964   6.096   4.782   6.366  0.2612  0.0518 -0.1522
   92SAPS    HS 8965   6.004   4.750   6.419 -0.9683  1.5292 -1.2939
   92SAPS   O21 8966   6.185   4.858   6.447 -0.1012  0.5041 -0.1318
   92SAPS   C21 8967   6.121   4.941   6.526 -0.7526 -0.9358 -0.4165
   92SAPS   O22 8968   6.003   4.945   6.555 -1.1158  0.3886 -0.2633
   92SAPS   C22 8969   6.215   5.048   6.582  0.1029 -0.1518  0.7500
   92SAPS   H2R 8970   6.222   5.135   6.512 -0.5191  0.5286  1.5101
   92SAPS   H2S 8971   6.154   5.067   6.673 -5.2780 -1.3474 -2.1569
   92SAPS    C3 8972   6.175   4.658   6.322 -0.3720 -0.2316 -0.1377
   92SAPS    HX 8973   6.256   4.693   6.255  0.0492  0.1989  0.6029
   92SAPS    HY 8974   6.110   4.594   6.257 -0.5695  0.3346 -0.5090
   92SAPS   O31 8975   6.214   4.581   6.438  0.1412 -0.3803  0.3457
   92SAPS   C31 8976   6.336   4.544   6.445  0.3149  0.5367 -0.5206
   92SAPS   O32 8977   6.430   4.572   6.374 -0.0553  1.1375  0.1378
   92SAPS   C32 8978   6.355   4.471   6.571  0.3222  0.5340  0.0906
   92SAPS   H2X 8979   6.296   4.376   6.571 -0.1831  0.7503  3.2867
   92SAPS   H2Y 8980   6.323   4.539   6.652 -0.0759 -0.4342  0.7738
   92SAPS   C23 8981   6.348   4.982   6.615 -0.0951 -0.7494  0.3875
   92SAPS   H3R 8982   6.415   5.063   6.650 -0.2002  0.1778 -1.4436
   92SAPS   H3S 8983   6.395   4.951   6.519 -1.9028 -0.2219 -0.7306
   92SAPS   C24 8984   6.335   4.873   6.725 -0.1601  0.2669 -0.6803
   92SAPS   H4R 8985   6.240   4.816   6.717 -0.4328  0.2874  1.5758
   92SAPS   H4S 8986   6.326   4.931   6.819  1.9539  0.4423 -0.5391
   92SAPS   C25 8987   6.457   4.784   6.748 -0.2623 -0.6931  0.5491
   92SAPS   H5R 8988   6.528   4.779   6.664 -0.4819 -1.8466  0.4217
   92SAPS   C26 8989   6.502   4.740   6.864  0.4931 -0.0499 -0.9326
   92SAPS   H6R 8990   6.594   4.680   6.865  1.1620  0.9610 -0.1686
   92SAPS   C27 8991   6.429   4.762   6.995 -0.4848 -0.0423 -0.3114
   92SAPS   H7R 8992   6.320   4.767   6.975 -0.5009  0.3265 -0.1369
   92SAPS   H7S 8993   6.456   4.861   7.039  1.7617 -0.8583  0.3072
   92SAPS   C28 8994   6.470   4.662   7.103 -0.2911 -0.1136 -0.1236
   92SAPS   H8R 8995   6.565   4.614   7.076 -1.6355 -1.7071 -2.3410
   92SAPS   C29 8996   6.411   4.628   7.220 -0.3568 -0.0261  0.3259
   92SAPS   H9R 8997   6.458   4.565   7.298 -1.1409 -0.7022  0.2693
   92SAPS  C210 8998   6.282   4.682   7.270  0.1438 -0.0172 -0.0160
   92SAPS  H10R 8999   6.221   4.707   7.180 -2.4545  1.7335  2.0817
   92SAPS  H10S 9000   6.292   4.769   7.338 -2.3532  1.3055 -1.1845
   92SAPS  C211 9001   6.208   4.563   7.341 -0.5831 -0.8538 -0.4751
   92SAPS  H11R 9002   6.191   4.478   7.274  0.1168  0.0636 -1.8712
   92SAPS  C212 9003   6.182   4.555   7.471 -0.0852  0.6219 -0.7243
   92SAPS  H12R 9004   6.117   4.469   7.492 -0.8068  1.6674  1.5777
   92SAPS  C213 9005   6.206   4.652   7.580 -0.2221 -0.3562  0.1461
   92SAPS  H13R 9006   6.128   4.644   7.658  0.4625 -1.8305  0.7106
   92SAPS  H13S 9007   6.206   4.753   7.533  0.3521 -0.4571 -0.0776
   92SAPS  C214 9008   6.344   4.626   7.638 -0.0453  0.6254  0.2135
   92SAPS  H14R 9009   6.429   4.679   7.594  0.6578 -1.2885 -0.8648
   92SAPS  C215 9010   6.367   4.547   7.744 -0.3340  0.8198 -0.0366
   92SAPS  H15R 9011   6.471   4.526   7.772 -0.8175  0.3629  1.5384
   92SAPS  C216 9012   6.265   4.465   7.814  0.3230 -0.5050  0.3447
   92SAPS  H16R 9013   6.280   4.355   7.804  1.2514 -0.2678 -1.3071
   92SAPS  H16S 9014   6.164   4.482   7.772  0.0826 -0.4402  0.9424
   92SAPS  C217 9015   6.266   4.501   7.966  0.3596 -0.5663  0.1391
   92SAPS  H17R 9016   6.290   4.608   7.980 -0.8737 -0.1261 -0.9893
   92SAPS  H17S 9017   6.336   4.441   8.028 -1.2516 -0.4967  2.1249
   92SAPS  C218 9018   6.124   4.487   8.028  0.0680  0.1855  0.4015
   92SAPS  H18R 9019   6.085   4.387   8.001 -0.0553  0.4646 -0.4879
   92SAPS  H18S 9020   6.061   4.566   7.980 -0.5569 -0.8889 -0.6054
   92SAPS  C219 9021   6.117   4.503   8.180  0.2879  0.6667 -0.4455
   92SAPS  H19R 9022   6.013   4.509   8.218 -0.2008 -3.8965 -0.5041
   92SAPS  H19S 9023   6.152   4.605   8.206  0.7199  0.4045  0.0244
   92SAPS  C220 9024   6.187   4.397   8.256 -0.8157  0.2981 -0.6357
   92SAPS  H20R 9025   6.183   4.415   8.366  1.2704 -0.4119 -0.3978
   92SAPS  H20S 9026   6.295   4.388   8.232  0.2015 -2.4402  3.7672
   92SAPS  H20T 9027   6.153   4.294   8.231 -1.8140 -0.0099  1.6594
   92SAPS   C33 9028   6.504   4.431   6.594  0.6567 -0.7216  0.6147
   92SAPS   H3X 9029   6.577   4.515   6.582 -0.9898  0.6180 -0.5635
   92SAPS   H3Y 9030   6.531   4.358   6.516 -1.3182 -1.5384  0.6489
   92SAPS   C34 9031   6.528   4.365   6.729 -0.6239  0.4886 -0.9292
   92SAPS   H4X 9032   6.520   4.435   6.816  0.3587 -1.2720  0.6515
   92SAPS   H4Y 9033   6.633   4.332   6.744 -0.6874  1.1751  1.5308
   92SAPS   C35 9034   6.448   4.231   6.746  0.5472  0.0809  0.3982
   92SAPS   H5X 9035   6.464   4.168   6.656 -1.5069  1.9478 -1.3893
   92SAPS   H5Y 9036   6.340   4.249   6.762  0.6896  2.1249 -0.6520
   92SAPS   C36 9037   6.500   4.160   6.867 -0.2184 -0.4385  0.4313
   92SAPS   H6X 9038   6.600   4.122   6.837 -0.2218  0.0883 -0.2773
   92SAPS   H6Y 9039   6.440   4.069   6.889 -0.3949 -0.3436  0.3505
   92SAPS   C37 9040   6.478   4.243   7.000  0.2783  0.7333  0.1002
   92SAPS   H7X 9041   6.370   4.265   7.013 -0.1100 -0.0033 -1.6552
   92SAPS   H7Y 9042   6.530   4.340   6.985 -0.4819  0.9858 -1.0076
   92SAPS   C38 9043   6.515   4.165   7.128 -0.2149  0.4857 -0.0932
   92SAPS   H8X 9044   6.610   4.110   7.117  1.7888  3.6125  0.3443
   92SAPS   H8Y 9045   6.435   4.091   7.150 -0.0184 -0.0023 -1.0039
   92SAPS   C39 9046   6.531   4.255   7.255  0.6060  0.0367 -0.0398
   92SAPS   H9X 9047   6.430   4.283   7.289  0.7159  0.1350  0.2064
   92SAPS   H9Y 9048   6.583   4.350   7.230 -1.3210  0.9629 -0.7020
   92SAPS  C310 9049   6.599   4.178   7.374 -0.2599  0.4812  1.1325
   92SAPS  H10X 9050   6.702   4.159   7.338 -0.1945  2.6743 -0.0251
   92SAPS  H10Y 9051   6.563   4.075   7.393 -0.4094 -0.4651 -3.2238
   92SAPS  C311 9052   6.607   4.250   7.511 -0.1509  0.1384  0.5340
   92SAPS  H11X 9053   6.502   4.266   7.543  0.3125 -1.0571  2.8357
   92SAPS  H11Y 9054   6.648   4.351   7.491 -1.9277  1.2984  2.3597
   92SAPS  C312 9055   6.699   4.178   7.613 -0.3581  0.7074 -0.3552
   92SAPS  H12X 9056   6.798   4.198   7.567 -1.3242  1.4995 -2.2049
   92SAPS  H12Y 9057   6.686   4.068   7.604 -0.0656  0.7451 -1.3911
   92SAPS  C313 9058   6.678   4.241   7.753 -0.1482  0.6122 -0.3201
   92SAPS  H13X 9059   6.569   4.235   7.775 -0.1102 -2.8308 -0.5154
   92SAPS  H13Y 9060   6.698   4.350   7.747 -0.7689  0.6840 -1.5285
   92SAPS  C314 9061   6.750   4.166   7.864  0.0778 -0.1655  0.4542
   92SAPS  H14X 9062   6.857   4.161   7.837  0.6878 -0.7876  2.7479
   92SAPS  H14Y 9063   6.714   4.061   7.871  1.6392 -0.6816  1.2461
   92SAPS  C315 9064   6.724   4.220   8.012 -0.3590  0.8459  0.1920
   92SAPS  H15X 9065   6.757   4.325   8.023 -0.8540  0.8975  1.3105
   92SAPS  H15Y 9066   6.786   4.166   8.087 -0.8261 -0.2636 -0.1860
   92SAPS  C316 9067   6.576   4.234   8.055  0.3004  0.6053  0.7420
   92SAPS  H16X 9068   6.520   4.139   8.043  0.1379  0.8414 -0.5013
   92SAPS  H16Y 9069   6.538   4.315   7.990  0.9763  0.1446 -0.2604
   92SAPS  C317 9070   6.562   4.265   8.209  0.1334 -0.3785  0.4720
   92SAPS  H17X 9071   6.453   4.251   8.220  0.3458 -2.3515  0.3072
   92SAPS  H17Y 9072   6.585   4.371   8.236  1.5797 -0.6252  0.3135
   92SAPS  C318 9073   6.641   4.160   8.291  0.1471  1.3684  0.1739
   92SAPS  H18X 9074   6.583   4.150   8.385 -0.7131  2.6116 -0.1986
   92SAPS  H18Y 9075   6.746   4.181   8.322  0.1201  0.8342  0.6355
   92SAPS  H18Z 9076   6.642   4.058   8.247  2.6321  0.1471  2.6778
   93SAPS     N 9077   5.681   3.541   6.068 -0.0492 -0.4960 -0.3260
   93SAPS   HN1 9078   5.627   3.630   6.057 -1.1348 -1.0550  0.2455
   93SAPS   HN2 9079   5.647   3.477   5.994 -1.8437 -0.1795  0.1763
   93SAPS   HN3 9080   5.638   3.501   6.154  2.0927  0.7711  1.4375
   93SAPS   C12 9081   5.824   3.548   6.074 -0.1482 -0.7289 -0.6464
   93SAPS  H12A 9082   5.864   3.449   6.087  2.1833  0.0182 -1.6322
   93SAPS   C13 9083   5.890   3.597   5.937 -0.2484 -0.0555 -0.4833
   93SAPS  O13A 9084   5.816   3.649   5.852  0.1222  0.1802  0.0236
   93SAPS  O13B 9085   6.014   3.584   5.916  0.3461 -0.0459 -0.5670
   93SAPS   C11 9086   5.868   3.640   6.204  0.0826 -0.6035  0.3206
   93SAPS  H11A 9087   5.835   3.744   6.183  1.1679 -0.0550  1.2147
   93SAPS  H11B 9088   5.979   3.634   6.198  0.0808  0.3899 -2.5816
   93SAPS     P 9089   5.889   3.463   6.387 -0.1036 -0.0240 -0.0074
   93SAPS   O13 9090   5.855   3.453   6.529  0.4898  0.7460 -0.3005
   93SAPS   O14 9091   5.863   3.341   6.308 -0.5982 -0.3416 -0.1248
   93SAPS   O12 9092   5.817   3.582   6.322  0.2500 -0.8825 -0.4367
   93SAPS   O11 9093   6.039   3.515   6.372  0.0642  0.2341 -0.3723
   93SAPS    C1 9094   6.159   3.450   6.421 -0.0753 -0.0191  0.5209
   93SAPS    HA 9095   6.144   3.341   6.436  0.7370 -0.3670 -1.0265
   93SAPS    HB 9096   6.239   3.465   6.346 -1.1595  2.1233 -0.3329
   93SAPS    C2 9097   6.214   3.518   6.555 -0.7261  0.5288  0.0531
   93SAPS    HS 9098   6.303   3.459   6.587 -2.3252 -0.1869  3.6751
   93SAPS   O21 9099   6.117   3.511   6.664 -0.4766  0.0999  0.1635
   93SAPS   C21 9100   6.099   3.383   6.706 -0.6234 -0.1078  0.7495
   93SAPS   O22 9101   6.160   3.288   6.661 -0.3348  0.3419  0.2499
   93SAPS   C22 9102   5.984   3.370   6.808  0.0167 -0.5538  0.3724
   93SAPS   H2R 9103   5.955   3.464   6.859 -4.0178 -1.4209  0.0048
   93SAPS   H2S 9104   5.897   3.328   6.753 -0.2933  0.6384 -0.0800
   93SAPS    C3 9105   6.242   3.665   6.537 -0.1277 -0.5326 -0.0561
   93SAPS    HX 9106   6.141   3.710   6.533 -0.9980 -2.4882 -2.7949
   93SAPS    HY 9107   6.271   3.699   6.435  2.1950 -0.9931  0.4019
   93SAPS   O31 9108   6.334   3.726   6.632  0.1200 -0.0689 -0.1311
   93SAPS   C31 9109   6.457   3.715   6.618  0.0426  0.3186  0.6111
   93SAPS   O32 9110   6.506   3.642   6.525 -0.2945 -0.0175  0.0919
   93SAPS   C32 9111   6.530   3.782   6.738  0.4225  0.7144  0.1513
   93SAPS   H2X 9112   6.500   3.888   6.755  0.4295  0.7561 -0.0956
   93SAPS   H2Y 9113   6.637   3.777   6.712  0.3118 -3.1393 -0.2535
   93SAPS   C23 9114   6.016   3.265   6.925 -0.8201  0.4842 -0.5802
   93SAPS   H3R 9115   6.059   3.180   6.869 -1.0581 -0.3082  0.4026
   93SAPS   H3S 9116   5.917   3.230   6.963  0.2843 -3.4718 -0.8426
   93SAPS   C24 9117   6.091   3.320   7.043 -0.4894  0.6530 -0.0944
   93SAPS   H4R 9118   6.091   3.240   7.120 -0.2996 -0.2630 -1.0416
   93SAPS   H4S 9119   6.032   3.398   7.097  1.6341  1.6329  0.9280
   93SAPS   C25 9120   6.237   3.358   7.023  0.8471  0.1567 -0.3285
   93SAPS   H5R 9121   6.251   3.412   6.929  0.2948  0.6184 -0.1464
   93SAPS   C26 9122   6.335   3.320   7.103  0.0645 -0.1741 -0.4886
   93SAPS   H6R 9123   6.433   3.369   7.088 -0.0194  0.3327  0.4979
   93SAPS   C27 9124   6.308   3.252   7.233  0.5126  0.3581 -0.1195
   93SAPS   H7R 9125   6.283   3.147   7.206 -1.7733  0.6208  0.7999
   93SAPS   H7S 9126   6.222   3.290   7.292  0.2050  0.2432 -0.4912
   93SAPS   C28 9127   6.432   3.239   7.320  0.1571 -0.0964  0.0285
   93SAPS   H8R 9128   6.507   3.166   7.286  0.9028 -0.4405  2.2858
   93SAPS   C29 9129   6.452   3.296   7.439  0.9785  0.2305 -0.6969
   93SAPS   H9R 9130   6.551   3.289   7.487  0.5248  1.2788  0.4587
   93SAPS  C210 9131   6.357   3.395   7.516 -0.1518  0.6441  0.6921
   93SAPS  H10R 9132   6.308   3.462   7.443  0.9374  0.5945 -0.1146
   93SAPS  H10S 9133   6.414   3.453   7.592  1.1590  0.3867 -0.0648
   93SAPS  C211 9134   6.243   3.318   7.577 -0.4711 -0.0020 -0.0850
   93SAPS  H11R 9135   6.214   3.225   7.526 -1.2462  0.0292  0.2712
   93SAPS  C212 9136   6.169   3.343   7.686  0.2018 -0.3066 -0.1118
   93SAPS  H12R 9137   6.074   3.293   7.707  0.2370  0.6086  2.5975
   93SAPS  C213 9138   6.191   3.471   7.764 -0.3676  0.3005 -1.0276
   93SAPS  H13R 9139   6.088   3.487   7.804 -0.5019 -1.4727 -0.6030
   93SAPS  H13S 9140   6.226   3.563   7.713 -1.1054 -0.0960 -2.2858
   93SAPS  C214 9141   6.295   3.452   7.879  0.4240 -0.7741  0.1473
   93SAPS  H14R 9142   6.397   3.438   7.840  1.0802 -0.1508  1.5534
   93SAPS  C215 9143   6.264   3.455   8.011  0.0602 -0.3042 -0.3821
   93SAPS  H15R 9144   6.338   3.426   8.087 -0.3537  3.6542  1.8139
   93SAPS  C216 9145   6.127   3.462   8.074 -0.1054  0.4445  0.0196
   93SAPS  H16R 9146   6.049   3.510   8.010 -0.6730 -0.8876 -0.3139
   93SAPS  H16S 9147   6.130   3.521   8.168 -0.4814 -0.6253  0.7157
   93SAPS  C217 9148   6.063   3.328   8.111 -0.4127  0.3519  0.1250
   93SAPS  H17R 9149   6.033   3.266   8.023 -1.7180 -0.7384  1.2821
   93SAPS  H17S 9150   5.963   3.349   8.155 -0.6303  2.5384 -1.2716
   93SAPS  C218 9151   6.151   3.236   8.201 -0.7272 -0.3969 -0.0307
   93SAPS  H18R 9152   6.161   3.287   8.298 -1.3641  0.0963 -0.2188
   93SAPS  H18S 9153   6.240   3.227   8.134  0.1187  1.4985  0.7875
   93SAPS  C219 9154   6.094   3.095   8.230  0.5601  0.2435  0.0371
   93SAPS  H19R 9155   6.072   3.051   8.130 -1.7051 -0.4075  0.7571
   93SAPS  H19S 9156   5.998   3.120   8.280  1.0742 -0.2244  1.2675
   93SAPS  C220 9157   6.175   2.993   8.306 -0.4043  0.0468  0.5165
   93SAPS  H20R 9158   6.264   2.968   8.244 -1.5337 -0.5061 -0.9519
   93SAPS  H20S 9159   6.112   2.906   8.333 -0.9522  0.4871  0.6616
   93SAPS  H20T 9160   6.213   3.030   8.404 -1.6777 -0.7438  1.3257
   93SAPS   C33 9161   6.511   3.708   6.871 -0.4519 -0.2699  0.6081
   93SAPS   H3X 9162   6.402   3.691   6.889 -0.6720  2.1570  2.0310
   93SAPS   H3Y 9163   6.571   3.774   6.937 -0.2355  0.4201 -0.2507
   93SAPS   C34 9164   6.582   3.574   6.874 -0.0823 -0.1011 -0.0265
   93SAPS   H4X 9165   6.651   3.572   6.786  1.3050 -1.4374  1.0293
   93SAPS   H4Y 9166   6.502   3.498   6.858  1.1425 -1.5397  0.3926
   93SAPS   C35 9167   6.638   3.545   7.013  1.3023  0.0717 -0.3719
   93SAPS   H5X 9168   6.570   3.509   7.094 -0.6835  2.4954 -0.8422
   93SAPS   H5Y 9169   6.670   3.637   7.067 -0.0944 -1.1441  2.7674
   93SAPS   C36 9170   6.749   3.447   6.999 -0.2041  0.1831  0.0725
   93SAPS   H6X 9171   6.836   3.476   6.936  0.1896 -0.9917  0.0445
   93SAPS   H6Y 9172   6.714   3.354   6.950  0.4133  0.3270 -0.6622
   93SAPS   C37 9173   6.804   3.396   7.140  0.3687  0.0939  0.2080
   93SAPS   H7X 9174   6.871   3.309   7.127 -0.5644 -0.5671 -0.3061
   93SAPS   H7Y 9175   6.715   3.358   7.195  0.7599 -2.9014 -1.0084
   93SAPS   C38 9176   6.868   3.510   7.210  0.7365  0.0829  0.3598
   93SAPS   H8X 9177   6.795   3.592   7.227  0.8941  0.3513 -0.2374
   93SAPS   H8Y 9178   6.940   3.569   7.151 -0.3447 -0.0163 -1.1122
   93SAPS   C39 9179   6.938   3.477   7.340 -0.1263 -0.5251 -0.1114
   93SAPS   H9X 9180   6.992   3.571   7.364 -2.6024  0.4135  2.2784
   93SAPS   H9Y 9181   7.017   3.400   7.330  0.3117 -0.0765 -0.1561
   93SAPS  C310 9182   6.832   3.447   7.446 -0.8912 -0.1319  0.2601
   93SAPS  H10X 9183   6.778   3.351   7.425  0.1887 -0.8425  0.6594
   93SAPS  H10Y 9184   6.754   3.526   7.445 -2.1362 -1.2438 -2.4398
   93SAPS  C311 9185   6.887   3.447   7.592  0.2376  0.2701 -0.1160
   93SAPS  H11X 9186   6.913   3.553   7.615 -1.5977  1.5066 -3.1437
   93SAPS  H11Y 9187   6.978   3.384   7.588  1.0581  1.4528 -1.0513
   93SAPS  C312 9188   6.788   3.399   7.699 -0.6996  0.4646  0.1849
   93SAPS  H12X 9189   6.741   3.305   7.663 -0.4837  0.7628 -0.9429
   93SAPS  H12Y 9190   6.699   3.461   7.725 -0.9878 -0.8874  2.6292
   93SAPS  C313 9191   6.859   3.382   7.837 -0.1346 -0.5078 -0.3782
   93SAPS  H13X 9192   6.905   3.479   7.866  0.0410 -0.4397 -0.8749
   93SAPS  H13Y 9193   6.936   3.302   7.832  0.5704  0.1374 -0.1996
   93SAPS  C314 9194   6.775   3.329   7.951  0.2503 -0.3729  0.2803
   93SAPS  H14X 9195   6.684   3.390   7.972  0.5222  0.7589 -1.5819
   93SAPS  H14Y 9196   6.840   3.342   8.040  1.2298  1.1634 -0.6277
   93SAPS  C315 9197   6.730   3.182   7.954  0.0703 -0.3184 -0.0504
   93SAPS  H15X 9198   6.818   3.124   7.920  1.5832  1.0781  1.3644
   93SAPS  H15Y 9199   6.653   3.159   7.877 -1.0937  1.9274  0.3538
   93SAPS  C316 9200   6.700   3.139   8.104 -0.1671 -0.1595 -0.1506
   93SAPS  H16X 9201   6.623   3.210   8.142 -0.8822 -0.7679 -0.4351
   93SAPS  H16Y 9202   6.781   3.153   8.178 -1.0147 -2.5031  1.3504
   93SAPS  C317 9203   6.637   3.002   8.125  0.2823  0.4099 -0.5153
   93SAPS  H17X 9204   6.704   2.917   8.101  0.1924  0.1407  0.1840
   93SAPS  H17Y 9205   6.547   3.001   8.060  0.5589 -0.4411 -0.9023
   93SAPS  C318 9206   6.582   2.976   8.264 -0.2020  0.4863 -0.0643
   93SAPS  H18X 9207   6.660   2.951   8.339  0.0553 -2.8784 -1.2988
   93SAPS  H18Y 9208   6.499   2.903   8.269 -1.7389  2.2253  1.0766
   93SAPS  H18Z 9209   6.549   3.074   8.304  1.5528  2.0856 -2.3072
   94SAPS     N 9210   2.017   2.051   6.030  0.7409  0.5127  0.2593
   94SAPS   HN1 9211   1.914   2.041   6.015  0.9439 -2.1253  0.0827
   94SAPS   HN2 9212   2.042   2.023   6.127 -1.0976  0.8741  0.8759
   94SAPS   HN3 9213   2.044   2.151   6.019 -0.1327  0.5326 -2.2346
   94SAPS   C12 9214   2.089   1.962   5.934 -0.0400 -0.4450 -0.4664
   94SAPS  H12A 9215   2.066   2.000   5.835 -0.7921  1.5043  0.3988
   94SAPS   C13 9216   2.249   1.949   5.952 -0.4957  0.6705  0.1687
   94SAPS  O13A 9217   2.312   1.999   6.054  0.2495 -0.5097  0.3354
   94SAPS  O13B 9218   2.309   1.896   5.854 -0.3612 -0.2669  0.1469
   94SAPS   C11 9219   2.034   1.823   5.956 -0.1599  0.2934  0.1106
   94SAPS  H11A 9220   2.050   1.798   6.063  2.3492 -0.0391 -0.2736
   94SAPS  H11B 9221   2.090   1.748   5.895 -0.9925 -0.3540  0.1349
   94SAPS     P 9222   1.808   1.687   5.943 -0.2247 -0.2129  0.2701
   94SAPS   O13 9223   1.662   1.718   5.936  0.1643 -0.4656 -0.4838
   94SAPS   O14 9224   1.858   1.575   5.860  0.2250 -0.4345  0.0069
   94SAPS   O12 9225   1.895   1.822   5.911 -0.7467  0.0373 -0.1987
   94SAPS   O11 9226   1.841   1.675   6.098 -0.2795  0.1281 -0.4023
   94SAPS    C1 9227   1.820   1.782   6.190 -0.1209 -0.1794 -0.0045
   94SAPS    HA 9228   1.897   1.862   6.185  0.7001 -0.9323  0.2541
   94SAPS    HB 9229   1.725   1.837   6.176 -1.3470 -1.5936  2.1304
   94SAPS    C2 9230   1.828   1.722   6.326 -0.5746 -0.0725 -0.6095
   94SAPS    HS 9231   1.749   1.645   6.335 -1.2264  0.7756  1.7492
   94SAPS   O21 9232   1.806   1.827   6.420  0.0793 -0.1162  0.1992
   94SAPS   C21 9233   1.685   1.875   6.426  0.3473  0.2715  0.2424
   94SAPS   O22 9234   1.589   1.835   6.360 -0.4610  0.1493 -0.0519
   94SAPS   C22 9235   1.675   1.970   6.548 -0.0394 -0.4141  0.4389
   94SAPS   H2R 9236   1.774   1.996   6.590 -0.0342 -0.9974  0.8097
   94SAPS   H2S 9237   1.644   2.067   6.504  0.8970 -0.7299 -1.0166
   94SAPS    C3 9238   1.969   1.658   6.355  0.2405  0.0128  0.4356
   94SAPS    HX 9239   2.051   1.719   6.310 -0.4084 -0.4787 -1.4709
   94SAPS    HY 9240   1.971   1.562   6.301  1.2947  0.9772 -1.3184
   94SAPS   O31 9241   2.007   1.631   6.489 -0.1024  0.4538  0.1206
   94SAPS   C31 9242   1.931   1.544   6.556  0.2240 -0.0984 -0.2696
   94SAPS   O32 9243   1.847   1.470   6.500 -0.9226  0.1157 -0.4019
   94SAPS   C32 9244   1.969   1.548   6.704 -1.0014  0.6593 -0.8694
   94SAPS   H2X 9245   1.926   1.642   6.747 -0.3232  1.1583 -1.2744
   94SAPS   H2Y 9246   2.079   1.553   6.715 -1.2422  2.1725  1.8665
   94SAPS   C23 9247   1.585   1.925   6.661 -0.0757 -0.0827 -0.3228
   94SAPS   H3R 9248   1.497   1.872   6.620 -0.4966  0.9293 -0.7582
   94SAPS   H3S 9249   1.534   2.005   6.719 -1.4200 -0.8628 -0.3883
   94SAPS   C24 9250   1.647   1.818   6.754 -0.5183 -0.1999  0.1688
   94SAPS   H4R 9251   1.694   1.735   6.697 -1.3091 -2.1014  2.1545
   94SAPS   H4S 9252   1.571   1.770   6.819 -2.6114  1.7666 -0.6656
   94SAPS   C25 9253   1.763   1.879   6.835  0.1902  0.2450  0.1467
   94SAPS   H5R 9254   1.844   1.936   6.786  0.5086  0.5414  1.0058
   94SAPS   C26 9255   1.770   1.872   6.968 -0.0872 -0.2040 -0.3332
   94SAPS   H6R 9256   1.863   1.908   7.014  1.4240 -1.2603 -2.4018
   94SAPS   C27 9257   1.675   1.814   7.066 -0.0111  0.7850 -0.2201
   94SAPS   H7R 9258   1.730   1.769   7.152 -0.3865 -0.9544 -0.8512
   94SAPS   H7S 9259   1.616   1.731   7.021  1.0521  1.7351 -3.6193
   94SAPS   C28 9260   1.570   1.911   7.107  0.0787  0.4736 -0.5693
   94SAPS   H8R 9261   1.497   1.942   7.030 -0.6376 -3.3447 -1.6400
   94SAPS   C29 9262   1.518   1.922   7.233  0.3236 -0.1326  0.1522
   94SAPS   H9R 9263   1.440   1.999   7.246 -2.9138 -3.1908  0.4279
   94SAPS  C210 9264   1.556   1.849   7.361 -1.1222 -0.4102  0.2607
   94SAPS  H10R 9265   1.574   1.920   7.444  2.4556  0.6349 -1.1998
   94SAPS  H10S 9266   1.655   1.798   7.357 -0.9551 -0.2370  1.6297
   94SAPS  C211 9267   1.460   1.743   7.407  0.8153 -0.5587  0.3518
   94SAPS  H11R 9268   1.457   1.658   7.338 -0.1403 -1.4324  1.4102
   94SAPS  C212 9269   1.390   1.731   7.523  0.1477  0.6599 -0.3425
   94SAPS  H12R 9270   1.333   1.638   7.534  0.0319  0.6312 -1.1219
   94SAPS  C213 9271   1.397   1.821   7.644 -0.4822 -0.4607  0.2990
   94SAPS  H13R 9272   1.380   1.926   7.612 -0.3975 -0.0317  1.5991
   94SAPS  H13S 9273   1.490   1.810   7.703  0.2348 -1.8053 -1.0157
   94SAPS  C214 9274   1.275   1.785   7.727  0.5289  0.8407 -0.3553
   94SAPS  H14R 9275   1.178   1.781   7.674 -1.5593  1.6352  3.0802
   94SAPS  C215 9276   1.270   1.754   7.857  0.0375  0.3157  0.5188
   94SAPS  H15R 9277   1.174   1.732   7.904  0.3801  1.7656  1.9789
   94SAPS  C216 9278   1.388   1.745   7.953  0.9880  0.1317 -0.2639
   94SAPS  H16R 9279   1.380   1.838   8.013  0.1992  0.2841 -0.5919
   94SAPS  H16S 9280   1.486   1.734   7.904  0.3853  1.5874 -1.8686
   94SAPS  C217 9281   1.363   1.623   8.048  0.4402 -0.2186  0.4485
   94SAPS  H17R 9282   1.261   1.616   8.092  0.4071 -0.5487  0.3250
   94SAPS  H17S 9283   1.442   1.634   8.126  2.5573  0.8269 -1.7352
   94SAPS  C218 9284   1.393   1.491   7.979 -0.0061  0.1570  0.3470
   94SAPS  H18R 9285   1.491   1.490   7.926 -0.4910 -1.5467 -0.5910
   94SAPS  H18S 9286   1.322   1.476   7.895 -1.0830  0.1256  1.2336
   94SAPS  C219 9287   1.381   1.368   8.076 -0.0895  0.4894 -0.6205
   94SAPS  H19R 9288   1.385   1.270   8.025 -0.7108 -0.3947  0.9339
   94SAPS  H19S 9289   1.283   1.366   8.130  0.9506  0.3697  1.3816
   94SAPS  C220 9290   1.490   1.355   8.187  0.5010 -0.0197  0.5669
   94SAPS  H20R 9291   1.594   1.348   8.149  1.6544 -0.8178  3.5557
   94SAPS  H20S 9292   1.471   1.264   8.248  0.3705  0.2028  0.8638
   94SAPS  H20T 9293   1.480   1.446   8.250 -1.5218  0.8183 -0.8430
   94SAPS   C33 9294   1.922   1.423   6.785 -0.0259  0.7610  0.6036
   94SAPS   H3X 9295   2.004   1.347   6.787  0.6908  1.5035  0.1145
   94SAPS   H3Y 9296   1.831   1.390   6.731 -0.6064  2.1359  0.7052
   94SAPS   C34 9297   1.897   1.444   6.935 -0.3195  0.2396 -0.0673
   94SAPS   H4X 9298   1.808   1.509   6.947 -0.5786 -0.0295 -0.5069
   94SAPS   H4Y 9299   1.989   1.497   6.968 -0.4815  0.4282  0.0848
   94SAPS   C35 9300   1.865   1.317   7.013  0.3487  0.5212 -0.0551
   94SAPS   H5X 9301   1.937   1.236   6.990  1.1720  1.2438 -0.0497
   94SAPS   H5Y 9302   1.767   1.272   6.987  0.9567 -1.2610  0.6150
   94SAPS   C36 9303   1.849   1.335   7.166 -0.2615  0.6322  0.3731
   94SAPS   H6X 9304   1.817   1.240   7.214  1.1924 -0.3789 -0.5655
   94SAPS   H6Y 9305   1.761   1.402   7.178  0.5737  1.9540 -0.5505
   94SAPS   C37 9306   1.959   1.398   7.243 -0.7120 -0.7313  0.5657
   94SAPS   H7X 9307   1.992   1.488   7.187  1.1099 -1.7595 -0.0882
   94SAPS   H7Y 9308   2.047   1.332   7.260  1.9901  2.6363  0.6396
   94SAPS   C38 9309   1.902   1.449   7.378  0.0212 -0.0312 -0.2419
   94SAPS   H8X 9310   1.851   1.362   7.424 -1.6276 -0.3703 -2.5038
   94SAPS   H8Y 9311   1.838   1.539   7.372  0.1331  0.1805  1.3778
   94SAPS   C39 9312   2.020   1.486   7.469 -0.0045 -0.0629 -0.2971
   94SAPS   H9X 9313   2.093   1.549   7.415  0.8616  0.3870  1.3403
   94SAPS   H9Y 9314   2.065   1.388   7.497  0.2127 -0.1159 -0.8209
   94SAPS  C310 9315   1.990   1.573   7.590 -0.1795  0.0466  0.1966
   94SAPS  H10X 9316   1.921   1.525   7.664  0.5805 -2.3501 -0.5413
   94SAPS  H10Y 9317   1.950   1.665   7.543  0.3219  0.0025 -0.3193
   94SAPS  C311 9318   2.116   1.612   7.672  0.6488 -0.0709  0.1894
   94SAPS  H11X 9319   2.191   1.660   7.606  0.1588  0.8351  0.2790
   94SAPS  H11Y 9320   2.153   1.509   7.693 -2.4029 -1.0176  1.4375
   94SAPS  C312 9321   2.081   1.676   7.804 -0.4873 -0.2226 -1.0191
   94SAPS  H12X 9322   2.005   1.616   7.859  1.3255 -2.5712 -0.8857
   94SAPS  H12Y 9323   2.032   1.772   7.778  1.0238  1.7049  2.5879
   94SAPS  C313 9324   2.203   1.711   7.893 -0.4852  0.9240 -0.1220
   94SAPS  H13X 9325   2.280   1.777   7.848 -1.9410  2.9357  0.2058
   94SAPS  H13Y 9326   2.245   1.613   7.925 -3.3526  0.0714  1.4668
   94SAPS  C314 9327   2.153   1.785   8.021  0.1551 -0.0936  0.7682
   94SAPS  H14X 9328   2.234   1.783   8.098  0.7541 -0.0814  0.1446
   94SAPS  H14Y 9329   2.062   1.734   8.060 -0.9705  0.1404 -1.3909
   94SAPS  C315 9330   2.125   1.930   7.980 -0.0319 -0.4089 -0.4053
   94SAPS  H15X 9331   2.028   1.948   7.929  0.3283 -1.5895 -1.5673
   94SAPS  H15Y 9332   2.201   1.956   7.903 -0.7956 -0.9259 -1.3538
   94SAPS  C316 9333   2.128   2.028   8.101 -0.2165 -0.5900 -0.0625
   94SAPS  H16X 9334   2.080   1.982   8.190  1.6035  1.5642  2.1646
   94SAPS  H16Y 9335   2.074   2.119   8.068  0.3681 -0.6204 -1.1532
   94SAPS  C317 9336   2.266   2.076   8.145  0.0387  0.3826  0.6296
   94SAPS  H17X 9337   2.318   2.143   8.074  1.5703 -0.9375  0.4402
   94SAPS  H17Y 9338   2.320   1.980   8.160 -5.0207 -2.7566  1.5003
   94SAPS  C318 9339   2.252   2.155   8.282 -0.2386 -0.4657 -0.0136
   94SAPS  H18X 9340   2.356   2.176   8.315  0.0620 -0.2465 -1.0554
   94SAPS  H18Y 9341   2.194   2.092   8.352 -0.2377  0.2540  0.6549
   94SAPS  H18Z 9342   2.210   2.258   8.278  0.6161 -0.1214 -0.5959
   95SAPS     N 9343   5.394   3.810   6.324 -0.3984  0.0845 -0.4506
   95SAPS   HN1 9344   5.357   3.884   6.387  1.9102  1.8700 -1.0750
   95SAPS   HN2 9345   5.376   3.713   6.358  1.4964  0.3642  1.6135
   95SAPS   HN3 9346   5.496   3.832   6.325 -0.1825 -0.1909  3.7336
   95SAPS   C12 9347   5.339   3.833   6.189  0.8786 -0.1033 -0.5569
   95SAPS  H12A 9348   5.333   3.939   6.172  0.2590 -0.1852 -0.9085
   95SAPS   C13 9349   5.417   3.782   6.064 -0.0037 -0.1778 -0.6601
   95SAPS  O13A 9350   5.537   3.761   6.072 -0.6377  0.1707 -0.1856
   95SAPS  O13B 9351   5.370   3.810   5.955 -0.0306  0.1173 -0.8257
   95SAPS   C11 9352   5.192   3.781   6.191  0.5147 -0.2401  0.6115
   95SAPS  H11A 9353   5.199   3.670   6.180 -1.1912 -0.4494  1.3225
   95SAPS  H11B 9354   5.147   3.820   6.097  0.2087 -2.0922 -0.0576
   95SAPS     P 9355   4.962   3.827   6.310 -0.1830 -0.2335  0.0828
   95SAPS   O13 9356   4.902   3.950   6.241 -0.9227  0.2358 -0.0909
   95SAPS   O14 9357   4.911   3.692   6.271 -0.2061 -0.0081  0.9578
   95SAPS   O12 9358   5.116   3.828   6.302  0.6344 -0.3617 -0.4325
   95SAPS   O11 9359   4.938   3.843   6.466 -0.0924  0.3193  0.5254
   95SAPS    C1 9360   4.999   3.755   6.558  0.5989 -0.0398 -0.3253
   95SAPS    HA 9361   4.962   3.652   6.539  2.0603 -1.0427  1.8873
   95SAPS    HB 9362   5.109   3.748   6.540  0.5713 -0.2213 -0.4263
   95SAPS    C2 9363   4.974   3.798   6.704 -0.0682  0.1397 -0.3433
   95SAPS    HS 9364   5.007   3.720   6.776 -3.9065  1.0411  2.7713
   95SAPS   O21 9365   4.830   3.800   6.719  0.5764 -0.3496  0.7634
   95SAPS   C21 9366   4.767   3.685   6.717  0.4538 -0.0110  0.0510
   95SAPS   O22 9367   4.819   3.574   6.714  0.1860  0.1244 -0.2379
   95SAPS   C22 9368   4.628   3.715   6.735  0.4564  0.6846  0.6407
   95SAPS   H2R 9369   4.594   3.777   6.650  1.6286 -0.6785 -0.8934
   95SAPS   H2S 9370   4.561   3.626   6.727  0.1167  1.0211 -0.3087
   95SAPS    C3 9371   5.038   3.934   6.731  0.5432 -0.4338 -0.4857
   95SAPS    HX 9372   5.015   4.010   6.654 -0.3043  0.7093  0.8473
   95SAPS    HY 9373   5.147   3.911   6.733  0.5901 -0.1856  0.1362
   95SAPS   O31 9374   4.999   3.978   6.864  0.1918  0.0238  0.6665
   95SAPS   C31 9375   4.893   4.053   6.867  0.4868  0.0096  1.1054
   95SAPS   O32 9376   4.832   4.100   6.770  0.2619 -0.2785  0.0191
   95SAPS   C32 9377   4.848   4.082   7.014  0.7334  0.7587 -1.4550
   95SAPS   H2X 9378   4.742   4.112   7.001 -0.6671 -3.0572 -0.0997
   95SAPS   H2Y 9379   4.904   4.173   7.044 -0.7402  1.1176  0.3724
   95SAPS   C23 9380   4.603   3.798   6.869 -0.0628 -1.2174  0.0195
   95SAPS   H3R 9381   4.509   3.851   6.845  0.1851 -0.5493  0.4958
   95SAPS   H3S 9382   4.675   3.881   6.886  0.8101 -2.1851  1.2769
   95SAPS   C24 9383   4.578   3.710   6.991  0.8173  0.5125  0.5023
   95SAPS   H4R 9384   4.559   3.786   7.071 -0.7117  2.8944 -1.9478
   95SAPS   H4S 9385   4.671   3.654   7.014 -0.3593 -2.4259 -1.4122
   95SAPS   C25 9386   4.461   3.618   6.989  0.2046 -0.0848 -0.1631
   95SAPS   H5R 9387   4.384   3.643   6.914  0.5109  0.8897 -0.1580
   95SAPS   C26 9388   4.435   3.505   7.058 -0.2413 -0.1390  0.4485
   95SAPS   H6R 9389   4.342   3.455   7.028  0.1489  0.0899 -1.2727
   95SAPS   C27 9390   4.528   3.445   7.153  0.5600  0.3494  0.2218
   95SAPS   H7R 9391   4.632   3.434   7.117  1.1054  2.7016  0.9492
   95SAPS   H7S 9392   4.483   3.346   7.178  1.0551  0.6283  2.3755
   95SAPS   C28 9393   4.534   3.511   7.285  0.3062  0.2243  0.7740
   95SAPS   H8R 9394   4.607   3.593   7.293  3.3709 -1.8729 -2.4335
   95SAPS   C29 9395   4.461   3.486   7.400 -0.2017 -0.6366  0.5473
   95SAPS   H9R 9396   4.471   3.546   7.491 -2.2600  0.1446  0.3168
   95SAPS  C210 9397   4.358   3.381   7.418  0.7375 -0.2554  0.5173
   95SAPS  H10R 9398   4.370   3.306   7.337 -2.1254 -1.4656  1.0990
   95SAPS  H10S 9399   4.253   3.414   7.404  0.7436 -1.0473 -1.8224
   95SAPS  C211 9400   4.377   3.303   7.547 -0.1757  0.2183  0.8729
   95SAPS  H11R 9401   4.469   3.243   7.552 -1.0836 -1.2007  1.3492
   95SAPS  C212 9402   4.298   3.292   7.654 -0.2175 -0.1507 -0.4283
   95SAPS  H12R 9403   4.326   3.237   7.745  0.0165  0.4275 -0.1439
   95SAPS  C213 9404   4.171   3.370   7.669 -0.1569 -0.7303  0.5140
   95SAPS  H13R 9405   4.143   3.436   7.584 -0.3047  0.1815  1.2531
   95SAPS  H13S 9406   4.174   3.447   7.748  2.1245  0.5237 -0.7105
   95SAPS  C214 9407   4.067   3.258   7.684 -0.0107  0.2843 -0.3666
   95SAPS  H14R 9408   4.038   3.200   7.595  2.5445  2.1844 -2.6273
   95SAPS  C215 9409   4.021   3.216   7.803  0.1543 -0.2852  0.1657
   95SAPS  H15R 9410   3.936   3.147   7.797 -1.7711  1.9327  0.7856
   95SAPS  C216 9411   4.052   3.282   7.933  0.0348 -0.0977 -0.3670
   95SAPS  H16R 9412   3.988   3.248   8.017 -0.2320  0.1668 -0.4616
   95SAPS  H16S 9413   4.039   3.392   7.928 -1.9671 -0.2407  0.6561
   95SAPS  C217 9414   4.195   3.246   7.986  1.1404 -0.1803 -0.2138
   95SAPS  H17R 9415   4.277   3.290   7.925  0.0377  1.3597 -0.6389
   95SAPS  H17S 9416   4.205   3.136   7.993 -0.6604 -0.4404 -1.1398
   95SAPS  C218 9417   4.212   3.295   8.132  0.5918 -0.2433 -0.1923
   95SAPS  H18R 9418   4.308   3.261   8.176 -0.2654 -1.4878  0.7765
   95SAPS  H18S 9419   4.138   3.246   8.199  1.3147 -0.1651  0.6746
   95SAPS  C219 9420   4.192   3.444   8.165 -0.7145 -0.5001 -0.6090
   95SAPS  H19R 9421   4.095   3.475   8.121 -0.7327  0.4463  0.0612
   95SAPS  H19S 9422   4.279   3.489   8.112 -0.4492 -1.5858 -1.1093
   95SAPS  C220 9423   4.191   3.461   8.315 -0.0720  0.0074 -0.4608
   95SAPS  H20R 9424   4.297   3.449   8.346  0.7388 -0.0451 -2.9989
   95SAPS  H20S 9425   4.122   3.394   8.371  0.3789 -0.1065 -0.0359
   95SAPS  H20T 9426   4.174   3.570   8.330 -0.8766  0.6950 -4.8701
   95SAPS   C33 9427   4.845   3.966   7.123 -0.3753 -0.0043  0.5590
   95SAPS   H3X 9428   4.945   3.918   7.118 -0.2632  0.2448  0.4028
   95SAPS   H3Y 9429   4.768   3.889   7.097 -0.0203  0.6980 -3.0402
   95SAPS   C34 9430   4.817   4.010   7.270 -0.3898 -0.1641  0.3089
   95SAPS   H4X 9431   4.715   4.052   7.279 -0.2349  0.6392 -1.3597
   95SAPS   H4Y 9432   4.891   4.090   7.292 -1.1187  0.4372  0.6303
   95SAPS   C35 9433   4.824   3.891   7.370 -0.5112  0.1497  1.2839
   95SAPS   H5X 9434   4.920   3.837   7.357 -0.4950  0.2131  1.1410
   95SAPS   H5Y 9435   4.743   3.818   7.348 -0.4604  0.1919  0.9443
   95SAPS   C36 9436   4.816   3.940   7.509 -0.1048  0.0876 -0.3874
   95SAPS   H6X 9437   4.732   4.009   7.531  1.1012  1.4743  0.0533
   95SAPS   H6Y 9438   4.913   3.994   7.517  0.8026 -1.0709 -2.8257
   95SAPS   C37 9439   4.821   3.828   7.616 -0.3380  0.2091  1.0348
   95SAPS   H7X 9440   4.900   3.758   7.580  1.1276  2.5990 -0.6717
   95SAPS   H7Y 9441   4.723   3.776   7.613 -1.3826  2.1738 -0.2484
   95SAPS   C38 9442   4.843   3.884   7.755 -0.7873  0.0175 -0.0829
   95SAPS   H8X 9443   4.778   3.973   7.772  0.0288  0.0655  3.3668
   95SAPS   H8Y 9444   4.947   3.921   7.761 -1.0933  0.9593 -0.3682
   95SAPS   C39 9445   4.804   3.772   7.854  0.4539 -0.2088 -0.4102
   95SAPS   H9X 9446   4.894   3.707   7.860  0.9843  0.5949  0.6494
   95SAPS   H9Y 9447   4.719   3.706   7.826 -0.5728  0.3297  1.2862
   95SAPS  C310 9448   4.786   3.811   8.007  0.0906  0.7585  0.4623
   95SAPS  H10X 9449   4.706   3.887   8.016 -0.5621  0.2686 -0.9465
   95SAPS  H10Y 9450   4.879   3.860   8.046  1.0494 -1.0261  0.5105
   95SAPS  C311 9451   4.751   3.690   8.084  0.2211  0.1732 -0.3682
   95SAPS  H11X 9452   4.835   3.617   8.082 -1.2761 -1.6509  0.3313
   95SAPS  H11Y 9453   4.667   3.630   8.043  1.0695 -1.1627 -0.2197
   95SAPS  C312 9454   4.709   3.720   8.231 -0.4892  0.1350  0.0772
   95SAPS  H12X 9455   4.686   3.829   8.234  0.2032  0.2948 -0.3008
   95SAPS  H12Y 9456   4.783   3.690   8.308 -0.9221  0.1835  0.5194
   95SAPS  C313 9457   4.575   3.648   8.264 -0.1752 -0.2932  0.0050
   95SAPS  H13X 9458   4.572   3.538   8.252 -3.1064 -0.2467 -0.2905
   95SAPS  H13Y 9459   4.511   3.685   8.181 -0.5278  0.4726  0.6120
   95SAPS  C314 9460   4.523   3.694   8.398  0.2045  0.1078  0.1099
   95SAPS  H14X 9461   4.614   3.691   8.463  0.8106 -1.3366 -0.7734
   95SAPS  H14Y 9462   4.440   3.641   8.449 -2.0947  2.2112 -1.2458
   95SAPS  C315 9463   4.484   3.841   8.399  0.1535  0.5719 -0.2048
   95SAPS  H15X 9464   4.399   3.850   8.328 -0.4816 -1.0060  0.2994
   95SAPS  H15Y 9465   4.567   3.910   8.374  0.1170  0.0402 -1.9037
   95SAPS  C316 9466   4.436   3.885   8.537 -0.1633  0.1961  0.0459
   95SAPS  H16X 9467   4.499   3.849   8.622 -0.5516 -1.1336 -0.2096
   95SAPS  H16Y 9468   4.337   3.836   8.548 -1.3956  2.2510 -1.2489
   95SAPS  C317 9469   4.406   4.033   8.562 -0.2901 -0.0661  0.0524
   95SAPS  H17X 9470   4.333   4.046   8.644 -1.8201  0.5330 -1.3392
   95SAPS  H17Y 9471   4.348   4.077   8.478 -1.2468 -0.3456  0.5463
   95SAPS  C318 9472   4.532   4.111   8.593 -0.3361 -0.3605 -0.1566
   95SAPS  H18X 9473   4.560   4.105   8.700  1.6111  1.3962 -0.5149
   95SAPS  H18Y 9474   4.530   4.220   8.574 -1.1738 -0.5842 -1.4480
   95SAPS  H18Z 9475   4.611   4.068   8.528  0.2233  0.7514 -0.2260
   96SAPS     N 9476   4.739   5.267   5.907 -0.3544  0.1627 -0.3801
   96SAPS   HN1 9477   4.836   5.240   5.884 -0.3517 -0.8905  0.7701
   96SAPS   HN2 9478   4.707   5.202   5.981 -1.0947  0.4441 -0.4355
   96SAPS   HN3 9479   4.667   5.262   5.831 -3.4280  0.3169  2.3109
   96SAPS   C12 9480   4.750   5.412   5.925 -0.1978  0.5897  0.6230
   96SAPS  H12A 9481   4.844   5.447   5.887 -1.1382  3.2687  0.5333
   96SAPS   C13 9482   4.644   5.499   5.857  0.5353  0.4809 -0.1037
   96SAPS  O13A 9483   4.571   5.453   5.764 -0.7872 -0.7403  0.1863
   96SAPS  O13B 9484   4.670   5.625   5.868 -0.2036  0.3879 -0.3321
   96SAPS   C11 9485   4.776   5.447   6.076 -0.2998 -0.4664  0.6190
   96SAPS  H11A 9486   4.684   5.420   6.132 -0.4520  1.2533  1.2517
   96SAPS  H11B 9487   4.799   5.555   6.085 -2.0800 -0.0884  1.0258
   96SAPS     P 9488   4.999   5.423   6.204  0.0928 -0.1656  0.7154
   96SAPS   O13 9489   5.086   5.304   6.227 -0.5594  0.0776 -0.2686
   96SAPS   O14 9490   5.056   5.540   6.138  0.1476 -0.5042 -0.3886
   96SAPS   O12 9491   4.881   5.366   6.121  0.4336 -1.0074  0.2708
   96SAPS   O11 9492   4.926   5.473   6.336  0.5753 -0.7141  0.0678
   96SAPS    C1 9493   4.854   5.374   6.415  0.2400  0.5257  0.4234
   96SAPS    HA 9494   4.745   5.390   6.400  0.1642 -0.5523 -0.3141
   96SAPS    HB 9495   4.870   5.267   6.388  1.2927  0.4056  1.4670
   96SAPS    C2 9496   4.887   5.387   6.569  0.1876  0.0047 -0.1928
   96SAPS    HS 9497   4.821   5.309   6.613 -2.6356  1.8985 -0.8035
   96SAPS   O21 9498   4.856   5.519   6.612 -0.1359  0.4600 -0.4211
   96SAPS   C21 9499   4.809   5.523   6.745  1.0910  0.3496 -0.1559
   96SAPS   O22 9500   4.789   5.421   6.814  0.1617 -0.4320 -0.1923
   96SAPS   C22 9501   4.770   5.667   6.770 -0.0230 -0.2083  0.0939
   96SAPS   H2R 9502   4.861   5.732   6.771 -0.8226  0.9431  0.5559
   96SAPS   H2S 9503   4.716   5.709   6.682  0.1725  0.0789  0.1072
   96SAPS    C3 9504   5.033   5.359   6.592 -0.4630 -0.2378 -0.8068
   96SAPS    HX 9505   5.094   5.438   6.542  0.0598  0.2695  0.5824
   96SAPS    HY 9506   5.059   5.269   6.533 -1.8684 -0.2720 -1.4015
   96SAPS   O31 9507   5.066   5.348   6.732  0.1439  0.1155 -0.0140
   96SAPS   C31 9508   5.098   5.239   6.783 -0.0573  0.7494 -1.1147
   96SAPS   O32 9509   5.110   5.128   6.732  0.0021 -0.5424  0.1869
   96SAPS   C32 9510   5.102   5.254   6.938  0.0845  0.5775  0.1991
   96SAPS   H2X 9511   5.006   5.213   6.977  0.1359 -1.8799 -2.0263
   96SAPS   H2Y 9512   5.115   5.359   6.972 -0.7504  0.7496 -0.0101
   96SAPS   C23 9513   4.710   5.686   6.912 -0.6856 -0.3343  0.5916
   96SAPS   H3R 9514   4.645   5.599   6.934 -0.0843 -0.3848  2.3020
   96SAPS   H3S 9515   4.644   5.774   6.923  0.0528  0.1415  1.3583
   96SAPS   C24 9516   4.823   5.705   7.017 -0.0464 -0.3869  0.5881
   96SAPS   H4R 9517   4.869   5.805   6.999 -1.1659 -0.2626 -1.8897
   96SAPS   H4S 9518   4.904   5.630   7.021  0.9526  0.6322  0.1346
   96SAPS   C25 9519   4.764   5.701   7.150  0.3117 -0.1871 -0.1183
   96SAPS   H5R 9520   4.717   5.795   7.183 -0.1168 -0.0392 -1.0832
   96SAPS   C26 9521   4.759   5.598   7.230  0.5389  0.2520 -0.7069
   96SAPS   H6R 9522   4.718   5.615   7.330  2.0240  0.8720 -0.1723
   96SAPS   C27 9523   4.806   5.458   7.193  0.4473 -0.5457 -0.8480
   96SAPS   H7R 9524   4.911   5.443   7.225  0.1872  1.8313  1.4800
   96SAPS   H7S 9525   4.809   5.448   7.082 -0.3358 -0.3492 -0.8968
   96SAPS   C28 9526   4.727   5.349   7.260  0.2417 -0.2025  0.0016
   96SAPS   H8R 9527   4.649   5.309   7.194  0.6754 -1.5584  0.2753
   96SAPS   C29 9528   4.730   5.310   7.393 -0.8050  0.7197 -0.5927
   96SAPS   H9R 9529   4.665   5.223   7.413 -1.3740  1.2939  0.0891
   96SAPS  C210 9530   4.817   5.364   7.504  0.0878  0.5647 -0.2345
   96SAPS  H10R 9531   4.749   5.402   7.583 -0.8383 -0.0766 -0.7023
   96SAPS  H10S 9532   4.879   5.450   7.473 -0.0997  1.5897  2.0418
   96SAPS  C211 9533   4.906   5.255   7.565 -0.2476 -0.4404 -0.6667
   96SAPS  H11R 9534   4.937   5.185   7.486 -1.5542 -2.9435  0.9266
   96SAPS  C212 9535   4.934   5.232   7.692  0.6995  0.1801 -0.0464
   96SAPS  H12R 9536   4.997   5.147   7.722  0.4037  0.0876  0.3161
   96SAPS  C213 9537   4.903   5.310   7.820 -0.4396 -0.1875 -0.0641
   96SAPS  H13R 9538   4.836   5.394   7.796  1.7988  1.3890 -1.1811
   96SAPS  H13S 9539   5.002   5.344   7.858  0.6047 -2.9607 -0.0686
   96SAPS  C214 9540   4.852   5.218   7.925 -0.6549  0.4315 -0.8666
   96SAPS  H14R 9541   4.743   5.206   7.931 -0.4136 -1.3251  3.1132
   96SAPS  C215 9542   4.926   5.133   8.006 -0.2033 -0.2330  0.3912
   96SAPS  H15R 9543   4.877   5.071   8.082  0.3923 -1.8951 -0.5211
   96SAPS  C216 9544   5.075   5.112   8.002  0.1980  0.1983  0.3675
   96SAPS  H16R 9545   5.122   5.173   7.922 -1.0058 -0.2169 -0.6922
   96SAPS  H16S 9546   5.098   5.004   7.986 -1.0852 -0.5308  2.8577
   96SAPS  C217 9547   5.145   5.152   8.124  0.0016 -0.1098 -0.7513
   96SAPS  H17R 9548   5.238   5.091   8.138  0.6169  1.4278  2.9221
   96SAPS  H17S 9549   5.089   5.128   8.217  0.3002 -1.7096 -0.9484
   96SAPS  C218 9550   5.194   5.299   8.129  0.1847  0.5710 -0.0469
   96SAPS  H18R 9551   5.112   5.373   8.127  0.4649  0.9767  1.7901
   96SAPS  H18S 9552   5.247   5.313   8.033 -2.4440  0.1087 -1.6522
   96SAPS  C219 9553   5.294   5.337   8.241 -0.5710  0.2776 -0.4399
   96SAPS  H19R 9554   5.382   5.394   8.204 -0.4332  1.3961  1.5055
   96SAPS  H19S 9555   5.352   5.246   8.266  0.8068  0.7088 -1.8808
   96SAPS  C220 9556   5.228   5.391   8.367  0.0245  0.4436 -0.5422
   96SAPS  H20R 9557   5.194   5.494   8.345 -2.3125 -0.1085  0.1163
   96SAPS  H20S 9558   5.293   5.391   8.457 -1.3336 -2.7375  0.6073
   96SAPS  H20T 9559   5.137   5.337   8.403 -0.9865  0.5496 -2.7894
   96SAPS   C33 9560   5.208   5.164   7.013  0.3198 -0.3197  0.9042
   96SAPS   H3X 9561   5.306   5.179   6.963  0.2255  0.5699  0.9754
   96SAPS   H3Y 9562   5.202   5.053   7.005 -1.3518 -0.4995  3.5374
   96SAPS   C34 9563   5.212   5.196   7.164 -0.7491  0.6436  0.1952
   96SAPS   H4X 9564   5.110   5.182   7.206 -0.1647 -2.0712  0.8942
   96SAPS   H4Y 9565   5.228   5.305   7.182  0.0198  0.6977 -0.7441
   96SAPS   C35 9566   5.306   5.102   7.231  0.8329 -0.0969  0.5648
   96SAPS   H5X 9567   5.407   5.145   7.248  1.0643  0.8481 -2.6358
   96SAPS   H5Y 9568   5.327   5.012   7.169  2.6331  1.2076 -0.7949
   96SAPS   C36 9569   5.243   5.047   7.358  0.4002 -0.5359 -0.4154
   96SAPS   H6X 9570   5.306   4.964   7.394  0.6457  0.8631  2.7162
   96SAPS   H6Y 9571   5.149   4.993   7.332 -1.3825  1.0066  2.2404
   96SAPS   C37 9572   5.220   5.144   7.479  0.3190 -0.1937  0.2785
   96SAPS   H7X 9573   5.186   5.083   7.565  0.6847  1.2381  1.4813
   96SAPS   H7Y 9574   5.132   5.206   7.453  0.5556 -0.5191 -1.4321
   96SAPS   C38 9575   5.335   5.235   7.531 -0.0480 -0.3918  0.6467
   96SAPS   H8X 9576   5.339   5.322   7.462  0.5037 -1.2938 -0.4936
   96SAPS   H8Y 9577   5.428   5.173   7.524  0.3175  0.1573  0.6032
   96SAPS   C39 9578   5.310   5.291   7.671  0.7493 -0.1359 -0.1620
   96SAPS   H9X 9579   5.309   5.206   7.742  2.0168 -0.3539 -0.3782
   96SAPS   H9Y 9580   5.209   5.336   7.663  1.5538  2.2491  1.7901
   96SAPS  C310 9581   5.420   5.395   7.694  0.5791  0.0639  0.1524
   96SAPS  H10X 9582   5.417   5.484   7.629 -1.0267  0.1359  0.2956
   96SAPS  H10Y 9583   5.523   5.356   7.677  0.4059  0.0133 -0.7971
   96SAPS  C311 9584   5.403   5.439   7.838  0.3441 -0.2121 -0.2248
   96SAPS  H11X 9585   5.427   5.355   7.907  0.7108 -1.7196 -2.0876
   96SAPS  H11Y 9586   5.303   5.477   7.866  0.4205 -1.3863  1.8438
   96SAPS  C312 9587   5.508   5.539   7.872  0.2147 -0.0001 -0.5731
   96SAPS  H12X 9588   5.497   5.640   7.826 -1.6798 -0.1466 -0.4976
   96SAPS  H12Y 9589   5.608   5.496   7.850 -0.7949 -3.0100  0.2704
   96SAPS  C313 9590   5.510   5.563   8.022 -0.0280  0.1970  0.8180
   96SAPS  H13X 9591   5.544   5.472   8.075 -0.4194  0.0689  0.8538
   96SAPS  H13Y 9592   5.409   5.582   8.065  0.0845 -0.3541  1.3381
   96SAPS  C314 9593   5.596   5.685   8.064  0.2466  0.0475 -0.0789
   96SAPS  H14X 9594   5.556   5.785   8.038 -2.7821 -0.6319  1.4341
   96SAPS  H14Y 9595   5.694   5.663   8.017  1.2035  0.9937  1.4062
   96SAPS  C315 9596   5.613   5.678   8.217 -0.1203  0.1560 -0.5667
   96SAPS  H15X 9597   5.693   5.752   8.238  0.3028  0.1186 -1.9177
   96SAPS  H15Y 9598   5.652   5.583   8.259 -0.3507  0.0556 -0.5758
   96SAPS  C316 9599   5.486   5.732   8.290  0.3778 -0.1490  0.0752
   96SAPS  H16X 9600   5.396   5.670   8.270  1.8523 -2.4962  0.4121
   96SAPS  H16Y 9601   5.468   5.834   8.250 -0.4189 -1.0213 -1.9227
   96SAPS  C317 9602   5.500   5.731   8.443 -0.3768 -0.1098  0.8211
   96SAPS  H17X 9603   5.588   5.790   8.472  0.6557 -1.4074  0.4316
   96SAPS  H17Y 9604   5.531   5.629   8.476  2.7318  0.3275 -0.4134
   96SAPS  C318 9605   5.363   5.773   8.514 -0.4236  0.1537  0.1321
   96SAPS  H18X 9606   5.383   5.770   8.623 -0.3954 -0.7762  0.1118
   96SAPS  H18Y 9607   5.285   5.698   8.490  1.1274 -1.4984  0.0533
   96SAPS  H18Z 9608   5.330   5.875   8.485  0.2225  0.3940  0.2249
   97SAPS     N 9609   4.215   3.242   6.246 -1.0376  0.2036  0.4006
   97SAPS   HN1 9610   4.287   3.169   6.229  1.0888  1.4724  3.0770
   97SAPS   HN2 9611   4.257   3.316   6.307 -3.7954  0.9766  1.5090
   97SAPS   HN3 9612   4.131   3.196   6.286 -2.3103 -1.6161 -3.8212
   97SAPS   C12 9613   4.174   3.304   6.116 -0.5394 -0.1585 -0.3532
   97SAPS  H12A 9614   4.263   3.345   6.071 -0.3115 -1.6777 -1.3600
   97SAPS   C13 9615   4.109   3.209   6.008 -0.1302 -0.5173  0.0796
   97SAPS  O13A 9616   4.114   3.087   6.036 -0.5323 -0.0093 -0.0746
   97SAPS  O13B 9617   4.038   3.257   5.913 -0.1573  0.0712 -0.0420
   97SAPS   C11 9618   4.064   3.406   6.147 -0.8281 -0.0074 -0.2402
   97SAPS  H11A 9619   3.975   3.369   6.202 -0.6808  0.9653  0.6914
   97SAPS  H11B 9620   4.029   3.448   6.051 -2.7436 -3.2020 -1.1128
   97SAPS     P 9621   4.041   3.635   6.263 -0.6145  0.1409  0.3216
   97SAPS   O13 9622   4.021   3.715   6.144  0.2078 -0.0462  0.4336
   97SAPS   O14 9623   3.929   3.585   6.346 -0.3735  0.5312  0.3382
   97SAPS   O12 9624   4.126   3.509   6.220 -0.0576  0.4988 -0.1566
   97SAPS   O11 9625   4.139   3.712   6.360  0.0864  0.0493 -0.3250
   97SAPS    C1 9626   4.281   3.722   6.338  0.3200  0.4987  0.2565
   97SAPS    HA 9627   4.304   3.738   6.230 -1.5477 -1.8428 -0.5846
   97SAPS    HB 9628   4.316   3.814   6.388 -0.1315  1.8310 -1.7631
   97SAPS    C2 9629   4.351   3.600   6.400  0.3272  0.1249  0.7965
   97SAPS    HS 9630   4.309   3.524   6.331 -1.1199  0.3389  1.4042
   97SAPS   O21 9631   4.303   3.583   6.537 -0.4116 -0.0525 -0.0180
   97SAPS   C21 9632   4.295   3.457   6.575 -0.3383 -0.4148  0.3237
   97SAPS   O22 9633   4.288   3.362   6.499  0.3841  0.2550 -0.0253
   97SAPS   C22 9634   4.301   3.439   6.725  0.6313  0.2585 -0.2105
   97SAPS   H2R 9635   4.401   3.397   6.751  0.1165  0.4535  2.3427
   97SAPS   H2S 9636   4.302   3.533   6.785  1.9207 -1.3676  2.5009
   97SAPS    C3 9637   4.507   3.619   6.376 -0.3456  0.6693  0.5547
   97SAPS    HX 9638   4.530   3.715   6.428  0.6279  0.5254  0.4092
   97SAPS    HY 9639   4.525   3.637   6.268  0.0354  1.3991  0.7282
   97SAPS   O31 9640   4.603   3.528   6.436 -0.3565 -0.0608 -0.7075
   97SAPS   C31 9641   4.614   3.408   6.389 -0.1784  0.4324 -0.1204
   97SAPS   O32 9642   4.545   3.356   6.305 -0.3624 -0.1260 -0.0706
   97SAPS   C32 9643   4.715   3.330   6.471 -0.0492  0.3624  0.8769
   97SAPS   H2X 9644   4.788   3.396   6.522 -0.6597 -0.0558  2.3519
   97SAPS   H2Y 9645   4.761   3.278   6.384 -1.6396 -0.6949  0.6325
   97SAPS   C23 9646   4.191   3.350   6.776  0.5672  0.9807  0.2748
   97SAPS   H3R 9647   4.218   3.311   6.876 -1.4762 -1.5331 -0.0454
   97SAPS   H3S 9648   4.171   3.270   6.702 -0.0789  0.5528  0.8961
   97SAPS   C24 9649   4.056   3.421   6.798  0.0623  0.7055  0.5188
   97SAPS   H4R 9650   4.070   3.487   6.886  1.7966 -1.0445  1.6622
   97SAPS   H4S 9651   3.986   3.336   6.814 -1.7735  1.4677 -2.6107
   97SAPS   C25 9652   4.012   3.483   6.666 -0.2809  0.9193  0.0867
   97SAPS   H5R 9653   4.006   3.416   6.578  0.3191  0.9037  0.0496
   97SAPS   C26 9654   3.973   3.614   6.656  0.9325 -0.0223 -0.0210
   97SAPS   H6R 9655   3.935   3.653   6.560  4.2858  1.8688 -0.7165
   97SAPS   C27 9656   3.969   3.715   6.771  0.3614  0.4932 -0.1900
   97SAPS   H7R 9657   4.076   3.736   6.790  0.3136  0.2479  0.3587
   97SAPS   H7S 9658   3.930   3.678   6.868 -0.4499  3.2772  0.6457
   97SAPS   C28 9659   3.911   3.854   6.740  0.1487  0.6700  0.4004
   97SAPS   H8R 9660   3.887   3.876   6.635  1.9740 -0.1775 -0.2297
   97SAPS   C29 9661   3.885   3.945   6.834 -0.2518 -0.0352 -0.0494
   97SAPS   H9R 9662   3.821   4.029   6.803 -1.7513 -0.5843  1.4135
   97SAPS  C210 9663   3.901   3.933   6.982 -1.0583 -0.7100  0.2886
   97SAPS  H10R 9664   3.969   4.012   7.019 -1.5534  0.9821 -2.2099
   97SAPS  H10S 9665   3.954   3.836   7.000 -0.4092 -0.7221 -1.5661
   97SAPS  C211 9666   3.781   3.922   7.062  0.4737 -0.6950  0.0181
   97SAPS  H11R 9667   3.695   3.909   6.993  1.5520 -0.0463 -1.5038
   97SAPS  C212 9668   3.761   3.910   7.194  0.3576 -0.3538 -0.5054
   97SAPS  H12R 9669   3.662   3.903   7.241 -0.4195 -0.2785 -2.0788
   97SAPS  C213 9670   3.866   3.906   7.302 -0.3172  0.4729 -0.6841
   97SAPS  H13R 9671   3.822   3.924   7.402  3.0033  0.7537  0.8550
   97SAPS  H13S 9672   3.921   4.002   7.294  0.0151  0.2752 -0.8274
   97SAPS  C214 9673   3.960   3.790   7.298 -0.5366  0.5963  0.1526
   97SAPS  H14R 9674   3.964   3.740   7.200  0.2699 -1.4608  1.1748
   97SAPS  C215 9675   4.011   3.735   7.408  0.1916 -0.1635 -0.3820
   97SAPS  H15R 9676   4.066   3.640   7.403 -0.8479 -0.7625 -0.7763
   97SAPS  C216 9677   3.990   3.782   7.554  0.0583  0.0810  0.3472
   97SAPS  H16R 9678   3.925   3.872   7.561  0.4055  0.2462  1.7962
   97SAPS  H16S 9679   4.087   3.791   7.608 -0.9647  1.7534  2.0396
   97SAPS  C217 9680   3.913   3.669   7.622  0.1083 -0.1797  0.1337
   97SAPS  H17R 9681   3.961   3.569   7.614 -1.2742 -1.1772  2.9774
   97SAPS  H17S 9682   3.807   3.669   7.589 -0.0459  0.5006  0.6058
   97SAPS  C218 9683   3.915   3.691   7.772 -0.0965 -0.3350  0.3824
   97SAPS  H18R 9684   3.888   3.796   7.799 -2.4363 -0.2596 -1.8890
   97SAPS  H18S 9685   4.022   3.678   7.800  0.1466  0.9464  0.1392
   97SAPS  C219 9686   3.826   3.595   7.847  0.1436 -0.3257 -0.4875
   97SAPS  H19R 9687   3.853   3.493   7.812  0.2559 -0.5465  0.2397
   97SAPS  H19S 9688   3.720   3.623   7.826  0.1904 -0.6886 -1.2384
   97SAPS  C220 9689   3.840   3.615   7.992  0.3478 -0.0474 -0.0519
   97SAPS  H20R 9690   3.792   3.530   8.045  0.1033 -0.6389 -1.1961
   97SAPS  H20S 9691   3.787   3.708   8.020  1.8115  0.7863  0.0757
   97SAPS  H20T 9692   3.946   3.635   8.020  0.4473 -1.1675  0.4184
   97SAPS   C33 9693   4.668   3.229   6.579 -0.3699 -0.7905 -0.3063
   97SAPS   H3X 9694   4.582   3.164   6.552  0.3390 -1.2750 -1.4291
   97SAPS   H3Y 9695   4.638   3.297   6.662  1.4815  1.8531 -1.6625
   97SAPS   C34 9696   4.787   3.148   6.618  0.6005  0.3208 -0.2886
   97SAPS   H4X 9697   4.863   3.217   6.659  0.4702 -0.3349  1.1095
   97SAPS   H4Y 9698   4.825   3.097   6.526 -2.1581 -0.9187 -0.8513
   97SAPS   C35 9699   4.760   3.046   6.729 -0.2708 -0.0155 -0.1858
   97SAPS   H5X 9700   4.846   2.978   6.741  0.0405  0.3762 -0.1570
   97SAPS   H5Y 9701   4.663   2.998   6.706 -0.3482  0.6515 -1.3083
   97SAPS   C36 9702   4.758   3.107   6.867 -0.1277  0.1905 -0.3725
   97SAPS   H6X 9703   4.691   3.195   6.870 -0.3321  0.0369 -0.4045
   97SAPS   H6Y 9704   4.856   3.138   6.909 -0.5439  0.5500  0.3604
   97SAPS   C37 9705   4.689   3.003   6.964 -0.2571  0.4077 -0.8341
   97SAPS   H7X 9706   4.739   2.905   6.948 -0.8384 -0.1349  0.5070
   97SAPS   H7Y 9707   4.582   2.993   6.936 -0.0968 -1.4922 -0.9218
   97SAPS   C38 9708   4.693   3.047   7.114 -0.0807 -0.3907 -0.8572
   97SAPS   H8X 9709   4.623   3.133   7.123 -0.7048 -0.9957  0.3717
   97SAPS   H8Y 9710   4.796   3.059   7.153 -0.2232 -0.1366 -0.5539
   97SAPS   C39 9711   4.629   2.952   7.214  0.1453  0.3453  0.2696
   97SAPS   H9X 9712   4.701   2.868   7.224 -1.5801 -1.1666  0.4131
   97SAPS   H9Y 9713   4.544   2.908   7.158 -0.4492  0.3672  1.1396
   97SAPS  C310 9714   4.570   3.006   7.347 -0.1152  0.7909  0.1381
   97SAPS  H10X 9715   4.483   3.071   7.319 -0.7690  1.4030  3.2639
   97SAPS  H10Y 9716   4.640   3.072   7.402 -1.2954  1.6726  0.6487
   97SAPS  C311 9717   4.507   2.903   7.440 -0.1438 -0.5917  0.7562
   97SAPS  H11X 9718   4.590   2.833   7.463  0.6104  0.0437  0.0398
   97SAPS  H11Y 9719   4.427   2.848   7.387 -0.4181 -0.9495  1.5326
   97SAPS  C312 9720   4.451   2.964   7.571  0.1867  0.5396 -0.0629
   97SAPS  H12X 9721   4.350   3.009   7.560 -0.7822 -1.4797  0.1190
   97SAPS  H12Y 9722   4.510   3.044   7.620 -0.0274  1.0503 -0.6168
   97SAPS  C313 9723   4.423   2.850   7.677  0.1585 -0.3502  0.9535
   97SAPS  H13X 9724   4.520   2.796   7.685  0.7675  0.2406 -1.6208
   97SAPS  H13Y 9725   4.345   2.785   7.632  0.6525  2.0162 -3.9972
   97SAPS  C314 9726   4.384   2.908   7.816  0.0808  0.2979  0.3685
   97SAPS  H14X 9727   4.290   2.964   7.799 -1.1264 -1.7590 -0.1449
   97SAPS  H14Y 9728   4.468   2.972   7.851 -1.4141  1.3046  2.2633
   97SAPS  C315 9729   4.360   2.805   7.928 -0.3685 -0.9225  0.5467
   97SAPS  H15X 9730   4.449   2.742   7.947 -1.5369 -3.0207 -0.6009
   97SAPS  H15Y 9731   4.274   2.740   7.902  1.4824 -3.3159  0.0521
   97SAPS  C316 9732   4.314   2.874   8.056 -0.3698  0.3300 -0.0300
   97SAPS  H16X 9733   4.329   2.984   8.047  2.3151  0.0309  0.2089
   97SAPS  H16Y 9734   4.379   2.839   8.139 -0.1124 -0.1937 -0.4496
   97SAPS  C317 9735   4.168   2.841   8.096 -0.9298  0.2617 -0.2685
   97SAPS  H17X 9736   4.156   2.731   8.082 -0.0943  0.1586 -0.2130
   97SAPS  H17Y 9737   4.104   2.877   8.013  1.0155 -0.0602 -1.9744
   97SAPS  C318 9738   4.106   2.901   8.222 -0.4633 -0.1213  0.1052
   97SAPS  H18X 9739   4.009   2.850   8.237  0.4063 -1.9991 -0.4058
   97SAPS  H18Y 9740   4.106   3.010   8.203  1.3547 -0.3752 -1.5786
   97SAPS  H18Z 9741   4.156   2.882   8.319  0.9574  0.8078 -0.4204
   98SAPS     N 9742   2.402   5.169   5.730 -0.1287  0.3073  0.3444
   98SAPS   HN1 9743   2.424   5.270   5.723  0.7765  0.3729  2.9122
   98SAPS   HN2 9744   2.457   5.107   5.667  1.9447  2.0935  0.2811
   98SAPS   HN3 9745   2.301   5.167   5.706 -0.4894  1.8856  1.5323
   98SAPS   C12 9746   2.416   5.115   5.879  0.1558 -0.9472 -0.8379
   98SAPS  H12A 9747   2.433   5.008   5.883  0.0061 -0.9831 -1.1529
   98SAPS   C13 9748   2.532   5.190   5.961  0.8363  0.0333  0.8569
   98SAPS  O13A 9749   2.593   5.283   5.904  0.2104 -0.1228 -0.2333
   98SAPS  O13B 9750   2.566   5.132   6.065  0.1575  0.0218  0.4674
   98SAPS   C11 9751   2.279   5.159   5.951  0.9809  0.1914 -0.1695
   98SAPS  H11A 9752   2.251   5.265   5.935 -3.6516 -0.6821  0.7177
   98SAPS  H11B 9753   2.290   5.149   6.061 -1.5724 -2.8259 -0.0567
   98SAPS     P 9754   2.135   4.952   5.962  0.0098  0.3948 -0.3265
   98SAPS   O13 9755   1.995   4.909   5.942 -0.2738 -0.0383 -0.2000
   98SAPS   O14 9756   2.244   4.865   5.912 -0.2461  0.1628 -0.3418
   98SAPS   O12 9757   2.155   5.098   5.913  0.3744  0.2127 -0.5481
   98SAPS   O11 9758   2.156   4.971   6.112  0.5701 -0.4660  0.3318
   98SAPS    C1 9759   2.156   4.850   6.203  0.5989 -0.5267  0.1026
   98SAPS    HA 9760   2.050   4.818   6.213  0.7465 -1.8899 -1.9066
   98SAPS    HB 9761   2.200   4.762   6.151  3.1915  0.6940  0.0375
   98SAPS    C2 9762   2.204   4.874   6.344 -0.1060 -0.6500 -0.2711
   98SAPS    HS 9763   2.226   4.774   6.389 -2.2533 -2.3436 -2.7006
   98SAPS   O21 9764   2.097   4.931   6.420  0.2899  0.2540 -1.1249
   98SAPS   C21 9765   2.111   4.917   6.552 -0.1249 -0.0320  0.2748
   98SAPS   O22 9766   2.185   4.841   6.607 -0.1777 -1.1123 -0.0998
   98SAPS   C22 9767   2.006   5.000   6.617 -0.3254  0.2766  0.2156
   98SAPS   H2R 9768   2.017   5.107   6.587  1.1299  0.5523  1.5847
   98SAPS   H2S 9769   1.914   4.973   6.563 -0.5692 -0.2411  0.8766
   98SAPS    C3 9770   2.329   4.977   6.343  0.5827  0.2100  0.1112
   98SAPS    HX 9771   2.289   5.062   6.284  0.7225 -1.3924 -2.4278
   98SAPS    HY 9772   2.416   4.936   6.289  1.1776  0.3725  0.9236
   98SAPS   O31 9773   2.368   5.020   6.474 -0.3380 -0.9528  0.1627
   98SAPS   C31 9774   2.448   4.934   6.536  0.9599 -0.2934  0.4611
   98SAPS   O32 9775   2.458   4.816   6.509  0.1135 -0.0813  0.4802
   98SAPS   C32 9776   2.506   4.993   6.661  0.3677 -0.4659 -0.4195
   98SAPS   H2X 9777   2.433   5.059   6.714  0.8617  0.7667 -1.2156
   98SAPS   H2Y 9778   2.596   5.051   6.631  0.4499  0.1556  0.9601
   98SAPS   C23 9779   1.986   4.987   6.770 -0.0181 -0.6344 -0.0885
   98SAPS   H3R 9780   2.082   5.014   6.820  0.2826  0.1067 -1.0334
   98SAPS   H3S 9781   1.964   4.878   6.779  1.7947 -1.1123 -0.8799
   98SAPS   C24 9782   1.875   5.080   6.830 -0.2994 -1.1270 -0.3521
   98SAPS   H4R 9783   1.900   5.187   6.811 -1.8740 -0.4560  1.1529
   98SAPS   H4S 9784   1.871   5.067   6.940 -0.7877  1.6544  0.0264
   98SAPS   C25 9785   1.735   5.050   6.773  0.2997 -0.5866 -0.0649
   98SAPS   H5R 9786   1.709   5.110   6.685  0.4001 -0.8835 -0.3003
   98SAPS   C26 9787   1.646   4.955   6.812  0.2771 -0.5625  0.1129
   98SAPS   H6R 9788   1.545   4.948   6.769 -0.4802  0.3849  1.6413
   98SAPS   C27 9789   1.669   4.859   6.922  0.3332  0.6093 -0.0063
   98SAPS   H7R 9790   1.705   4.917   7.010  1.0811  0.8601 -0.4667
   98SAPS   H7S 9791   1.757   4.794   6.899  1.1628  1.6811  0.0913
   98SAPS   C28 9792   1.548   4.768   6.955 -0.0079  0.6103 -0.7705
   98SAPS   H8R 9793   1.508   4.714   6.867 -0.1438 -2.2512  0.9173
   98SAPS   C29 9794   1.476   4.778   7.069 -0.0161  0.7100  0.2130
   98SAPS   H9R 9795   1.385   4.717   7.078  0.2972 -0.2751 -2.3461
   98SAPS  C210 9796   1.507   4.865   7.187  0.7305  0.3740 -1.1444
   98SAPS  H10R 9797   1.432   4.837   7.263  0.1931 -2.5958 -2.6270
   98SAPS  H10S 9798   1.490   4.971   7.160  1.8041  0.5813 -1.0699
   98SAPS  C211 9799   1.641   4.855   7.263  0.3553  0.4190  0.2135
   98SAPS  H11R 9800   1.718   4.929   7.234  1.2706 -0.6618 -0.1738
   98SAPS  C212 9801   1.663   4.768   7.356  0.0285  0.1030 -0.5786
   98SAPS  H12R 9802   1.751   4.792   7.417  0.1581  0.1066 -0.7627
   98SAPS  C213 9803   1.561   4.661   7.408 -0.3209  0.3471 -0.2003
   98SAPS  H13R 9804   1.604   4.564   7.442  0.0571  0.4324 -0.4317
   98SAPS  H13S 9805   1.496   4.624   7.326 -0.5390  1.5849 -0.6028
   98SAPS  C214 9806   1.470   4.716   7.516  0.5870 -0.3552 -0.0007
   98SAPS  H14R 9807   1.386   4.772   7.475 -0.5711 -0.7999  1.6529
   98SAPS  C215 9808   1.501   4.706   7.647 -0.2594 -0.1439  0.1021
   98SAPS  H15R 9809   1.443   4.766   7.719  0.7991  0.3948  0.5277
   98SAPS  C216 9810   1.626   4.637   7.704 -0.4009 -0.0161 -0.6333
   98SAPS  H16R 9811   1.701   4.709   7.745 -0.2606 -0.1599 -0.6396
   98SAPS  H16S 9812   1.691   4.575   7.640  0.3526 -0.2103  0.2991
   98SAPS  C217 9813   1.592   4.532   7.814 -0.2569 -0.2891  0.2761
   98SAPS  H17R 9814   1.686   4.478   7.839  0.9838  2.3876  1.8515
   98SAPS  H17S 9815   1.511   4.468   7.773 -1.8333  1.5387  0.3967
   98SAPS  C218 9816   1.547   4.587   7.950 -0.8369  0.2015  0.3378
   98SAPS  H18R 9817   1.466   4.661   7.928 -0.6958 -0.0877 -1.2777
   98SAPS  H18S 9818   1.631   4.642   7.997 -0.4531  0.7264 -0.9098
   98SAPS  C219 9819   1.505   4.469   8.038  0.2990  0.0263 -0.2400
   98SAPS  H19R 9820   1.479   4.381   7.974 -0.6839 -0.2650  0.5331
   98SAPS  H19S 9821   1.417   4.503   8.096  0.6461  0.3575  0.0900
   98SAPS  C220 9822   1.612   4.428   8.139  0.1359  0.4900  0.0324
   98SAPS  H20R 9823   1.626   4.513   8.209  0.2451  1.1845 -0.8189
   98SAPS  H20S 9824   1.711   4.423   8.089 -0.0612  0.9805 -0.4121
   98SAPS  H20T 9825   1.581   4.342   8.202 -0.0444  0.4387 -0.1287
   98SAPS   C33 9826   2.571   4.895   6.765  0.0035 -0.2789  0.2841
   98SAPS   H3X 9827   2.636   4.963   6.825 -0.9364  0.6827  0.2352
   98SAPS   H3Y 9828   2.641   4.824   6.714 -0.0565 -0.1575  0.0306
   98SAPS   C34 9829   2.467   4.816   6.835 -0.1052 -0.0536 -0.0033
   98SAPS   H4X 9830   2.513   4.736   6.897  0.6889  0.7886  0.5181
   98SAPS   H4Y 9831   2.400   4.765   6.763 -0.3317 -0.5724  0.5605
   98SAPS   C35 9832   2.382   4.900   6.926  0.5454  0.2637  0.4515
   98SAPS   H5X 9833   2.327   4.975   6.865 -0.9918 -0.7856  0.4953
   98SAPS   H5Y 9834   2.451   4.930   7.008  0.6423 -1.1928  0.9470
   98SAPS   C36 9835   2.271   4.822   6.994  0.8100  0.1656 -0.1111
   98SAPS   H6X 9836   2.304   4.716   6.996 -3.5513 -1.4697 -2.3235
   98SAPS   H6Y 9837   2.186   4.825   6.922  0.5796  1.3688  0.1917
   98SAPS   C37 9838   2.226   4.845   7.141 -0.7090  0.6551 -0.3419
   98SAPS   H7X 9839   2.300   4.799   7.210  0.0355 -1.3386 -2.3625
   98SAPS   H7Y 9840   2.138   4.777   7.150 -0.8915  0.8353 -0.7244
   98SAPS   C38 9841   2.192   4.985   7.180 -0.1158  0.1135 -0.1659
   98SAPS   H8X 9842   2.110   5.034   7.123  1.2151  2.6618 -0.0380
   98SAPS   H8Y 9843   2.277   5.046   7.143 -0.9270  1.2417 -0.2169
   98SAPS   C39 9844   2.183   4.995   7.331 -0.0208 -0.4964  0.5217
   98SAPS   H9X 9845   2.180   5.094   7.382  1.1755 -0.0676 -0.2156
   98SAPS   H9Y 9846   2.273   4.944   7.370 -1.2328 -0.9186  3.0036
   98SAPS  C310 9847   2.071   4.915   7.399  0.5479  0.4979  0.3233
   98SAPS  H10X 9848   2.087   4.816   7.351  1.4274  1.4582 -1.4839
   98SAPS  H10Y 9849   1.971   4.954   7.373  0.9678  0.6855 -1.0848
   98SAPS  C311 9850   2.093   4.905   7.555 -0.1346 -0.6356 -0.0018
   98SAPS  H11X 9851   2.074   5.008   7.593  0.7155  0.5519 -2.6021
   98SAPS  H11Y 9852   2.200   4.882   7.572  0.3556  0.9791 -0.6913
   98SAPS  C312 9853   1.999   4.802   7.614  0.3142  0.3151 -0.4053
   98SAPS  H12X 9854   2.018   4.710   7.556  0.4968  0.6464 -0.8739
   98SAPS  H12Y 9855   1.892   4.826   7.597  0.0090  0.1872  1.1718
   98SAPS  C313 9856   2.015   4.772   7.774  0.2581  0.4077  0.7352
   98SAPS  H13X 9857   2.121   4.748   7.797  1.1480  3.1430 -0.1766
   98SAPS  H13Y 9858   1.968   4.673   7.794  0.4509 -0.0745 -0.9694
   98SAPS  C314 9859   1.963   4.882   7.855 -0.8450 -1.1799 -0.2652
   98SAPS  H14X 9860   1.857   4.908   7.833 -0.3940  0.1074 -0.9858
   98SAPS  H14Y 9861   2.032   4.967   7.839 -2.4606  0.1084 -0.7445
   98SAPS  C315 9862   1.964   4.849   8.006 -0.0306 -0.0577 -0.5214
   98SAPS  H15X 9863   1.960   4.949   8.054  0.9940 -0.2392 -0.0273
   98SAPS  H15Y 9864   2.060   4.804   8.041 -0.8388 -0.2414  1.6352
   98SAPS  C316 9865   1.851   4.764   8.063 -0.7254 -0.0164 -0.3552
   98SAPS  H16X 9866   1.858   4.665   8.014  1.9449  0.1776 -0.5592
   98SAPS  H16Y 9867   1.755   4.815   8.042 -0.3307  1.2900  0.8342
   98SAPS  C317 9868   1.867   4.738   8.216  0.5510 -0.4991  0.2163
   98SAPS  H17X 9869   1.785   4.669   8.245 -1.0296  1.9454  1.9821
   98SAPS  H17Y 9870   1.849   4.837   8.264  0.4870  0.2193 -1.2311
   98SAPS  C318 9871   1.992   4.677   8.263 -0.5622  0.5652 -0.4778
   98SAPS  H18X 9872   2.032   4.583   8.217 -3.4057 -2.7686  3.1216
   98SAPS  H18Y 9873   1.978   4.650   8.370  0.8349 -0.8648 -0.6070
   98SAPS  H18Z 9874   2.081   4.743   8.263  1.0284 -1.3940  1.2159
   99SAPS     N 9875   2.879   0.787   6.415 -0.6159 -0.1793 -0.4044
   99SAPS   HN1 9876   2.938   0.704   6.434  1.1819  1.0601 -0.2669
   99SAPS   HN2 9877   2.936   0.869   6.442  1.9581 -1.9054 -0.3111
   99SAPS   HN3 9878   2.798   0.777   6.480 -0.1812 -0.4048  0.1033
   99SAPS   C12 9879   2.852   0.790   6.267 -0.1055 -0.2554  0.6470
   99SAPS  H12A 9880   2.784   0.870   6.241  0.8502  0.3814  0.0101
   99SAPS   C13 9881   2.971   0.809   6.174  0.0424  0.3360 -0.3578
   99SAPS  O13A 9882   3.083   0.850   6.215  0.2070  0.2391 -0.6485
   99SAPS  O13B 9883   2.956   0.782   6.052  0.2577  0.0357  0.1916
   99SAPS   C11 9884   2.779   0.651   6.231  0.0708  0.2074 -0.0547
   99SAPS  H11A 9885   2.855   0.570   6.231 -0.3616 -0.2534 -1.9918
   99SAPS  H11B 9886   2.747   0.642   6.125  0.3656  1.3688 -0.2566
   99SAPS     P 9887   2.576   0.502   6.304 -0.0593 -0.1032 -0.3035
   99SAPS   O13 9888   2.500   0.512   6.176  0.3010  0.7886  0.5674
   99SAPS   O14 9889   2.660   0.382   6.330 -0.2213 -0.0055  0.1786
   99SAPS   O12 9890   2.666   0.630   6.322 -1.2667  0.7505 -0.3223
   99SAPS   O11 9891   2.475   0.512   6.425  0.4238  0.7224  0.0923
   99SAPS    C1 9892   2.377   0.620   6.421 -0.3453  0.6484 -1.0482
   99SAPS    HA 9893   2.361   0.666   6.321  0.1140 -0.1630 -1.5097
   99SAPS    HB 9894   2.280   0.582   6.459  1.0889 -0.9190  1.2804
   99SAPS    C2 9895   2.413   0.735   6.518  0.0394 -0.0088 -0.0080
   99SAPS    HS 9896   2.476   0.808   6.463 -1.5696  1.0039 -0.5998
   99SAPS   O21 9897   2.472   0.681   6.637  0.1937 -0.6650  0.0847
   99SAPS   C21 9898   2.595   0.721   6.667 -0.5051 -0.3174 -0.2298
   99SAPS   O22 9899   2.671   0.784   6.592  0.1034  1.3376 -0.6412
   99SAPS   C22 9900   2.632   0.683   6.807  0.0055  0.0405 -0.1602
   99SAPS   H2R 9901   2.558   0.606   6.836  0.0943 -0.8087 -2.0420
   99SAPS   H2S 9902   2.734   0.640   6.800  0.8880  2.1097 -1.1736
   99SAPS    C3 9903   2.285   0.813   6.554  0.2764  0.1151 -0.7969
   99SAPS    HX 9904   2.208   0.743   6.593  1.4098 -1.8242 -1.8755
   99SAPS    HY 9905   2.242   0.851   6.459 -1.4759 -1.0020 -0.5030
   99SAPS   O31 9906   2.323   0.933   6.625 -0.6516  0.1884  0.3845
   99SAPS   C31 9907   2.308   0.920   6.755 -0.0659  0.4200  0.4029
   99SAPS   O32 9908   2.273   0.817   6.815  0.3044 -0.0032  0.1407
   99SAPS   C32 9909   2.351   1.052   6.815  0.6031 -1.0402 -0.5495
   99SAPS   H2X 9910   2.439   1.095   6.762  1.0693  0.9459  1.6880
   99SAPS   H2Y 9911   2.391   1.034   6.917  1.1427 -1.6421 -0.8521
   99SAPS   C23 9912   2.625   0.788   6.920 -0.2286  0.1807 -0.1141
   99SAPS   H3R 9913   2.524   0.834   6.927 -2.0926 -3.3869 -1.3718
   99SAPS   H3S 9914   2.703   0.862   6.890  1.1738 -0.9706  0.5797
   99SAPS   C24 9915   2.658   0.729   7.058 -0.2922 -1.2547  0.2006
   99SAPS   H4R 9916   2.766   0.703   7.048 -0.0558 -0.3618  0.4123
   99SAPS   H4S 9917   2.607   0.631   7.073 -0.0143 -1.7586 -1.7737
   99SAPS   C25 9918   2.619   0.831   7.165 -0.2676 -0.4794  0.4984
   99SAPS   H5R 9919   2.514   0.863   7.156  0.6461  2.4218 -0.9452
   99SAPS   C26 9920   2.699   0.869   7.265  0.1440 -0.2006  0.8951
   99SAPS   H6R 9921   2.643   0.932   7.335 -0.2004 -1.9131  2.2149
   99SAPS   C27 9922   2.841   0.824   7.283  0.2022  0.0588 -0.1494
   99SAPS   H7R 9923   2.865   0.722   7.246 -0.2167 -0.3914  0.8049
   99SAPS   H7S 9924   2.861   0.839   7.392  2.2027  0.4321 -0.5114
   99SAPS   C28 9925   2.946   0.911   7.213 -0.4055 -0.0662 -0.3658
   99SAPS   H8R 9926   2.979   0.879   7.113  1.1511 -0.4108  0.2269
   99SAPS   C29 9927   3.009   1.013   7.273 -0.6511  0.2037  0.2893
   99SAPS   H9R 9928   3.087   1.067   7.217  0.1492  0.5595  1.6977
   99SAPS  C210 9929   3.006   1.062   7.415  0.7284 -0.8541  0.2767
   99SAPS  H10R 9930   2.904   1.036   7.450  1.1770 -2.1700  0.6668
   99SAPS  H10S 9931   3.008   1.173   7.408 -1.4497 -0.8051 -0.2546
   99SAPS  C211 9932   3.108   1.006   7.506 -0.5004  0.0733  0.4388
   99SAPS  H11R 9933   3.171   0.933   7.453  0.8564  0.9255  0.8490
   99SAPS  C212 9934   3.120   1.034   7.639 -0.4225 -0.0873 -0.2154
   99SAPS  H12R 9935   3.196   0.978   7.696 -2.0013 -0.9738  1.0906
   99SAPS  C213 9936   3.045   1.142   7.710 -0.1532 -0.4145  1.0123
   99SAPS  H13R 9937   2.995   1.198   7.629  0.3870 -1.1577  0.1501
   99SAPS  H13S 9938   3.110   1.226   7.742  0.9252 -0.0091 -1.9925
   99SAPS  C214 9939   2.951   1.087   7.813  0.4358 -0.3745  0.2576
   99SAPS  H14R 9940   2.855   1.054   7.770 -0.8185 -0.6021  3.0129
   99SAPS  C215 9941   2.972   1.065   7.944  0.7030 -0.0293 -0.3236
   99SAPS  H15R 9942   2.887   1.027   8.003  0.2508  1.1542 -0.1899
   99SAPS  C216 9943   3.098   1.103   8.030 -0.1845 -0.7358 -0.3903
   99SAPS  H16R 9944   3.074   1.168   8.117  1.7426  0.4311 -0.6810
   99SAPS  H16S 9945   3.172   1.159   7.970 -1.9092  0.5962 -1.3605
   99SAPS  C217 9946   3.166   0.988   8.108  0.2086 -0.4281 -0.2009
   99SAPS  H17R 9947   3.246   1.025   8.175 -0.0441  1.8036 -1.0429
   99SAPS  H17S 9948   3.211   0.920   8.032 -0.2409 -0.5421 -0.3698
   99SAPS  C218 9949   3.068   0.906   8.206 -0.9514 -0.2285  0.8431
   99SAPS  H18R 9950   2.970   0.880   8.163 -0.2845  0.0286 -0.9146
   99SAPS  H18S 9951   3.048   0.978   8.289  2.9458  1.7951  0.3027
   99SAPS  C219 9952   3.136   0.783   8.264  0.3306  0.7255 -0.4637
   99SAPS  H19R 9953   3.238   0.812   8.297 -0.3913  2.1981  0.5742
   99SAPS  H19S 9954   3.141   0.700   8.191 -1.6669  1.3842 -1.4390
   99SAPS  C220 9955   3.065   0.734   8.385  0.0628  0.6601 -0.4208
   99SAPS  H20R 9956   2.955   0.743   8.394 -0.2134  0.6032 -2.8723
   99SAPS  H20S 9957   3.083   0.785   8.482 -0.0545 -0.0225 -0.0422
   99SAPS  H20T 9958   3.091   0.629   8.407 -1.9715  0.5610  1.9019
   99SAPS   C33 9959   2.250   1.168   6.802  0.2336 -0.0660 -0.8588
   99SAPS   H3X 9960   2.170   1.158   6.879 -1.0256  1.7665 -1.8549
   99SAPS   H3Y 9961   2.194   1.157   6.707 -0.4127  0.1349 -0.5062
   99SAPS   C34 9962   2.306   1.306   6.811 -0.6396 -0.0215 -0.5109
   99SAPS   H4X 9963   2.251   1.362   6.732 -0.8537 -0.5509 -0.7388
   99SAPS   H4Y 9964   2.411   1.319   6.777 -0.0524 -0.0767  1.2071
   99SAPS   C35 9965   2.282   1.376   6.948  0.5432 -0.0118 -0.5953
   99SAPS   H5X 9966   2.352   1.326   7.018 -0.3890 -1.2361 -0.5106
   99SAPS   H5Y 9967   2.182   1.361   6.995  0.7625 -0.9150 -0.4076
   99SAPS   C36 9968   2.306   1.528   6.941  0.5525 -0.1390 -0.5579
   99SAPS   H6X 9969   2.245   1.569   6.858  0.0955  0.6120  0.1386
   99SAPS   H6Y 9970   2.413   1.552   6.921 -0.0862  2.0400 -1.6222
   99SAPS   C37 9971   2.260   1.609   7.059  0.5931 -0.3248 -1.2901
   99SAPS   H7X 9972   2.162   1.571   7.094  1.1048 -0.6534 -0.1893
   99SAPS   H7Y 9973   2.236   1.714   7.031 -0.0369  0.1456  0.8087
   99SAPS   C38 9974   2.374   1.605   7.167 -0.3839  0.0661 -0.0944
   99SAPS   H8X 9975   2.470   1.630   7.117  0.5237  1.7117  2.2477
   99SAPS   H8Y 9976   2.367   1.510   7.223 -0.6956  0.4876  0.5973
   99SAPS   C39 9977   2.358   1.704   7.282  0.1861 -1.1212 -0.0440
   99SAPS   H9X 9978   2.255   1.695   7.322  0.0336 -0.7300 -0.3402
   99SAPS   H9Y 9979   2.350   1.806   7.239 -0.7334 -0.8397  0.7787
   99SAPS  C310 9980   2.459   1.708   7.391 -0.3942 -0.4135 -1.1342
   99SAPS  H10X 9981   2.483   1.600   7.405 -0.8796 -0.1604  3.4410
   99SAPS  H10Y 9982   2.409   1.725   7.489  0.7217 -0.5606 -0.5130
   99SAPS  C311 9983   2.584   1.795   7.383  0.8009  0.1050 -0.2238
   99SAPS  H11X 9984   2.561   1.902   7.363 -0.8399 -0.4122 -1.3182
   99SAPS  H11Y 9985   2.630   1.748   7.293 -1.9095  1.2266 -2.3189
   99SAPS  C312 9986   2.667   1.784   7.511  0.3652  0.1199 -0.2699
   99SAPS  H12X 9987   2.775   1.797   7.489  0.3482  1.5636  0.3942
   99SAPS  H12Y 9988   2.653   1.681   7.551 -3.7551  0.9137  0.7566
   99SAPS  C313 9989   2.612   1.867   7.625 -0.2635 -0.0807  0.3251
   99SAPS  H13X 9990   2.513   1.829   7.657 -0.0230 -0.6154  0.4439
   99SAPS  H13Y 9991   2.596   1.971   7.586 -0.5312 -0.1603  0.2205
   99SAPS  C314 9992   2.695   1.861   7.743 -0.0928  0.2370 -0.5583
   99SAPS  H14X 9993   2.797   1.902   7.727  0.6907 -1.5225 -0.2720
   99SAPS  H14Y 9994   2.717   1.758   7.778  1.4477 -0.0963 -2.3399
   99SAPS  C315 9995   2.635   1.934   7.869 -0.1082  0.0669 -0.0625
   99SAPS  H15X 9996   2.525   1.924   7.853 -0.2719  1.4430  0.0871
   99SAPS  H15Y 9997   2.657   2.043   7.869  2.9543 -0.4761 -0.5317
   99SAPS  C316 9998   2.655   1.890   8.015 -0.5275  0.3662  0.1281
   99SAPS  H16X 9999   2.659   1.779   8.012 -0.1054  0.4005 -0.7283
   99SAPS  H16Y10000   2.566   1.921   8.073  1.1828  3.2214  1.4888
   99SAPS  C31710001   2.790   1.939   8.081  0.0262 -0.1506 -0.2605
   99SAPS  H17X10002   2.763   2.043   8.108  0.4536  0.1905 -1.1053
   99SAPS  H17Y10003   2.861   1.945   7.995 -0.3398  0.6292 -0.5170
   99SAPS  C31810004   2.839   1.862   8.199  0.5426 -0.1930  0.4312
   99SAPS  H18X10005   2.922   1.916   8.248  0.4916  0.7136 -0.4342
   99SAPS  H18Y10006   2.863   1.758   8.169 -1.1575 -1.3927  2.8344
   99SAPS  H18Z10007   2.752   1.860   8.268 -2.2127  2.2778 -2.6139
  100SAPS     N10008   6.192   6.276   6.098 -0.3866  0.4206 -1.1266
  100SAPS   HN110009   6.139   6.188   6.086  2.7960 -1.6120 -1.5165
  100SAPS   HN210010   6.290   6.242   6.109 -0.8483 -0.5352  0.2302
  100SAPS   HN310011   6.171   6.331   6.184 -0.4749  0.2282 -1.0265
  100SAPS   C1210012   6.166   6.362   5.982  0.4106 -0.4200  0.1558
  100SAPS  H12A10013   6.236   6.444   5.985  0.0235 -0.1108  1.0000
  100SAPS   C1310014   6.184   6.289   5.854  0.5176  0.0781  0.2047
  100SAPS  O13A10015   6.184   6.161   5.848  0.1130  0.1039 -0.1993
  100SAPS  O13B10016   6.174   6.344   5.742  0.2517  0.1264 -0.1677
  100SAPS   C1110017   6.019   6.418   5.990 -0.4148 -1.0717 -0.3380
  100SAPS  H11A10018   5.950   6.331   5.992  1.4078 -2.5557  0.2571
  100SAPS  H11B10019   6.000   6.477   5.898 -1.3477  2.6800  2.0072
  100SAPS     P10020   5.997   6.662   6.098  0.2804  0.3178  0.2615
  100SAPS   O1310021   6.139   6.696   6.064  0.0472 -0.3451  0.1139
  100SAPS   O1410022   5.893   6.700   5.994 -0.1165 -0.0473 -0.2163
  100SAPS   O1210023   5.989   6.498   6.101  0.4439 -0.4704  0.2023
  100SAPS   O1110024   5.952   6.729   6.233 -0.0819  0.1097 -0.0118
  100SAPS    C110025   5.837   6.696   6.312 -0.0892 -0.4778 -0.4931
  100SAPS    HA10026   5.762   6.778   6.307  1.1602  0.6774 -1.0900
  100SAPS    HB10027   5.790   6.601   6.281  1.5208 -1.3168 -0.5013
  100SAPS    C210028   5.873   6.684   6.461  0.5082 -0.0762 -0.7842
  100SAPS    HS10029   5.783   6.664   6.522  2.0345 -1.2737  1.1991
  100SAPS   O2110030   5.952   6.788   6.502 -0.0706  0.2207 -0.2544
  100SAPS   C2110031   5.891   6.897   6.556 -0.0197  0.4943  0.8195
  100SAPS   O2210032   5.777   6.923   6.539  0.5823  0.1077  0.4992
  100SAPS   C2210033   5.994   6.985   6.622  0.1033  0.2091 -0.6011
  100SAPS   H2R10034   6.075   7.010   6.550  0.5055 -1.6508 -0.8515
  100SAPS   H2S10035   5.946   7.083   6.642  1.0967  0.9713 -1.8012
  100SAPS    C310036   5.969   6.559   6.486  0.0471 -0.1811  0.2425
  100SAPS    HX10037   6.057   6.577   6.420  0.7596  2.0103  1.6839
  100SAPS    HY10038   5.909   6.470   6.457  1.9171 -1.5350  0.3315
  100SAPS   O3110039   6.022   6.545   6.617 -0.2447 -0.2271 -0.5271
  100SAPS   C3110040   5.946   6.504   6.714  0.3346  0.5883  0.2657
  100SAPS   O3210041   5.826   6.487   6.706  0.1341 -0.4936 -0.3522
  100SAPS   C3210042   6.042   6.453   6.822 -0.9975  0.4065 -0.7804
  100SAPS   H2X10043   6.138   6.508   6.812 -1.1179  0.9843  0.9230
  100SAPS   H2Y10044   6.061   6.343   6.818 -0.0385  0.5088  0.4540
  100SAPS   C2310045   6.055   6.936   6.754  0.3489 -0.5569 -0.6552
  100SAPS   H3R10046   6.083   6.830   6.736 -1.6689 -1.1147 -0.7410
  100SAPS   H3S10047   5.982   6.943   6.838  1.4749  0.6749  0.2824
  100SAPS   C2410048   6.184   7.014   6.796  0.6321 -0.1832  0.0837
  100SAPS   H4R10049   6.269   7.001   6.726 -0.0109  1.0299 -0.9587
  100SAPS   H4S10050   6.225   6.969   6.888  1.9455 -1.9014 -1.2720
  100SAPS   C2510051   6.146   7.157   6.821  0.5609  0.3005 -0.0256
  100SAPS   H5R10052   6.165   7.213   6.728 -1.9279 -0.3694 -1.0110
  100SAPS   C2610053   6.104   7.218   6.934 -0.6590 -0.4831 -0.3535
  100SAPS   H6R10054   6.093   7.327   6.935  0.3667 -0.3084  3.2437
  100SAPS   C2710055   6.085   7.160   7.073  0.2800  0.0014 -0.1553
  100SAPS   H7R10056   6.011   7.078   7.059 -0.0199  0.6555 -3.0963
  100SAPS   H7S10057   6.035   7.241   7.131 -1.1384  0.3841 -1.8127
  100SAPS   C2810058   6.218   7.121   7.138 -0.2180 -0.9403  0.4719
  100SAPS   H8R10059   6.292   7.100   7.059 -0.5653  2.7549 -1.0758
  100SAPS   C2910060   6.247   7.131   7.270  0.3231  0.5624 -0.1509
  100SAPS   H9R10061   6.349   7.110   7.305  0.2933  1.3492  0.4428
  100SAPS  C21010062   6.156   7.171   7.386  0.8240  0.8240 -0.3138
  100SAPS  H10R10063   6.052   7.184   7.349  1.2023  1.6238 -1.1389
  100SAPS  H10S10064   6.190   7.266   7.431  0.7098  0.7224 -0.0128
  100SAPS  C21110065   6.157   7.063   7.490 -0.1221  0.6611 -0.2216
  100SAPS  H11R10066   6.071   6.994   7.486 -0.7995  1.5017 -0.4234
  100SAPS  C21210067   6.233   7.044   7.601 -0.2358 -0.2233 -0.1244
  100SAPS  H12R10068   6.218   6.958   7.668 -0.1186  0.0307  0.2261
  100SAPS  C21310069   6.357   7.119   7.642  0.1983 -0.6371 -0.2874
  100SAPS  H13R10070   6.327   7.171   7.735 -0.0847 -1.3739  0.0377
  100SAPS  H13S10071   6.378   7.206   7.575 -0.3769  1.2972  1.9347
  100SAPS  C21410072   6.473   7.018   7.663 -0.5561  0.1957 -0.5699
  100SAPS  H14R10073   6.500   6.956   7.576 -0.9199 -4.2660  2.1487
  100SAPS  C21510074   6.533   6.986   7.774 -0.2139 -0.0044 -0.2784
  100SAPS  H15R10075   6.616   6.915   7.766 -1.9663 -2.1519 -0.2586
  100SAPS  C21610076   6.510   7.060   7.908  0.7224 -0.5770 -0.3027
  100SAPS  H16R10077   6.407   7.098   7.918  1.2428  1.7617 -2.6451
  100SAPS  H16S10078   6.571   7.153   7.900  0.3084 -0.3490 -0.9237
  100SAPS  C21710079   6.554   6.970   8.021  0.0811 -0.1517 -0.7090
  100SAPS  H17R10080   6.659   6.935   8.004  2.0227  3.4150  2.3876
  100SAPS  H17S10081   6.488   6.880   8.019  0.6320 -0.5850 -3.3354
  100SAPS  C21810082   6.549   7.038   8.154  0.9079 -0.2117  0.7268
  100SAPS  H18R10083   6.443   7.060   8.179  0.9222  0.6530  0.0764
  100SAPS  H18S10084   6.592   7.140   8.155 -0.4522  0.3851  0.1852
  100SAPS  C21910085   6.607   6.960   8.269 -0.3710 -0.1382 -0.2696
  100SAPS  H19R10086   6.713   6.948   8.241 -0.7748  0.3253 -2.1516
  100SAPS  H19S10087   6.556   6.861   8.274 -0.2850 -0.1180  1.4764
  100SAPS  C22010088   6.583   7.034   8.408  0.3071  0.2699  0.0900
  100SAPS  H20R10089   6.625   7.137   8.405  0.8861  0.2845  3.8323
  100SAPS  H20S10090   6.640   6.981   8.488 -1.0177 -0.8485  0.3218
  100SAPS  H20T10091   6.475   7.025   8.433  0.5181 -0.4297  0.8009
  100SAPS   C3310092   5.978   6.485   6.957 -0.1817  0.5389  0.2007
  100SAPS   H3X10093   5.867   6.487   6.962 -0.1775 -1.0999  2.0373
  100SAPS   H3Y10094   6.012   6.585   6.993 -2.7743  1.1504  1.2161
  100SAPS   C3410095   6.014   6.373   7.063 -0.4519 -0.4759  0.3180
  100SAPS   H4X10096   6.124   6.360   7.069  0.2122  2.6602 -2.2676
  100SAPS   H4Y10097   5.980   6.272   7.032 -1.6267  0.3069 -1.0533
  100SAPS   C3510098   5.951   6.391   7.203  0.3279  0.8542 -0.6104
  100SAPS   H5X10099   5.841   6.389   7.220  0.3963 -1.4631 -0.0944
  100SAPS   H5Y10100   5.982   6.490   7.245  3.2632 -1.0801  2.3657
  100SAPS   C3610101   6.000   6.276   7.302  0.4683  0.2261 -0.0081
  100SAPS   H6X10102   6.107   6.299   7.319 -0.0993  1.5542  2.0750
  100SAPS   H6Y10103   5.983   6.176   7.255  0.9149 -0.6489  1.6234
  100SAPS   C3710104   5.932   6.282   7.441 -0.6377  1.0630 -0.0252
  100SAPS   H7X10105   5.821   6.271   7.439 -0.5504 -0.2074  1.0471
  100SAPS   H7Y10106   5.958   6.385   7.476  0.9686  0.1465  1.6917
  100SAPS   C3810107   5.986   6.183   7.547 -0.0617 -0.3421  0.0398
  100SAPS   H8X10108   6.093   6.204   7.565 -0.1099  2.1036 -1.8680
  100SAPS   H8Y10109   5.984   6.079   7.508 -1.3941  0.0140 -0.9284
  100SAPS   C3910110   5.911   6.182   7.684 -0.1739  0.2381  0.4143
  100SAPS   H9X10111   5.805   6.178   7.653  0.0421 -0.0181 -0.3222
  100SAPS   H9Y10112   5.934   6.279   7.732  0.6960  0.4443 -0.3878
  100SAPS  C31010113   5.946   6.060   7.781 -0.0840 -0.0763  0.8271
  100SAPS  H10X10114   5.934   5.978   7.707 -1.1120  0.2341  0.6359
  100SAPS  H10Y10115   5.871   6.059   7.862 -3.0788  0.3698 -1.7619
  100SAPS  C31110116   6.092   6.051   7.838  0.5479 -0.4356  0.0244
  100SAPS  H11X10117   6.164   6.080   7.757 -1.1492  0.0280 -1.3785
  100SAPS  H11Y10118   6.124   5.947   7.861 -0.7134 -0.6604  0.8587
  100SAPS  C31210119   6.114   6.156   7.952  0.5778  0.0849  0.8529
  100SAPS  H12X10120   6.056   6.248   7.928  2.4233  1.1367  0.2018
  100SAPS  H12Y10121   6.218   6.196   7.954  0.1701  1.1493  1.2939
  100SAPS  C31310122   6.058   6.105   8.091  0.5717 -0.0267  0.3244
  100SAPS  H13X10123   5.965   6.051   8.063 -0.0618  1.2851 -0.1937
  100SAPS  H13Y10124   6.031   6.190   8.158 -3.5118  0.2961 -1.4229
  100SAPS  C31410125   6.145   6.016   8.179  0.2379  0.0147 -0.6253
  100SAPS  H14X10126   6.228   6.065   8.234  0.0222 -0.3153 -0.0009
  100SAPS  H14Y10127   6.195   5.939   8.117  0.6965 -0.4713  0.3296
  100SAPS  C31510128   6.056   5.939   8.277  0.0476 -0.7723  0.1126
  100SAPS  H15X10129   5.973   5.897   8.216 -0.2740 -1.5317  1.0317
  100SAPS  H15Y10130   6.004   6.011   8.344 -0.8571 -0.6179 -0.7297
  100SAPS  C31610131   6.133   5.818   8.337 -0.7080 -0.0962 -0.6271
  100SAPS  H16X10132   6.219   5.857   8.396 -2.4790  2.5844  0.4077
  100SAPS  H16Y10133   6.159   5.751   8.253  1.9162  0.3191 -0.2246
  100SAPS  C31710134   6.045   5.737   8.436 -0.0965 -0.0876  0.5128
  100SAPS  H17X10135   5.957   5.706   8.376  1.3203  1.2947 -2.4561
  100SAPS  H17Y10136   6.018   5.798   8.525 -0.8445 -1.2399  1.0971
  100SAPS  C31810137   6.115   5.614   8.491 -0.2158 -0.6223 -0.0249
  100SAPS  H18X10138   6.169   5.573   8.404 -0.5381  0.4046 -0.7383
  100SAPS  H18Y10139   6.043   5.533   8.514  1.2752 -0.9084  4.6035
  100SAPS  H18Z10140   6.179   5.638   8.578 -0.5314  0.5052 -0.0854
  101OSM      N10141   5.754   6.618  11.110  0.8484  0.1785 -0.5476
  101OSM    C1510142   5.718   6.548  11.237 -0.4599 -0.8328 -0.1606
  101OSM   H15A10143   5.767   6.583  11.327 -1.2369 -1.8010  0.6744
  101OSM   H15B10144   5.748   6.444  11.239  2.4213 -0.0734  1.4513
  101OSM   H15C10145   5.611   6.551  11.255 -0.8550  1.6431 -2.3652
  101OSM    C1410146   5.667   6.576  10.992 -0.0814  0.3177 -0.1428
  101OSM   H14A10147   5.714   6.599  10.897  1.0332  1.6179  0.6940
  101OSM   H14B10148   5.580   6.639  10.980 -0.0188  0.2422 -1.1498
  101OSM   H14C10149   5.640   6.472  10.985  1.8912 -0.1780 -0.8933
  101OSM    C1310150   5.726   6.756  11.136 -0.2393  0.0295  0.1574
  101OSM   H13A10151   5.769   6.797  11.226 -0.7328 -0.3927  0.5928
  101OSM   H13B10152   5.622   6.783  11.148 -1.0552 -2.1616 -1.2717
  101OSM   H13C10153   5.760   6.817  11.053  0.5751  1.0141  1.1915
  101OSM    C1210154   5.903   6.605  11.096  0.0761 -0.0324  0.1740
  101OSM   H12A10155   5.929   6.502  11.079 -0.4483 -0.1660  0.1646
  101OSM   H12B10156   5.949   6.623  11.192  3.2479 -1.7501 -0.8914
  101OSM    C1110157   5.966   6.687  10.980 -0.8117 -0.4898  0.2607
  101OSM   H11A10158   6.075   6.669  10.981 -0.2244  2.5123  0.2583
  101OSM   H11B10159   5.958   6.796  10.999  1.6328  0.1505 -1.8036
  101OSM      P10160   5.973   6.514  10.792 -0.4654 -0.1505  0.0113
  101OSM    O1310161   6.096   6.542  10.724  0.2788  0.3510 -0.0950
  101OSM    O1410162   5.972   6.391  10.876 -0.1916 -0.3519 -0.3587
  101OSM    O1110163   5.866   6.469  10.687  0.2308 -0.3019  0.2718
  101OSM    O1210164   5.918   6.646  10.855  0.3976  0.9880 -0.1438
  101OSM    C1S10165   5.788   6.559  10.607 -0.1567 -0.3086 -0.0085
  101OSM    H1S10166   5.854   6.625  10.547 -1.6224  1.3654  0.1355
  101OSM    H1T10167   5.721   6.629  10.662  1.4715  1.7152 -0.4920
  101OSM     NF10168   5.657   6.565  10.391 -0.2053 -0.2492  0.3590
  101OSM    HNF10169   5.566   6.605  10.393 -0.2661 -0.2406 -1.1339
  101OSM    C2S10170   5.699   6.481  10.499 -0.0458  0.1366 -0.0877
  101OSM    H2S10171   5.768   6.398  10.470 -2.0896 -0.4324 -3.8831
  101OSM    C3S10172   5.588   6.415  10.583 -0.3733  0.1161  0.1171
  101OSM    H3S10173   5.516   6.498  10.599  0.6365  1.2801 -1.0825
  101OSM     O310174   5.635   6.354  10.704  0.5060  0.7476  0.2177
  101OSM    HO310175   5.723   6.387  10.721  0.6775  1.2827 -1.4948
  101OSM    C4S10176   5.509   6.313  10.507  0.1125 -0.3700  0.2026
  101OSM    H4S10177   5.407   6.354  10.496  1.4419  3.0615 -0.6738
  101OSM    C5S10178   5.536   6.184  10.483  0.5986  0.0935 -0.2341
  101OSM    H5S10179   5.627   6.144  10.529  0.0708  1.6728  2.4057
  101OSM    C6S10180   5.434   6.097  10.411  0.0215  0.0333  0.5932
  101OSM    H6S10181   5.332   6.138  10.396  0.5118  0.3223 -2.6951
  101OSM    H6T10182   5.428   6.001  10.468 -3.5724  0.4223  1.1050
  101OSM    C7S10183   5.483   6.063  10.275 -0.3702  1.1246 -0.4838
  101OSM    H7S10184   5.408   5.991  10.237  0.4664  0.8621 -1.6941
  101OSM    H7T10185   5.575   6.001  10.270  0.0889  1.2166  3.5031
  101OSM    C8S10186   5.486   6.179  10.167  0.7715  0.1730  0.1943
  101OSM    H8S10187   5.574   6.240  10.198  1.9487 -1.7434  0.8405
  101OSM    H8T10188   5.390   6.234  10.174  0.0039 -1.1335  0.3564
  101OSM    C9S10189   5.500   6.126  10.024  0.4167 -0.0186 -0.2087
  101OSM    H9S10190   5.406   6.069  10.007  0.1396 -0.2237  1.7982
  101OSM    H9T10191   5.583   6.055  10.003 -0.5788 -1.0068 -0.9407
  101OSM   C10S10192   5.509   6.234   9.924 -0.0016 -1.0061 -0.0872
  101OSM   H10S10193   5.616   6.264   9.922 -0.1774 -0.2862  0.7137
  101OSM   H10T10194   5.439   6.311   9.963 -0.5442 -1.4107 -0.2410
  101OSM   C11S10195   5.467   6.180   9.790 -0.9365  0.0617  0.1275
  101OSM   H11S10196   5.455   6.261   9.715 -0.9306 -1.0180 -1.0690
  101OSM   H11T10197   5.370   6.129   9.809 -0.3118 -1.3764 -0.4064
  101OSM   C12S10198   5.573   6.080   9.736 -0.0660 -0.3605 -0.7344
  101OSM   H12S10199   5.601   5.995   9.802 -2.2541 -1.1981 -0.8193
  101OSM   H12T10200   5.670   6.132   9.723 -0.8292  1.8174  1.5884
  101OSM   C13S10201   5.521   6.005   9.612 -0.5710  0.7359 -0.5419
  101OSM   H13S10202   5.418   5.970   9.633  0.2375 -1.9127 -0.6058
  101OSM   H13T10203   5.585   5.915   9.598 -1.8137 -0.0751 -1.1975
  101OSM   C14S10204   5.525   6.078   9.476  0.0691  0.3141  0.7487
  101OSM   H14S10205   5.633   6.100   9.463 -0.0323  1.5693  1.8516
  101OSM   H14T10206   5.482   6.179   9.492 -0.0290  0.8652 -2.4548
  101OSM   C15S10207   5.456   6.013   9.364  0.2310  0.2045  0.7475
  101OSM   H15S10208   5.468   6.081   9.277 -0.1491  0.7877  1.1437
  101OSM   H15T10209   5.345   6.009   9.370  0.2587  1.3391  3.4199
  101OSM   C16S10210   5.524   5.880   9.320 -0.5139  0.7168  0.6621
  101OSM   H16S10211   5.498   5.799   9.392 -1.7041  0.6706  0.2102
  101OSM   H16T10212   5.632   5.883   9.299 -0.4211 -2.0420  0.4257
  101OSM   C17S10213   5.464   5.830   9.182 -0.4069  0.1401  0.5418
  101OSM   H17S10214   5.501   5.726   9.169  0.3242  0.6655 -2.2891
  101OSM   H17T10215   5.513   5.882   9.097 -0.8819 -0.6744 -0.2480
  101OSM   C18S10216   5.313   5.822   9.173  0.6277  0.5895 -0.1591
  101OSM   H18S10217   5.273   5.925   9.159  2.1829  1.2113 -0.2918
  101OSM   H18T10218   5.273   5.772   9.264  0.4036 -0.1259 -0.6458
  101OSM   H18U10219   5.280   5.760   9.087 -1.9663  2.0914 -0.3320
  101OSM    C1F10220   5.738   6.613  10.295  0.2558  0.1185  0.6856
  101OSM     OF10221   5.858   6.596  10.306 -0.1090 -0.2634  0.0942
  101OSM    C2F10222   5.680   6.697  10.187 -0.0568  0.0686  0.0569
  101OSM    H2F10223   5.759   6.753  10.132 -0.2283  2.0440  1.6816
  101OSM    H2G10224   5.616   6.773  10.237 -4.5580 -1.8255 -2.2899
  101OSM    C3F10225   5.585   6.625  10.085 -0.4041  1.0945  0.4266
  101OSM    H3F10226   5.514   6.556  10.134 -0.6197 -0.6438 -2.1108
  101OSM    H3G10227   5.651   6.565  10.019 -0.5438  2.0861 -0.6552
  101OSM    C4F10228   5.504   6.723  10.003  0.1668  0.0557 -0.5721
  101OSM    H4F10229   5.420   6.771  10.057  0.1093  0.3147 -0.8884
  101OSM    H4G10230   5.444   6.663   9.931 -0.1902 -1.1744  0.7078
  101OSM    C5F10231   5.589   6.828   9.927 -0.6542  0.2001 -0.1085
  101OSM    H5F10232   5.688   6.781   9.910 -1.2646 -0.8340 -0.9567
  101OSM    H5G10233   5.601   6.918   9.992 -0.4163  0.3130 -0.3068
  101OSM    C6F10234   5.528   6.876   9.792  0.2053 -0.2632 -0.3964
  101OSM    H6F10235   5.524   6.787   9.726 -1.5884  0.1195 -0.8676
  101OSM    H6G10236   5.597   6.940   9.733 -0.7063 -2.2449 -3.9288
  101OSM    C7F10237   5.395   6.948   9.808  0.3464 -0.5993 -0.3283
  101OSM    H7F10238   5.397   7.028   9.885 -0.3197 -0.8278 -0.0660
  101OSM    H7G10239   5.317   6.874   9.839 -0.3795  0.4727  0.4777
  101OSM    C8F10240   5.349   7.007   9.674 -0.2079  0.3811 -0.3479
  101OSM    H8F10241   5.386   6.944   9.590  0.0957  0.4195 -0.2448
  101OSM    H8G10242   5.413   7.097   9.664  2.5684 -1.2772  1.1305
  101OSM    C9F10243   5.204   7.038   9.656  0.1871 -0.1982 -0.1527
  101OSM    H9F10244   5.155   7.120   9.709 -3.4238 -1.8983 -0.5769
  101OSM   C10F10245   5.120   6.970   9.577 -0.0805  0.6851  0.8251
  101OSM   H10F10246   5.016   6.996   9.553 -0.4855 -2.1071 -0.9491
  101OSM   C11F10247   5.168   6.841   9.510 -0.7672  0.3938  0.4881
  101OSM   H11F10248   5.078   6.776   9.522 -0.4329 -0.1963 -0.1446
  101OSM   H11G10249   5.261   6.805   9.559 -1.1413 -1.8956 -0.3715
  101OSM   C12F10250   5.176   6.853   9.360  0.9186 -0.1266 -0.1634
  101OSM   H12F10251   5.089   6.902   9.311  1.3627  0.0834 -0.7606
  101OSM   H12G10252   5.188   6.753   9.313 -0.8344 -0.3265 -0.2419
  101OSM   C13F10253   5.300   6.938   9.317  0.4616  0.0597  0.0643
  101OSM   H13F10254   5.388   6.879   9.349 -0.7334 -1.6458  0.3662
  101OSM   H13G10255   5.306   7.033   9.374  0.9690  0.3595 -0.4782
  101OSM   C14F10256   5.309   6.984   9.178 -0.2159 -0.8227 -0.2851
  101OSM   H14F10257   5.230   7.060   9.160  1.6442  1.2760 -0.0445
  101OSM   H14G10258   5.305   6.906   9.099 -0.4488 -0.2370 -0.8637
  101OSM   C15F10259   5.447   7.047   9.154 -0.0375 -0.8505 -0.4427
  101OSM   H15F10260   5.518   7.006   9.228  1.2451  0.4894 -0.8923
  101OSM   H15G10261   5.442   7.153   9.186 -0.3223 -1.7462  2.8077
  101OSM   C16F10262   5.503   7.044   9.014 -0.5429 -0.1712 -0.2104
  101OSM   H16F10263   5.528   6.939   8.989 -1.8088 -0.1548 -1.6962
  101OSM   H16G10264   5.608   7.080   9.026 -0.6344  0.1664 -0.4089
  101OSM   C17F10265   5.424   7.111   8.901 -0.0956 -0.3670  0.1281
  101OSM   H17F10266   5.397   7.216   8.928  2.2009  0.1256  0.7313
  101OSM   H17G10267   5.330   7.053   8.892 -0.1252 -0.4474  0.8781
  101OSM   C18F10268   5.484   7.107   8.757  0.1280 -0.4987 -0.1268
  101OSM   H18F10269   5.408   7.137   8.681 -0.1337  0.7529  0.6030
  101OSM   H18G10270   5.521   7.005   8.734 -0.7884 -0.3228 -2.7099
  101OSM   H18H10271   5.574   7.172   8.750  0.0190 -0.3078  0.2397
  102OSM      N10272   3.541   5.432  10.662 -0.5492 -0.1716 -0.1477
  102OSM    C1510273   3.498   5.373  10.532 -0.3327 -0.1852  0.0283
  102OSM   H15A10274   3.518   5.439  10.449 -1.8366  1.1486  0.6707
  102OSM   H15B10275   3.391   5.362  10.518 -0.2783  1.9095 -2.9106
  102OSM   H15C10276   3.551   5.282  10.507 -0.1642  0.1554 -0.8894
  102OSM    C1410277   3.491   5.574  10.671  0.9348  0.2146 -0.0139
  102OSM   H14A10278   3.505   5.615  10.770  3.2324 -0.6017  0.0508
  102OSM   H14B10279   3.384   5.567  10.658  0.8473 -2.4742  1.4452
  102OSM   H14C10280   3.517   5.646  10.594  0.5652  0.4969  0.1216
  102OSM    C1310281   3.481   5.347  10.775 -0.7490 -0.3181  0.8651
  102OSM   H13A10282   3.530   5.251  10.787  1.8465  1.0801  2.3224
  102OSM   H13B10283   3.376   5.329  10.760 -0.3061 -0.7241 -2.4255
  102OSM   H13C10284   3.496   5.395  10.871 -2.1083  0.9143  0.4941
  102OSM    C1210285   3.698   5.424  10.670  0.0655 -0.6806  0.1000
  102OSM   H12A10286   3.729   5.486  10.753  0.8895 -0.9200 -0.0254
  102OSM   H12B10287   3.749   5.470  10.587  1.6124 -3.6299 -0.6995
  102OSM    C1110288   3.773   5.293  10.685  0.5594  0.0077 -0.1369
  102OSM   H11A10289   3.744   5.241  10.779 -1.7308 -0.8529 -1.2426
  102OSM   H11B10290   3.881   5.318  10.681  0.2840  1.0831 -2.5063
  102OSM      P10291   3.742   5.047  10.602 -0.4084  0.0902 -0.0156
  102OSM    O1310292   3.814   5.015  10.726  0.1602  0.1436  0.8231
  102OSM    O1410293   3.604   4.992  10.579 -0.1236  0.8251 -0.0536
  102OSM    O1110294   3.825   4.995  10.476  0.7193  0.0401  0.4354
  102OSM    O1210295   3.746   5.208  10.574  0.0607 -0.1045 -0.2540
  102OSM    C1S10296   3.780   4.938  10.355  0.1255  0.6053  0.3631
  102OSM    H1S10297   3.701   5.003  10.312  1.4177  0.2216 -2.9388
  102OSM    H1T10298   3.746   4.836  10.382 -1.3450  0.9766 -0.0154
  102OSM     NF10299   3.826   4.877  10.121 -0.2728 -0.2599  0.5990
  102OSM    HNF10300   3.830   4.779  10.106  2.5514 -0.1803  0.2964
  102OSM    C2S10301   3.890   4.914  10.249 -0.9108  0.4204  0.7915
  102OSM    H2S10302   3.939   5.013  10.239  1.6132 -0.5641  2.4814
  102OSM    C3S10303   3.999   4.809  10.289 -0.0664 -0.4667  0.7327
  102OSM    H3S10304   3.962   4.707  10.267 -0.6290  0.5064 -3.6891
  102OSM     O310305   4.047   4.830  10.420 -0.3419 -0.5002  0.5503
  102OSM    HO310306   3.979   4.887  10.457  0.4971 -0.4152  2.0310
  102OSM    C4S10307   4.117   4.815  10.194 -0.3001 -0.4694 -0.7221
  102OSM    H4S10308   4.100   4.747  10.109  0.4102 -1.5347 -0.0355
  102OSM    C5S10309   4.223   4.895  10.200 -0.4203 -0.2579 -0.1391
  102OSM    H5S10310   4.223   4.965  10.285 -1.6160 -1.2022  0.6829
  102OSM    C6S10311   4.342   4.916  10.105  0.0752  0.4436  0.0483
  102OSM    H6S10312   4.428   4.863  10.152 -1.4660 -2.0463  0.2179
  102OSM    H6T10313   4.352   5.026  10.093  0.0461  0.3144 -1.2589
  102OSM    C7S10314   4.310   4.871   9.961 -0.0882 -0.2859  0.0202
  102OSM    H7S10315   4.214   4.924   9.942  0.4216  0.0121 -2.0175
  102OSM    H7T10316   4.285   4.763   9.960  0.1248 -0.4045  2.4265
  102OSM    C8S10317   4.406   4.929   9.854 -0.3166 -0.3914  0.2294
  102OSM    H8S10318   4.514   4.916   9.879 -0.0506  1.5451  0.2115
  102OSM    H8T10319   4.392   5.039   9.863  1.0065 -0.0851 -0.9949
  102OSM    C9S10320   4.375   4.890   9.703  0.1495  0.6678 -0.3432
  102OSM    H9S10321   4.271   4.921   9.680  0.0599  0.3152 -0.4192
  102OSM    H9T10322   4.391   4.780   9.701  1.5690  0.7387  2.1021
  102OSM   C10S10323   4.462   4.956   9.595  0.7784  0.0664  0.4131
  102OSM   H10S10324   4.565   4.914   9.592  1.4857  1.7422 -2.9192
  102OSM   H10T10325   4.466   5.065   9.618 -0.8214  0.4594 -0.9893
  102OSM   C11S10326   4.403   4.935   9.457  0.0591 -0.0913 -0.4182
  102OSM   H11S10327   4.298   4.972   9.463  0.6141  1.7090 -1.2855
  102OSM   H11T10328   4.392   4.826   9.439  0.9738 -0.2505 -0.0388
  102OSM   C12S10329   4.479   5.011   9.352 -0.0414 -0.3687  0.2512
  102OSM   H12S10330   4.585   4.977   9.344 -0.1364 -0.4848 -0.5803
  102OSM   H12T10331   4.480   5.115   9.392  2.3301 -0.2069 -0.0480
  102OSM   C13S10332   4.417   4.986   9.213 -0.2746 -1.2292 -0.2100
  102OSM   H13S10333   4.315   5.029   9.221 -1.0907 -3.3086  1.4458
  102OSM   H13T10334   4.392   4.878   9.208 -1.2419 -0.9929 -0.5796
  102OSM   C14S10335   4.505   5.017   9.097  0.5255  0.0982 -0.1266
  102OSM   H14S10336   4.595   4.952   9.097 -1.1026 -2.3130  1.4864
  102OSM   H14T10337   4.542   5.122   9.089 -0.0781  0.2867 -0.5511
  102OSM   C15S10338   4.424   4.978   8.966  0.4073 -0.7474 -0.8888
  102OSM   H15S10339   4.347   5.058   8.959  1.2836  0.0496 -1.7092
  102OSM   H15T10340   4.373   4.881   8.983 -3.2676  1.3716  2.1461
  102OSM   C16S10341   4.505   4.973   8.836  0.5142 -0.1562  0.4053
  102OSM   H16S10342   4.585   4.895   8.839  0.2915 -0.4378 -0.6229
  102OSM   H16T10343   4.558   5.066   8.807  2.4260 -1.0270  0.9091
  102OSM   C17S10344   4.400   4.962   8.719  0.2841 -0.3378 -0.2525
  102OSM   H17S10345   4.369   5.061   8.680  0.7972 -0.8312 -2.0171
  102OSM   H17T10346   4.316   4.901   8.758  0.1993  0.0705  0.2034
  102OSM   C18S10347   4.460   4.892   8.592 -0.0844 -0.3562  0.3495
  102OSM   H18S10348   4.378   4.870   8.520  0.7094 -0.2599 -0.6108
  102OSM   H18T10349   4.501   4.791   8.609 -1.6405 -0.8770  1.2200
  102OSM   H18U10350   4.531   4.963   8.544 -0.5850  1.0355  1.5745
  102OSM    C1F10351   3.758   4.972  10.054 -0.2095 -0.1515 -0.2815
  102OSM     OF10352   3.766   5.089  10.093  0.8190  0.2459  0.6495
  102OSM    C2F10353   3.681   4.926   9.931 -0.4079  0.1594  0.2347
  102OSM    H2F10354   3.601   4.853   9.955  0.6987 -0.3839  2.5168
  102OSM    H2G10355   3.753   4.881   9.859  0.4896  1.2723  0.4094
  102OSM    C3F10356   3.607   5.047   9.864  0.4959 -0.0817  0.0290
  102OSM    H3F10357   3.683   5.128   9.859  1.3480 -0.8722 -0.4436
  102OSM    H3G10358   3.530   5.059   9.943 -1.2913 -2.7335 -1.1665
  102OSM    C4F10359   3.553   5.032   9.722  0.1253 -0.2654  0.3458
  102OSM    H4F10360   3.469   5.103   9.706  1.8113  1.6014 -0.5772
  102OSM    H4G10361   3.507   4.931   9.712  1.9325 -1.3260  2.0245
  102OSM    C5F10362   3.662   5.039   9.616 -0.0244  0.3004 -0.4036
  102OSM    H5F10363   3.711   4.940   9.619 -2.0155 -0.7781 -1.3685
  102OSM    H5G10364   3.736   5.120   9.635 -0.2029  0.0947  1.4222
  102OSM    C6F10365   3.602   5.049   9.474  0.1008 -0.0017 -0.5094
  102OSM    H6F10366   3.548   5.146   9.473  1.3234  0.7198  0.4007
  102OSM    H6G10367   3.526   4.969   9.462  0.2005 -0.0379 -0.9101
  102OSM    C7F10368   3.703   5.043   9.354  0.7965  0.2544 -0.0402
  102OSM    H7F10369   3.746   4.941   9.349  3.9312  1.2808  2.5584
  102OSM    H7G10370   3.779   5.122   9.373 -0.2428  0.9758  1.2812
  102OSM    C8F10371   3.635   5.082   9.211  0.1797  0.3061  0.2698
  102OSM    H8F10372   3.603   5.187   9.229  1.3510  0.3048  2.6984
  102OSM    H8G10373   3.555   5.009   9.191 -1.6135  2.0003  0.9345
  102OSM    C9F10374   3.732   5.078   9.095 -0.0050  0.1149 -0.0953
  102OSM    H9F10375   3.823   5.026   9.128 -1.5590 -0.0970  4.6919
  102OSM   C10F10376   3.704   5.138   8.981  0.1552  0.1513  0.0463
  102OSM   H10F10377   3.774   5.128   8.897  0.6315 -2.1261  0.6550
  102OSM   C11F10378   3.576   5.198   8.938  0.8739 -0.5323 -0.3387
  102OSM   H11F10379   3.590   5.298   8.891 -3.5760  1.7229  2.4051
  102OSM   H11G10380   3.509   5.221   9.024  0.7180 -1.0759 -0.3091
  102OSM   C12F10381   3.482   5.119   8.847  0.5084  0.1337 -0.0428
  102OSM   H12F10382   3.377   5.157   8.851 -0.2901 -1.6218 -2.2721
  102OSM   H12G10383   3.477   5.017   8.892  0.8704 -0.6526 -1.7227
  102OSM   C13F10384   3.521   5.117   8.699 -0.3073 -0.6174 -0.1042
  102OSM   H13F10385   3.629   5.092   8.700 -0.0640  0.3007  1.6356
  102OSM   H13G10386   3.517   5.219   8.654  1.9792  1.0520  3.0578
  102OSM   C14F10387   3.436   5.016   8.616 -0.5127  0.0890  0.0932
  102OSM   H14F10388   3.328   5.043   8.608 -0.7385 -0.5652  0.8165
  102OSM   H14G10389   3.448   4.915   8.661 -1.9381 -0.2845 -0.3082
  102OSM   C15F10390   3.494   5.014   8.474  0.0455 -0.0420  0.7667
  102OSM   H15F10391   3.595   4.972   8.490  1.8930  4.5034  2.5442
  102OSM   H15G10392   3.514   5.117   8.436  1.4081 -0.3957  0.4782
  102OSM   C16F10393   3.409   4.927   8.374  0.0000 -0.6555  0.1183
  102OSM   H16F10394   3.440   4.950   8.270 -1.6680  0.7954 -0.1075
  102OSM   H16G10395   3.300   4.949   8.370 -0.4875 -2.9568 -0.7196
  102OSM   C17F10396   3.415   4.776   8.392 -0.1669 -0.3941 -0.1892
  102OSM   H17F10397   3.389   4.742   8.289  1.6649  2.1143 -1.6083
  102OSM   H17G10398   3.333   4.748   8.462 -1.2811  0.5324 -1.0752
  102OSM   C18F10399   3.541   4.702   8.429 -0.2774 -0.5663 -1.2757
  102OSM   H18F10400   3.529   4.592   8.418 -2.8918 -0.3518 -1.1126
  102OSM   H18G10401   3.574   4.724   8.533 -2.3876 -0.3236 -0.6118
  102OSM   H18H10402   3.627   4.727   8.364 -0.5925 -0.3109 -1.5981
  103OSM      N10403   3.280   2.496  10.844  0.5817  0.0343 -0.0633
  103OSM    C1510404   3.143   2.480  10.911 -0.6186 -0.2580 -0.8902
  103OSM   H15A10405   3.155   2.508  11.015 -3.0601 -0.5920 -0.4425
  103OSM   H15B10406   3.104   2.379  10.915  1.0672 -0.9247 -0.1562
  103OSM   H15C10407   3.067   2.546  10.871  0.3743  0.7871 -1.1020
  103OSM    C1410408   3.383   2.402  10.901  0.3369  0.0473  0.0836
  103OSM   H14A10409   3.436   2.443  10.985  0.4102  2.6610 -1.1366
  103OSM   H14B10410   3.445   2.391  10.813 -1.9881  2.4430 -2.0207
  103OSM   H14C10411   3.355   2.298  10.901 -0.1945  0.1856 -0.1578
  103OSM    C1310412   3.259   2.460  10.700  0.1505 -0.0106  0.6700
  103OSM   H13A10413   3.344   2.482  10.637  0.8195  0.4605  1.7149
  103OSM   H13B10414   3.179   2.517  10.656  1.1669  1.1648  0.2888
  103OSM   H13C10415   3.229   2.356  10.691  1.7702 -0.6970  2.4306
  103OSM    C1210416   3.331   2.643  10.870 -0.1582 -0.1861 -0.3624
  103OSM   H12A10417   3.424   2.662  10.819 -0.9085  1.3226 -1.2332
  103OSM   H12B10418   3.359   2.656  10.973  0.3663  0.4761 -0.5863
  103OSM    C1110419   3.230   2.757  10.831 -0.1502  0.1785  0.3037
  103OSM   H11A10420   3.284   2.851  10.856 -0.9122  0.7273 -0.0695
  103OSM   H11B10421   3.141   2.748  10.897  0.4086  0.7126  1.1524
  103OSM      P10422   3.255   2.807  10.580 -0.2806 -0.3446 -0.2078
  103OSM    O1310423   3.171   2.898  10.506 -0.0654  0.1786  0.2894
  103OSM    O1410424   3.378   2.871  10.628 -0.1777  0.1103 -0.0322
  103OSM    O1110425   3.293   2.674  10.495 -0.1660  0.0173  0.6847
  103OSM    O1210426   3.168   2.748  10.702  0.3536 -0.3416 -0.0168
  103OSM    C1S10427   3.342   2.681  10.363  0.6877  0.7642 -0.6345
  103OSM    H1S10428   3.450   2.653  10.365 -0.4088 -4.3614 -1.0109
  103OSM    H1T10429   3.349   2.784  10.322 -1.5968  0.7611 -1.1621
  103OSM     NF10430   3.356   2.571  10.137 -0.2353  0.1443  0.1772
  103OSM    HNF10431   3.318   2.613  10.055  1.1681 -0.4183 -0.8024
  103OSM    C2S10432   3.282   2.578  10.262 -0.2920  0.9665  0.5783
  103OSM    H2S10433   3.285   2.475  10.303 -2.0843  1.2269  1.4684
  103OSM    C3S10434   3.129   2.612  10.252 -0.1023  0.1621  0.0174
  103OSM    H3S10435   3.125   2.722  10.231 -2.9243  0.3714  1.2322
  103OSM     O310436   3.062   2.596  10.379  0.8124 -0.3451  0.1438
  103OSM    HO310437   3.130   2.613  10.445  0.7577  2.3758 -0.3835
  103OSM    C4S10438   3.060   2.533  10.138  0.4203  0.1349 -0.3479
  103OSM    H4S10439   3.094   2.566  10.038  0.6553 -0.8401 -0.6041
  103OSM    C5S10440   2.983   2.420  10.141 -0.4225  0.5785  0.3278
  103OSM    H5S10441   2.954   2.377  10.238 -0.1694  2.4454  1.2684
  103OSM    C6S10442   2.904   2.354  10.031 -0.2700  0.4985  0.2256
  103OSM    H6S10443   2.796   2.371  10.052 -0.6400  1.3312 -2.0557
  103OSM    H6T10444   2.922   2.245  10.039  0.2415  0.4848 -0.9107
  103OSM    C7S10445   2.954   2.400   9.887 -0.0856 -0.1245  0.9421
  103OSM    H7S10446   3.065   2.397   9.876  0.2658  2.0105  3.0242
  103OSM    H7T10447   2.923   2.503   9.858  0.4767 -0.1475  0.2132
  103OSM    C8S10448   2.893   2.313   9.772  0.0856  0.9168 -0.4679
  103OSM    H8S10449   2.783   2.327   9.772 -0.1483 -0.8166 -0.1672
  103OSM    H8T10450   2.919   2.207   9.789 -0.5379  0.9206  0.6099
  103OSM    C9S10451   2.945   2.349   9.635 -0.2495  0.5421 -0.0708
  103OSM    H9S10452   3.054   2.368   9.644  0.1004 -1.1261 -0.2867
  103OSM    H9T10453   2.897   2.442   9.599  1.6018  1.4978 -0.1933
  103OSM   C10S10454   2.932   2.234   9.536  0.5182  0.2592 -0.3960
  103OSM   H10S10455   2.835   2.182   9.548  1.4321 -1.5462 -0.5073
  103OSM   H10T10456   2.998   2.150   9.564 -0.9050 -1.3303 -1.5540
  103OSM   C11S10457   2.956   2.270   9.393 -0.0468 -0.5275 -0.1588
  103OSM   H11S10458   3.063   2.293   9.379 -0.2743  0.3783 -0.4594
  103OSM   H11T10459   2.896   2.351   9.348  1.2796 -1.0169 -2.9884
  103OSM   C12S10460   2.912   2.150   9.305  0.6076 -0.6584  0.6273
  103OSM   H12S10461   2.801   2.154   9.308  0.6786  1.2750  1.5549
  103OSM   H12T10462   2.934   2.053   9.355 -0.6254 -1.3149 -0.0381
  103OSM   C13S10463   2.966   2.139   9.166 -0.2253 -0.4547 -0.1028
  103OSM   H13S10464   2.919   2.224   9.112 -1.8799 -0.2048  1.6260
  103OSM   H13T10465   2.922   2.051   9.114  0.6544  0.2795 -2.2097
  103OSM   C14S10466   3.115   2.139   9.147 -0.1093  0.8738 -0.2735
  103OSM   H14S10467   3.159   2.064   9.217  0.6825 -0.3336 -1.9846
  103OSM   H14T10468   3.157   2.230   9.194 -1.1328 -0.0298  2.6746
  103OSM   C15S10469   3.148   2.123   9.000 -0.2232 -0.6782 -0.5852
  103OSM   H15S10470   3.158   2.227   8.963 -0.4066  0.0352  1.3019
  103OSM   H15T10471   3.068   2.072   8.940  0.3825 -1.0403 -1.1044
  103OSM   C16S10472   3.287   2.067   8.973 -0.0067  0.1857  0.0386
  103OSM   H16S10473   3.272   1.957   8.970  2.5365 -0.2285  0.0187
  103OSM   H16T10474   3.341   2.109   9.060  0.0021 -2.0330  1.1496
  103OSM   C17S10475   3.347   2.117   8.839 -0.5805  0.0866 -0.3621
  103OSM   H17S10476   3.449   2.076   8.822 -0.4103 -0.0860  0.9301
  103OSM   H17T10477   3.359   2.227   8.850  2.6441 -0.2986  1.3611
  103OSM   C18S10478   3.264   2.079   8.721 -0.2821 -0.4533 -0.2257
  103OSM   H18S10479   3.162   2.118   8.742  0.2821 -0.1302  2.2155
  103OSM   H18T10480   3.249   1.969   8.720  1.2557 -0.6740 -0.4127
  103OSM   H18U10481   3.305   2.116   8.624  0.4797  0.7925  0.5459
  103OSM    C1F10482   3.472   2.505  10.135  0.1766 -0.2965 -0.0587
  103OSM     OF10483   3.516   2.457  10.241 -0.6149  0.0875 -0.3152
  103OSM    C2F10484   3.554   2.491  10.004 -0.4573  0.0510  0.4666
  103OSM    H2F10485   3.607   2.585   9.980  2.2199 -1.8484 -1.7033
  103OSM    H2G10486   3.480   2.466   9.925  1.0888  1.1817 -1.4197
  103OSM    C3F10487   3.664   2.384  10.015  0.7981 -1.0031  0.0040
  103OSM    H3F10488   3.624   2.287  10.052 -1.4965 -0.4445 -0.8160
  103OSM    H3G10489   3.740   2.426  10.085  1.1846  1.0987 -1.5844
  103OSM    C4F10490   3.726   2.346   9.874 -0.4160 -0.2754 -0.5543
  103OSM    H4F10491   3.826   2.305   9.899 -0.1205 -1.1391 -2.8605
  103OSM    H4G10492   3.751   2.434   9.810  1.2475  0.7684  1.4101
  103OSM    C5F10493   3.636   2.259   9.784  0.2552  0.0431 -0.3384
  103OSM    H5F10494   3.539   2.312   9.770  0.1862 -0.2407 -0.9645
  103OSM    H5G10495   3.601   2.161   9.823  1.8398 -1.0165 -1.5007
  103OSM    C6F10496   3.704   2.248   9.653 -0.0606  0.4958 -0.2197
  103OSM    H6F10497   3.805   2.203   9.658  0.1476  1.1249  1.8624
  103OSM    H6G10498   3.722   2.350   9.613  1.5890  1.2286  2.2344
  103OSM    C7F10499   3.617   2.174   9.551  0.0494 -0.0506  0.2836
  103OSM    H7F10500   3.518   2.222   9.538 -0.6419 -1.4579  0.1473
  103OSM    H7G10501   3.600   2.071   9.588 -0.7387 -0.0164  0.0277
  103OSM    C8F10502   3.690   2.178   9.416  0.7354 -0.1406  0.1785
  103OSM    H8F10503   3.796   2.152   9.431  0.5483 -1.2082 -0.2370
  103OSM    H8G10504   3.692   2.282   9.377  0.5769 -1.0854 -2.6458
  103OSM    C9F10505   3.627   2.085   9.311 -0.0629  0.1187 -0.2392
  103OSM    H9F10506   3.580   1.992   9.347  2.8780 -2.3704 -2.2408
  103OSM   C10F10507   3.646   2.090   9.183 -1.1265 -0.3962 -0.2091
  103OSM   H10F10508   3.587   2.013   9.132 -2.9890  0.4109  0.6177
  103OSM   C11F10509   3.723   2.190   9.103  0.4949 -0.0718 -0.7693
  103OSM   H11F10510   3.786   2.263   9.159  1.3239 -2.3060  1.4141
  103OSM   H11G10511   3.676   2.266   9.038  1.7239  1.6508  0.2687
  103OSM   C12F10512   3.827   2.121   9.015 -0.8893 -0.5987  0.2301
  103OSM   H12F10513   3.909   2.081   9.077  0.3503 -2.1916 -2.2635
  103OSM   H12G10514   3.875   2.202   8.955 -1.3659  1.6744  2.7435
  103OSM   C13F10515   3.765   2.013   8.918 -0.3618 -0.0755  0.0003
  103OSM   H13F10516   3.766   1.918   8.976 -2.4358  0.0964  0.3838
  103OSM   H13G10517   3.657   2.035   8.906 -0.8855  0.2151  3.8809
  103OSM   C14F10518   3.854   1.994   8.794  0.2888  0.6613  0.5548
  103OSM   H14F10519   3.850   2.091   8.739  1.0941  0.7092  0.5662
  103OSM   H14G10520   3.819   1.907   8.734  0.2366  1.1522 -0.1390
  103OSM   C15F10521   4.010   1.982   8.810  0.1421  0.5591 -0.5591
  103OSM   H15F10522   4.022   1.889   8.869 -0.0292 -0.2865 -1.8013
  103OSM   H15G10523   4.056   2.066   8.866  2.6254 -0.7626 -0.4747
  103OSM   C16F10524   4.092   1.953   8.683 -0.2067  0.1302  1.2413
  103OSM   H16F10525   4.043   1.863   8.641  2.1141 -0.5866 -0.0939
  103OSM   H16G10526   4.195   1.917   8.701 -0.8652 -2.6418  0.0135
  103OSM   C17F10527   4.107   2.071   8.589 -0.0384  0.1238  0.0364
  103OSM   H17F10528   4.164   2.150   8.642 -0.9791 -1.5494  3.8863
  103OSM   H17G10529   4.005   2.109   8.565 -0.0977  0.0917  0.2426
  103OSM   C18F10530   4.166   2.035   8.454 -0.5419  0.0757 -0.1522
  103OSM   H18F10531   4.232   1.946   8.457  2.3383  2.0567 -0.3334
  103OSM   H18G10532   4.233   2.119   8.425  0.3007  1.0983  4.0758
  103OSM   H18H10533   4.088   2.017   8.377  0.1625 -2.5321 -0.3426
  104OSM      N10534   2.116   0.689  10.744 -0.0434 -0.0159  0.3088
  104OSM    C1510535   2.208   0.812  10.734 -0.4376 -0.6769 -0.5102
  104OSM   H15A10536   2.308   0.785  10.765 -0.6411  0.2582  1.0806
  104OSM   H15B10537   2.169   0.886  10.801  1.1681  1.2130 -1.5633
  104OSM   H15C10538   2.209   0.871  10.643 -0.2108  2.1423  1.2110
  104OSM    C1410539   2.137   0.637  10.877 -0.3489  0.2750  0.4463
  104OSM   H14A10540   2.242   0.636  10.902 -0.7755 -0.4553  2.4358
  104OSM   H14B10541   2.092   0.539  10.887 -0.8554  0.5283  0.6929
  104OSM   H14C10542   2.090   0.704  10.948 -2.7098  0.2967 -1.0042
  104OSM    C1310543   1.978   0.737  10.729  0.2440 -0.3778  0.3718
  104OSM   H13A10544   1.955   0.785  10.635 -0.9734 -1.9895 -0.1898
  104OSM   H13B10545   1.955   0.805  10.809  2.2790  0.6587  0.1619
  104OSM   H13C10546   1.901   0.663  10.739 -1.4253  0.6110 -3.3793
  104OSM    C1210547   2.157   0.588  10.641  0.1834  0.3926 -0.0246
  104OSM   H12A10548   2.262   0.562  10.641 -0.0745 -0.8044 -1.7268
  104OSM   H12B10549   2.134   0.629  10.543  0.6152 -0.0391 -0.3113
  104OSM    C1110550   2.077   0.456  10.633 -0.2985 -0.8154  0.1538
  104OSM   H11A10551   2.092   0.390  10.720 -3.0314  0.0432  1.3752
  104OSM   H11B10552   2.119   0.392  10.552 -0.2392  0.5605 -0.9609
  104OSM      P10553   1.824   0.427  10.692  0.2063 -0.4130 -0.1433
  104OSM    O1310554   1.867   0.432  10.835  0.3176  0.4382 -0.1686
  104OSM    O1410555   1.697   0.497  10.657 -0.8889 -0.1174 -0.2323
  104OSM    O1110556   1.824   0.279  10.634 -0.4999 -0.5612 -0.1629
  104OSM    O1210557   1.941   0.484  10.597  0.4832  0.1235  0.6803
  104OSM    C1S10558   1.779   0.248  10.496 -0.6135 -0.0894  0.2079
  104OSM    H1S10559   1.743   0.342  10.449  1.0126  0.0385 -0.8564
  104OSM    H1T10560   1.683   0.193  10.506 -0.7579  0.4249  1.7949
  104OSM     NF10561   1.838   0.158  10.270 -0.4512  0.4563 -0.0126
  104OSM    HNF10562   1.789   0.072  10.267 -1.1435  0.7822  1.2056
  104OSM    C2S10563   1.881   0.183  10.403  0.3412  0.3485  0.5417
  104OSM    H2S10564   1.966   0.254  10.393  0.2898  0.7902  2.8740
  104OSM    C3S10565   1.931   0.058  10.481  0.5468  0.2008 -0.1091
  104OSM    H3S10566   1.844  -0.003  10.514  0.7846  0.0653  0.2804
  104OSM     O310567   2.000   0.082  10.602 -0.0098 -0.2226  0.2607
  104OSM    HO310568   1.958   0.163  10.632 -1.1136 -1.2479  1.6334
  104OSM    C4S10569   2.020  -0.031  10.398  0.1439  0.4463  0.2613
  104OSM    H4S10570   2.126   0.000  10.396  0.9585 -1.9321 -3.1846
  104OSM    C5S10571   1.975  -0.138  10.320 -0.4544  0.2634  0.2240
  104OSM    H5S10572   1.872  -0.174  10.330 -0.9139  0.9339 -1.7741
  104OSM    C6S10573   2.054  -0.222  10.220 -0.6575  0.4197  0.0529
  104OSM    H6S10574   2.070  -0.320  10.268 -1.8008  1.1745  2.0792
  104OSM    H6T10575   2.155  -0.182  10.200  0.5793 -2.3854  0.2687
  104OSM    C7S10576   1.985  -0.224  10.080 -0.0541 -0.9590  0.0962
  104OSM    H7S10577   1.877  -0.249  10.085 -0.8814  1.8878 -0.9946
  104OSM    H7T10578   2.031  -0.305  10.020  2.0629  1.3301 -1.5775
  104OSM    C8S10579   2.007  -0.093  10.013  0.3537  0.4411  0.3323
  104OSM    H8S10580   2.115  -0.070  10.023  1.0626 -2.9701  1.8147
  104OSM    H8T10581   1.944  -0.016  10.062 -0.1622  0.4788 -0.3656
  104OSM    C9S10582   1.949  -0.082   9.875 -0.0308 -0.9622 -0.6490
  104OSM    H9S10583   1.914   0.021   9.853  1.7673 -0.4407 -1.3175
  104OSM    H9T10584   1.854  -0.139   9.869 -0.8949  0.5024 -1.5424
  104OSM   C10S10585   2.044  -0.128   9.768 -0.8700 -0.4354  0.4427
  104OSM   H10S10586   2.067  -0.234   9.791 -0.4759 -0.9835 -2.1487
  104OSM   H10T10587   2.134  -0.063   9.767 -0.8436 -0.4587 -1.4799
  104OSM   C11S10588   1.975  -0.102   9.633 -0.5273 -1.1108 -0.2818
  104OSM   H11S10589   1.970   0.008   9.621  2.0501 -0.7740  1.0328
  104OSM   H11T10590   1.869  -0.137   9.627 -1.3517  1.0344  0.9147
  104OSM   C12S10591   2.058  -0.152   9.521  0.1371 -0.1476  0.1950
  104OSM   H12S10592   2.048  -0.262   9.531 -1.8296  0.0540  0.7891
  104OSM   H12T10593   2.164  -0.120   9.516 -0.0112  0.2056 -2.4652
  104OSM   C13S10594   1.999  -0.139   9.376 -0.0763  0.1698  0.1061
  104OSM   H13S10595   1.981  -0.031   9.361 -0.5565  0.6639  3.5365
  104OSM   H13T10596   1.899  -0.187   9.388  0.5467 -0.8731  1.3880
  104OSM   C14S10597   2.080  -0.205   9.256 -0.0098 -0.3761 -0.4976
  104OSM   H14S10598   2.079  -0.315   9.272  0.8072 -0.2129  0.7835
  104OSM   H14T10599   2.184  -0.168   9.263 -0.5978  1.3836 -0.6578
  104OSM   C15S10600   2.014  -0.180   9.117  0.0891 -0.7352  1.2624
  104OSM   H15S10601   2.001  -0.071   9.099  0.3762 -1.1028 -1.7722
  104OSM   H15T10602   1.912  -0.224   9.126  0.0247 -0.4415  2.0399
  104OSM   C16S10603   2.097  -0.239   9.000  0.5420  0.2209  0.5191
  104OSM   H16S10604   2.089  -0.350   8.997 -0.2057  0.2956 -1.1339
  104OSM   H16T10605   2.207  -0.224   9.009  0.6897  1.1014 -2.0292
  104OSM   C17S10606   2.053  -0.183   8.860 -0.2860 -0.2159  0.3191
  104OSM   H17S10607   2.062  -0.073   8.858  0.5659 -0.2711  0.7930
  104OSM   H17T10608   1.948  -0.193   8.826  0.1687  1.7784 -1.9373
  104OSM   C18S10609   2.151  -0.221   8.742 -0.2335 -0.1264  0.5225
  104OSM   H18S10610   2.102  -0.193   8.646 -1.0241  2.4141  1.5704
  104OSM   H18T10611   2.182  -0.328   8.741 -0.2831 -0.1382 -0.1620
  104OSM   H18U10612   2.243  -0.158   8.740  0.8828 -1.6998 -1.1005
  104OSM    C1F10613   1.820   0.252  10.180 -0.4409  0.6465  0.2425
  104OSM     OF10614   1.858   0.366  10.191 -0.3666  0.2447  0.6876
  104OSM    C2F10615   1.745   0.213  10.062  0.8681  0.1864 -0.2914
  104OSM    H2F10616   1.639   0.243  10.074  0.5103 -1.3549  0.7027
  104OSM    H2G10617   1.746   0.103  10.042 -0.2765  0.2506 -0.7738
  104OSM    C3F10618   1.785   0.291   9.928 -0.6543  0.0530  0.1738
  104OSM    H3F10619   1.893   0.274   9.907 -0.5830 -1.1036  1.3791
  104OSM    H3G10620   1.763   0.397   9.947 -0.3390  0.2615 -0.5619
  104OSM    C4F10621   1.693   0.236   9.819 -0.1034  0.3620  0.6733
  104OSM    H4F10622   1.592   0.272   9.846 -0.6231 -0.9474  0.5704
  104OSM    H4G10623   1.685   0.125   9.825 -0.9573  0.3651 -0.1724
  104OSM    C5F10624   1.737   0.279   9.679  0.0810 -0.3117  0.9865
  104OSM    H5F10625   1.841   0.246   9.657 -0.6804 -3.3079  1.4856
  104OSM    H5G10626   1.714   0.387   9.666 -1.5732 -0.8857 -1.9424
  104OSM    C6F10627   1.657   0.206   9.565 -0.0774 -1.2568  0.4353
  104OSM    H6F10628   1.547   0.206   9.582 -0.2671  1.7578 -0.2389
  104OSM    H6G10629   1.704   0.105   9.562 -0.2772 -1.3360 -1.4565
  104OSM    C7F10630   1.673   0.279   9.433 -0.1435 -0.9588  0.6770
  104OSM    H7F10631   1.673   0.389   9.443 -1.4904 -1.0710  2.3199
  104OSM    H7G10632   1.587   0.260   9.365  0.1247  0.8990 -0.2523
  104OSM    C8F10633   1.800   0.217   9.360 -0.0047 -0.9332 -0.1686
  104OSM    H8F10634   1.776   0.111   9.335 -1.5566  0.0116 -3.0979
  104OSM    H8G10635   1.884   0.216   9.433 -0.5924 -1.9265  0.5108
  104OSM    C9F10636   1.851   0.294   9.238 -0.9937  0.8485  0.3229
  104OSM    H9F10637   1.920   0.374   9.270 -0.9081  0.8244  0.2006
  104OSM   C10F10638   1.840   0.271   9.108  0.4162 -0.0877 -0.4252
  104OSM   H10F10639   1.900   0.317   9.029 -0.6946 -0.9584 -1.8197
  104OSM   C11F10640   1.752   0.157   9.055  0.3616  0.5010  0.2194
  104OSM   H11F10641   1.651   0.200   9.037  0.8257  1.1003 -1.2117
  104OSM   H11G10642   1.745   0.078   9.132 -3.0981  0.3886 -0.0476
  104OSM   C12F10643   1.807   0.083   8.930 -0.4287  0.3709 -0.2453
  104OSM   H12F10644   1.781  -0.025   8.935  1.8832 -0.2116  0.3447
  104OSM   H12G10645   1.917   0.088   8.920 -0.4578 -1.7634 -2.2685
  104OSM   C13F10646   1.749   0.136   8.798  0.4301  0.0167 -0.4925
  104OSM   H13F10647   1.771   0.244   8.792  0.3439  0.0698  0.1219
  104OSM   H13G10648   1.639   0.121   8.784  0.7669 -2.0629 -1.2768
  104OSM   C14F10649   1.827   0.066   8.687  0.1350  0.1645 -0.1765
  104OSM   H14F10650   1.798  -0.041   8.692 -1.5110  0.6271  1.5443
  104OSM   H14G10651   1.933   0.073   8.718  0.8031 -0.4853 -2.1305
  104OSM   C15F10652   1.812   0.127   8.546  0.4891 -0.2937 -0.0659
  104OSM   H15F10653   1.870   0.221   8.542  2.1573 -1.2996 -0.5082
  104OSM   H15G10654   1.704   0.139   8.519  0.5961 -1.3334 -1.0383
  104OSM   C16F10655   1.855   0.032   8.434 -0.5213 -0.2972  0.2926
  104OSM   H16F10656   1.818   0.071   8.337 -0.6508 -1.5630 -0.1861
  104OSM   H16G10657   1.804  -0.065   8.445 -0.9485 -0.1270 -0.1547
  104OSM   C17F10658   2.006   0.019   8.412 -0.2018  0.6209 -0.2735
  104OSM   H17F10659   2.035  -0.058   8.337  0.5504  0.9671 -0.3574
  104OSM   H17G10660   2.053  -0.008   8.509  4.0287  2.1793 -1.6548
  104OSM   C18F10661   2.068   0.145   8.358  0.1822 -0.8160  0.1297
  104OSM   H18F10662   2.049   0.226   8.432  1.2086 -0.7009  0.2912
  104OSM   H18G10663   2.029   0.164   8.255  0.1094 -0.8017  0.1609
  104OSM   H18H10664   2.178   0.126   8.361 -0.2862 -3.8942  2.1138
  105OSM      N10665   2.958   0.515  11.126  0.4708 -0.2536  0.1499
  105OSM    C1510666   3.091   0.455  11.096 -0.1627  1.1278 -0.1259
  105OSM   H15A10667   3.126   0.374  11.159 -1.0683  0.3388 -0.6103
  105OSM   H15B10668   3.160   0.538  11.104 -0.9230  1.6174  2.4527
  105OSM   H15C10669   3.088   0.411  10.998 -2.5196  1.5956 -0.3153
  105OSM    C1410670   2.844   0.418  11.111 -0.3779  0.4593 -0.4803
  105OSM   H14A10671   2.747   0.465  11.117 -0.9536 -0.5894 -1.2715
  105OSM   H14B10672   2.849   0.356  11.199  0.7968 -1.1289 -1.6130
  105OSM   H14C10673   2.848   0.362  11.018  3.7726  2.7434 -1.9287
  105OSM    C1310674   2.953   0.573  11.265  0.3444 -0.3220  1.0164
  105OSM   H13A10675   2.954   0.498  11.343 -2.6714  0.7977  2.3007
  105OSM   H13B10676   2.864   0.630  11.287  0.0545 -0.2892 -0.1781
  105OSM   H13C10677   3.038   0.638  11.278  0.7296 -0.9168  1.5651
  105OSM    C1210678   2.934   0.625  11.027  0.9163 -0.2394 -0.2547
  105OSM   H12A10679   3.008   0.702  11.048 -0.1933  0.7567  0.0845
  105OSM   H12B10680   2.836   0.669  11.034  1.3897  0.9547 -0.7521
  105OSM    C1110681   2.958   0.599  10.875  0.3015 -0.4175  0.5011
  105OSM   H11A10682   3.056   0.551  10.853  1.5379  2.6945 -1.5204
  105OSM   H11B10683   2.961   0.691  10.812 -0.7299  1.1367  2.5961
  105OSM      P10684   2.717   0.552  10.802 -0.4435 -0.2129  0.1257
  105OSM    O1310685   2.623   0.437  10.802 -0.1323  0.3125  0.2241
  105OSM    O1410686   2.683   0.658  10.896  0.1353  0.1639 -0.2762
  105OSM    O1110687   2.729   0.619  10.664  0.2027  0.6074 -0.2652
  105OSM    O1210688   2.863   0.505  10.829  0.1051  0.2446 -0.1530
  105OSM    C1S10689   2.800   0.564  10.555  0.0099  0.0117 -0.3034
  105OSM    H1S10690   2.742   0.478  10.516  0.3541 -0.1167 -0.5298
  105OSM    H1T10691   2.900   0.524  10.582  0.4776  1.0644 -0.4117
  105OSM     NF10692   2.860   0.605  10.322  0.6830  0.8418 -0.4230
  105OSM    HNF10693   2.957   0.590  10.305  1.3132  1.1398  2.4437
  105OSM    C2S10694   2.819   0.674  10.444 -0.7809 -0.7400  0.8160
  105OSM    H2S10695   2.722   0.728  10.436 -0.1155  0.5180  0.9651
  105OSM    C3S10696   2.916   0.789  10.485  0.6492  0.3112  0.0431
  105OSM    H3S10697   3.018   0.748  10.503  0.9446  0.9462 -0.1555
  105OSM     O310698   2.881   0.858  10.606 -0.5818  0.1236  0.3345
  105OSM    HO310699   2.803   0.808  10.632  0.1806 -1.6186 -0.6289
  105OSM    C4S10700   2.928   0.896  10.386  0.5076 -0.5656 -0.2540
  105OSM    H4S10701   2.835   0.953  10.368  0.6367  0.3735  1.7819
  105OSM    C5S10702   3.035   0.939  10.323  0.4127 -0.0991  0.1469
  105OSM    H5S10703   3.131   0.885  10.314 -0.2442 -1.2305 -0.3996
  105OSM    C6S10704   3.020   1.046  10.214  0.8443 -0.2511  0.1529
  105OSM    H6S10705   3.120   1.071  10.173 -0.0961 -1.3261 -3.1298
  105OSM    H6T10706   2.979   1.146  10.239  2.1241  0.3061  0.0886
  105OSM    C7S10707   2.946   0.991  10.088  0.8103 -0.2115  0.2447
  105OSM    H7S10708   2.923   1.081  10.027  2.9613  1.6107  1.9622
  105OSM    H7T10709   2.850   0.946  10.122  0.6411  0.6006  0.8921
  105OSM    C8S10710   3.045   0.907  10.002 -0.1586 -0.0148  0.3512
  105OSM    H8S10711   3.087   0.831  10.071 -0.0155  0.4809  0.8084
  105OSM    H8T10712   3.130   0.967   9.963  1.4316 -1.0134  2.1130
  105OSM    C9S10713   2.968   0.845   9.885  0.7371 -0.7944 -0.4548
  105OSM    H9S10714   2.901   0.921   9.839  0.0686 -1.4245 -0.5447
  105OSM    H9T10715   2.898   0.767   9.920  1.3118 -2.0317 -1.9337
  105OSM   C10S10716   3.058   0.789   9.778 -0.3412  0.8992  0.3873
  105OSM   H10S10717   3.129   0.713   9.817 -1.0373  0.7181  1.3305
  105OSM   H10T10718   3.126   0.870   9.744  1.4704 -0.1796  1.2565
  105OSM   C11S10719   2.983   0.727   9.661  0.5038  0.0921 -0.1148
  105OSM   H11S10720   2.904   0.800   9.635 -0.3143 -1.2028 -1.3884
  105OSM   H11T10721   2.935   0.633   9.695 -0.7074  0.2195 -1.3981
  105OSM   C12S10722   3.070   0.702   9.537  0.0454  0.1639  0.2945
  105OSM   H12S10723   3.133   0.611   9.546 -1.8455 -1.2227  0.3631
  105OSM   H12T10724   3.129   0.795   9.529 -0.4731  0.5738  1.1731
  105OSM   C13S10725   2.976   0.690   9.414  1.0043  0.1506  0.2523
  105OSM   H13S10726   2.898   0.765   9.389  1.1487 -0.4747 -2.4671
  105OSM   H13T10727   2.917   0.595   9.420 -0.0277  0.8055  0.7545
  105OSM   C14S10728   3.062   0.683   9.284  0.6237 -0.2178  0.4309
  105OSM   H14S10729   3.147   0.613   9.300  0.5251 -0.1684  1.2432
  105OSM   H14T10730   3.098   0.787   9.276  1.0229 -0.5138 -2.8874
  105OSM   C15S10731   2.987   0.639   9.159  0.0869 -0.9064 -0.4200
  105OSM   H15S10732   2.890   0.692   9.157  0.8110  0.7723  2.6065
  105OSM   H15T10733   2.984   0.528   9.164 -1.9239 -0.8815 -0.5449
  105OSM   C16S10734   3.065   0.692   9.033 -0.2432 -0.1091  0.2327
  105OSM   H16S10735   3.159   0.634   9.022 -0.4379 -0.2301 -0.8850
  105OSM   H16T10736   3.082   0.801   9.048 -0.6420 -0.2483  1.9290
  105OSM   C17S10737   2.972   0.672   8.903 -0.0361 -0.3564 -0.1777
  105OSM   H17S10738   2.870   0.715   8.907 -0.2836 -0.7845 -1.4099
  105OSM   H17T10739   2.949   0.564   8.893  0.5863 -0.3824 -1.5841
  105OSM   C18S10740   3.037   0.723   8.777 -0.4608 -0.1586  0.7136
  105OSM   H18S10741   3.135   0.673   8.761 -0.5567 -0.8384  2.1178
  105OSM   H18T10742   3.064   0.830   8.783  1.2151 -0.5081  0.0904
  105OSM   H18U10743   2.971   0.712   8.688 -0.1403 -1.5686  0.6120
  105OSM    C1F10744   2.774   0.515  10.258  0.1819  0.2102 -0.3653
  105OSM     OF10745   2.659   0.511  10.300  0.0290  0.3187 -0.9032
  105OSM    C2F10746   2.826   0.440  10.140 -0.7428  0.0426  0.2405
  105OSM    H2F10747   2.914   0.380  10.173  0.8523  2.1792  0.0581
  105OSM    H2G10748   2.858   0.506  10.057  1.6333 -1.1508  0.1190
  105OSM    C3F10749   2.726   0.350  10.058  0.4607 -0.0627  0.5498
  105OSM    H3F10750   2.647   0.420  10.025  0.9411 -0.6985 -2.2896
  105OSM    H3G10751   2.679   0.275  10.125 -1.4710  1.6975  1.2412
  105OSM    C4F10752   2.794   0.285   9.930 -0.2730  0.3174 -0.3780
  105OSM    H4F10753   2.870   0.214   9.968  0.8365  1.2306 -0.8427
  105OSM    H4G10754   2.843   0.364   9.870 -0.0373 -0.0633 -0.6891
  105OSM    C5F10755   2.686   0.229   9.836 -0.4722  0.7591 -0.5539
  105OSM    H5F10756   2.602   0.301   9.823 -1.8656 -0.9277 -1.2307
  105OSM    H5G10757   2.654   0.145   9.901  0.8539  1.5980  1.2621
  105OSM    C6F10758   2.727   0.171   9.700  0.0909 -0.3156 -0.0107
  105OSM    H6F10759   2.637   0.129   9.650  1.2049 -0.6450 -1.8343
  105OSM    H6G10760   2.802   0.091   9.717  1.0322  0.4969 -0.2866
  105OSM    C7F10761   2.797   0.273   9.602  0.0274  0.0017 -0.9324
  105OSM    H7F10762   2.903   0.285   9.633  0.1020 -2.2725 -0.1295
  105OSM    H7G10763   2.753   0.367   9.642  0.5152  0.1371 -0.7036
  105OSM    C8F10764   2.762   0.255   9.457 -0.0355 -0.3381  0.1938
  105OSM    H8F10765   2.754   0.355   9.408 -2.1395 -0.1733  0.7880
  105OSM    H8G10766   2.658   0.217   9.452 -0.4932  0.8964  0.0959
  105OSM    C9F10767   2.854   0.174   9.374 -0.3957  0.4528 -0.2260
  105OSM    H9F10768   2.908   0.088   9.418 -0.2766 -0.1523 -1.5217
  105OSM   C10F10769   2.885   0.196   9.244  0.4146 -0.4609  1.3624
  105OSM   H10F10770   2.955   0.127   9.195  1.0142 -0.3559  2.0620
  105OSM   C11F10771   2.835   0.309   9.149 -0.5165  0.5141 -1.4474
  105OSM   H11F10772   2.920   0.346   9.088  1.1600  0.7043  0.8769
  105OSM   H11G10773   2.805   0.399   9.208  0.5532  0.4538 -0.7861
  105OSM   C12F10774   2.722   0.255   9.057 -0.5951 -0.5146  0.1751
  105OSM   H12F10775   2.661   0.341   9.021  1.1327  1.3385  1.4299
  105OSM   H12G10776   2.648   0.196   9.116 -0.0896 -1.1080  0.2343
  105OSM   C13F10777   2.764   0.165   8.942  0.6257  0.0329 -0.2373
  105OSM   H13F10778   2.816   0.081   8.992  1.6647  0.8076  0.0192
  105OSM   H13G10779   2.826   0.223   8.870  0.5573 -0.1612 -0.4530
  105OSM   C14F10780   2.644   0.109   8.868 -0.3758 -0.2805  0.0656
  105OSM   H14F10781   2.602   0.196   8.814 -0.1002 -1.3639 -1.9693
  105OSM   H14G10782   2.575   0.063   8.942  2.0151  0.0329  2.6998
  105OSM   C15F10783   2.694   0.011   8.757 -0.1612 -0.4092 -0.5566
  105OSM   H15F10784   2.741  -0.079   8.803 -0.8888  0.4895  2.1450
  105OSM   H15G10785   2.774   0.062   8.699 -0.4688 -0.3092 -0.8923
  105OSM   C16F10786   2.577  -0.033   8.672 -0.0423 -0.2284 -0.8352
  105OSM   H16F10787   2.490  -0.066   8.733 -0.3374 -1.2161 -1.7701
  105OSM   H16G10788   2.609  -0.114   8.603  1.9782 -1.3842  1.3230
  105OSM   C17F10789   2.528   0.083   8.577  0.4546 -0.1819  0.8144
  105OSM   H17F10790   2.612   0.097   8.506 -1.0342 -0.1336 -0.9914
  105OSM   H17G10791   2.491   0.169   8.637 -2.4066  0.1836 -1.2737
  105OSM   C18F10792   2.408   0.033   8.493 -0.9223  0.5980 -0.3652
  105OSM   H18F10793   2.318   0.026   8.557 -0.2590  3.4106  1.0422
  105OSM   H18G10794   2.434  -0.064   8.445 -1.4559  0.6553 -0.7799
  105OSM   H18H10795   2.379   0.108   8.417 -1.3051 -0.9673 -1.8316
  106OSM      N10796   4.267   4.971  10.687 -0.2352 -0.9500 -0.5192
  106OSM    C1510797   4.388   4.887  10.683  0.1020 -0.5977 -0.1765
  106OSM   H15A10798   4.418   4.872  10.786  0.0187  1.5174  0.2001
  106OSM   H15B10799   4.476   4.933  10.640 -0.3881 -0.0049 -0.5605
  106OSM   H15C10800   4.367   4.794  10.634 -1.4384 -1.0393  1.2524
  106OSM    C1410801   4.150   4.884  10.737 -0.1847 -0.0887 -0.0560
  106OSM   H14A10802   4.169   4.859  10.840  2.5834  1.4919 -0.0845
  106OSM   H14B10803   4.141   4.789  10.687 -0.8311 -0.6517  1.0702
  106OSM   H14C10804   4.046   4.912  10.736 -0.5074 -1.2534 -0.2595
  106OSM    C1310805   4.297   5.083  10.786  0.0463  0.0411  0.1952
  106OSM   H13A10806   4.204   5.129  10.813  1.2189  2.3657  0.5415
  106OSM   H13B10807   4.358   5.166  10.753 -1.5161  0.5031 -1.7037
  106OSM   H13C10808   4.350   5.038  10.869  1.4382  1.4925  0.1415
  106OSM    C1210809   4.236   5.036  10.551 -0.2029  0.0571 -0.4673
  106OSM   H12A10810   4.226   4.956  10.480 -0.9355 -0.0913 -0.2119
  106OSM   H12B10811   4.319   5.098  10.522  0.0756 -0.4908 -0.8537
  106OSM    C1110812   4.111   5.125  10.532 -0.0692  0.2273  0.0005
  106OSM   H11A10813   4.029   5.068  10.581 -0.7994  0.6353 -0.7272
  106OSM   H11B10814   4.075   5.134  10.428 -1.4448  1.2307  0.5259
  106OSM      P10815   4.196   5.376  10.529 -0.0729  0.3015  0.3314
  106OSM    O1310816   4.161   5.485  10.618  0.0425 -0.5510 -1.0232
  106OSM    O1410817   4.342   5.352  10.515 -0.0614 -0.3951 -0.1764
  106OSM    O1110818   4.134   5.396  10.387 -0.7036 -0.3130 -0.2627
  106OSM    O1210819   4.128   5.252  10.593  0.3971 -0.3689 -0.6849
  106OSM    C1S10820   3.996   5.387  10.355 -0.5608  0.0732 -0.0525
  106OSM    H1S10821   3.939   5.472  10.398 -0.4329  0.0649  0.1328
  106OSM    H1T10822   3.946   5.294  10.392 -1.2026  0.0062 -1.0432
  106OSM     NF10823   3.834   5.338  10.163  0.1751  0.0451  0.2430
  106OSM    HNF10824   3.809   5.247  10.132 -1.1887 -0.2440  2.0180
  106OSM    C2S10825   3.969   5.368  10.197  0.4019 -0.2714  0.0946
  106OSM    H2S10826   3.986   5.468  10.151 -0.6919 -0.4906 -0.8277
  106OSM    C3S10827   4.073   5.279  10.131 -0.2687 -0.4328 -0.3949
  106OSM    H3S10828   4.064   5.178  10.177 -2.6586 -0.7813 -1.4815
  106OSM     O310829   4.207   5.323  10.141  0.7024 -0.1454  0.1878
  106OSM    HO310830   4.194   5.386  10.213 -0.8714  0.0354 -0.2112
  106OSM    C4S10831   4.051   5.270   9.987 -0.1571  0.0124 -0.1188
  106OSM    H4S10832   4.044   5.364   9.931 -1.3412  0.9396  1.4903
  106OSM    C5S10833   4.039   5.148   9.927 -0.2335  0.2532  0.2585
  106OSM    H5S10834   4.044   5.058   9.989  0.6316 -0.5358 -0.9058
  106OSM    C6S10835   4.024   5.110   9.785  0.0992  0.5040  0.0124
  106OSM    H6S10836   3.929   5.055   9.767  0.7920 -0.1671 -1.9607
  106OSM    H6T10837   4.111   5.041   9.774 -0.2539  0.0399  0.0703
  106OSM    C7S10838   4.045   5.228   9.685  0.2330  0.8675 -0.3009
  106OSM    H7S10839   4.151   5.260   9.694  0.4227 -0.1403  1.2995
  106OSM    H7T10840   3.977   5.314   9.706  3.2822  3.8370 -1.5434
  106OSM    C8S10841   4.033   5.164   9.544  0.6393  0.0317  0.6960
  106OSM    H8S10842   3.941   5.103   9.538  1.2294 -0.8604  0.5020
  106OSM    H8T10843   4.105   5.079   9.537 -1.6641 -2.1503  1.9050
  106OSM    C9S10844   4.046   5.258   9.429 -0.1410 -0.1185 -0.0608
  106OSM    H9S10845   4.145   5.308   9.432 -0.8588  1.4673 -1.2871
  106OSM    H9T10846   3.969   5.337   9.441  0.3645  0.5029 -0.7804
  106OSM   C10S10847   4.052   5.199   9.282  0.0810  0.2878 -0.3560
  106OSM   H10S10848   3.967   5.130   9.268  0.8380 -1.6716  3.3352
  106OSM   H10T10849   4.143   5.143   9.253 -0.8176 -0.3651 -2.0300
  106OSM   C11S10850   4.025   5.302   9.179 -0.0307 -0.1450  0.1820
  106OSM   H11S10851   4.085   5.394   9.201 -2.1251  1.6799 -1.3068
  106OSM   H11T10852   3.916   5.322   9.182 -0.1696 -0.5981 -1.1739
  106OSM   C12S10853   4.064   5.249   9.036  0.6543 -0.3049 -0.0770
  106OSM   H12S10854   4.004   5.160   9.010 -0.6302 -0.0505  1.8323
  106OSM   H12T10855   4.172   5.224   9.037  0.2392 -2.2105 -0.0579
  106OSM   C13S10856   4.046   5.349   8.919  1.0687  0.5398 -0.7741
  106OSM   H13S10857   4.068   5.454   8.948 -1.0933  0.9635 -0.4423
  106OSM   H13T10858   3.935   5.358   8.913  1.0376  1.7389  0.9038
  106OSM   C14S10859   4.111   5.310   8.792  0.1402  0.2311 -0.1676
  106OSM   H14S10860   4.044   5.228   8.756 -3.0554  1.8474  1.6275
  106OSM   H14T10861   4.210   5.267   8.815  0.2367 -0.3486 -1.5305
  106OSM   C15S10862   4.109   5.412   8.673  0.1179 -0.7637  0.5804
  106OSM   H15S10863   4.172   5.499   8.699  2.4875 -2.0207 -0.6420
  106OSM   H15T10864   4.002   5.442   8.662  0.1081 -0.8469  0.4347
  106OSM   C16S10865   4.143   5.350   8.537  0.1362  0.9005 -0.5136
  106OSM   H16S10866   4.060   5.287   8.500 -0.3071  1.5458 -0.6511
  106OSM   H16T10867   4.230   5.282   8.535  1.3424  2.3335  0.4740
  106OSM   C17S10868   4.148   5.447   8.420 -0.0206 -0.0382  0.6885
  106OSM   H17S10869   4.069   5.525   8.417  0.8534  0.8356 -1.2736
  106OSM   H17T10870   4.128   5.391   8.326  0.6244 -0.0202  0.5393
  106OSM   C18S10871   4.278   5.524   8.407  0.3040  0.1911 -0.2334
  106OSM   H18S10872   4.368   5.459   8.408 -0.7819 -1.4239 -0.9145
  106OSM   H18T10873   4.296   5.593   8.491  2.1817 -3.8434  3.0533
  106OSM   H18U10874   4.274   5.586   8.315 -2.2448  0.9408  0.2990
  106OSM    C1F10875   3.734   5.416  10.193 -0.6332  0.9317  0.1597
  106OSM     OF10876   3.754   5.531  10.235  0.0431 -0.5369 -0.2132
  106OSM    C2F10877   3.598   5.359  10.170  1.1109 -0.8723 -0.3749
  106OSM    H2F10878   3.560   5.307  10.261 -0.0116  0.1758 -0.2188
  106OSM    H2G10879   3.597   5.273  10.100  2.3595 -1.1674 -0.0503
  106OSM    C3F10880   3.492   5.466  10.123  0.6732 -0.0848  0.4933
  106OSM    H3F10881   3.484   5.547  10.198  0.3344  1.1601 -0.8491
  106OSM    H3G10882   3.388   5.427  10.111  0.4469  0.6964 -0.1868
  106OSM    C4F10883   3.536   5.534   9.993  0.8785  0.2849  0.1520
  106OSM    H4F10884   3.622   5.601  10.016  1.5179 -0.9825  1.6625
  106OSM    H4G10885   3.456   5.601   9.954 -0.1272  0.0865  1.7872
  106OSM    C5F10886   3.566   5.442   9.876  0.2007  1.3281  0.4736
  106OSM    H5F10887   3.499   5.354   9.862  2.8723 -0.5359 -1.7234
  106OSM    H5G10888   3.668   5.399   9.884  0.1063  0.8861 -0.5159
  106OSM    C6F10889   3.581   5.513   9.738 -0.5276 -0.2036  0.1582
  106OSM    H6F10890   3.680   5.560   9.721  0.0643 -1.2140  0.7197
  106OSM    H6G10891   3.493   5.581   9.733 -1.6568 -1.7094 -2.2471
  106OSM    C7F10892   3.558   5.408   9.620 -0.7554 -0.3952  0.2936
  106OSM    H7F10893   3.483   5.336   9.658 -1.1730  0.4170  1.0344
  106OSM    H7G10894   3.659   5.364   9.602  2.1375  3.7033  4.3874
  106OSM    C8F10895   3.506   5.475   9.490 -0.5371  0.3081 -0.2090
  106OSM    H8F10896   3.414   5.525   9.528 -0.8032 -0.8913  0.8093
  106OSM    H8G10897   3.470   5.399   9.418  1.3965  0.4070 -1.3489
  106OSM    C9F10898   3.596   5.583   9.432  0.0223 -0.2500  0.5537
  106OSM    H9F10899   3.619   5.659   9.508 -1.9309 -1.5852  2.6034
  106OSM   C10F10900   3.636   5.596   9.304 -0.0073  0.8247 -0.2028
  106OSM   H10F10901   3.719   5.665   9.280  1.1956  0.4511  2.5257
  106OSM   C11F10902   3.600   5.499   9.192 -0.6830 -0.2713 -0.2476
  106OSM   H11F10903   3.515   5.440   9.230  0.4747 -2.6611 -1.1986
  106OSM   H11G10904   3.679   5.427   9.162 -0.8905 -1.1701  1.2873
  106OSM   C12F10905   3.556   5.575   9.065  0.3901  0.0753 -0.4758
  106OSM   H12F10906   3.475   5.644   9.097  0.9571  0.0403  1.1522
  106OSM   H12G10907   3.512   5.489   9.010  1.7309 -1.4010  0.6435
  106OSM   C13F10908   3.668   5.632   8.980 -0.1498  0.4819 -0.2481
  106OSM   H13F10909   3.740   5.548   8.972  0.7205  1.3990 -2.8124
  106OSM   H13G10910   3.705   5.726   9.026  0.2170  0.0578  0.3432
  106OSM   C14F10911   3.638   5.674   8.832  0.0325 -0.0761 -0.0231
  106OSM   H14F10912   3.723   5.743   8.809  0.8910 -0.6196  1.4221
  106OSM   H14G10913   3.545   5.734   8.826 -0.2176 -0.5300 -0.9632
  106OSM   C15F10914   3.637   5.557   8.727  0.3958  0.0541  0.1796
  106OSM   H15F10915   3.551   5.488   8.743 -0.9814  1.4594 -0.8430
  106OSM   H15G10916   3.734   5.504   8.719  0.5353  0.3039  0.2165
  106OSM   C16F10917   3.611   5.630   8.586  0.6441  0.7480 -0.3653
  106OSM   H16F10918   3.689   5.705   8.563  2.4490 -1.0059 -0.2003
  106OSM   H16G10919   3.508   5.671   8.592 -0.8536 -2.6707 -0.3867
  106OSM   C17F10920   3.599   5.527   8.472  1.1402  0.0934  0.4322
  106OSM   H17F10921   3.499   5.481   8.487  1.0383 -0.0068 -0.4831
  106OSM   H17G10922   3.670   5.442   8.479 -2.1978 -2.9360  0.4256
  106OSM   C18F10923   3.598   5.584   8.332  0.1934 -0.2043  0.1170
  106OSM   H18F10924   3.562   5.510   8.256  1.4087  0.4998 -1.1888
  106OSM   H18G10925   3.702   5.616   8.311  0.1603 -0.0158  0.2463
  106OSM   H18H10926   3.534   5.675   8.330 -0.5841 -0.6425  2.2203
  107OSM      N10927   4.683   2.433  10.712  0.4375 -0.4463 -0.2212
  107OSM    C1510928   4.808   2.355  10.683  0.2025  0.4990  0.0321
  107OSM   H15A10929   4.856   2.377  10.589  0.2719  0.3127  0.0224
  107OSM   H15B10930   4.780   2.250  10.680 -0.3639  0.6380  0.4378
  107OSM   H15C10931   4.875   2.367  10.766 -1.0681  1.1092  0.9990
  107OSM    C1410932   4.729   2.576  10.690 -0.5962  0.2598  0.5229
  107OSM   H14A10933   4.767   2.593  10.590 -0.6784 -0.0798  0.4292
  107OSM   H14B10934   4.809   2.575  10.763  0.0958 -0.3481 -0.2178
  107OSM   H14C10935   4.652   2.644  10.722 -0.8454  0.1778  0.0998
  107OSM    C1310936   4.583   2.399  10.610 -0.1888  0.0986  0.1430
  107OSM   H13A10937   4.575   2.292  10.592  0.7663  0.1012 -0.3574
  107OSM   H13B10938   4.606   2.438  10.512  0.0544 -1.1816 -0.3297
  107OSM   H13C10939   4.484   2.434  10.637 -0.3138 -1.2160  1.5089
  107OSM    C1210940   4.650   2.402  10.859  0.4721  0.1850  0.0830
  107OSM   H12A10941   4.741   2.421  10.915 -1.2709  1.0756  2.8082
  107OSM   H12B10942   4.630   2.297  10.878  1.3054 -0.0664 -0.3706
  107OSM    C1110943   4.535   2.486  10.925 -0.4669  0.2088  0.8338
  107OSM   H11A10944   4.501   2.447  11.024 -0.4723  0.4085  0.9112
  107OSM   H11B10945   4.450   2.450  10.862 -0.0109  0.4307  0.0919
  107OSM      P10946   4.446   2.724  10.882  0.1225  0.1017  0.1875
  107OSM    O1310947   4.326   2.707  10.966  0.2996 -0.4701 -0.1158
  107OSM    O1410948   4.517   2.854  10.884 -0.6182 -0.1288  0.0463
  107OSM    O1110949   4.421   2.678  10.731  0.3692 -0.2097 -0.0283
  107OSM    O1210950   4.554   2.623  10.933 -0.1947  0.0827 -0.0182
  107OSM    C1S10951   4.346   2.762  10.642 -0.7995 -0.3613 -0.2007
  107OSM    H1S10952   4.418   2.840  10.609  0.7107 -1.1739  1.0373
  107OSM    H1T10953   4.250   2.806  10.676  1.1092  2.9354  1.4689
  107OSM     NF10954   4.246   2.771  10.403  0.5104  0.0021 -0.5059
  107OSM    HNF10955   4.149   2.778  10.381  1.0356  0.6726 -2.9383
  107OSM    C2S10956   4.311   2.692  10.507 -0.4533 -0.1425  0.3901
  107OSM    H2S10957   4.410   2.653  10.474  0.5623  1.1639  1.7727
  107OSM    C3S10958   4.221   2.562  10.536 -0.9102  0.2964  0.2389
  107OSM    H3S10959   4.125   2.600  10.577 -0.1081  1.8180  0.7847
  107OSM     O310960   4.274   2.468  10.635  0.3254  0.2071  0.2624
  107OSM    HO310961   4.342   2.514  10.686 -2.5879  1.6716  3.2425
  107OSM    C4S10962   4.217   2.484  10.414 -0.3916  0.0807 -0.1977
  107OSM    H4S10963   4.311   2.465  10.360 -0.9816 -0.4183 -1.0708
  107OSM    C5S10964   4.099   2.451  10.360 -1.0730 -0.0830 -0.0185
  107OSM    H5S10965   4.010   2.468  10.424 -0.9180 -1.2298  0.5245
  107OSM    C6S10966   4.086   2.386  10.230  0.0523  0.1718 -0.4114
  107OSM    H6S10967   4.043   2.459  10.158 -2.5430 -1.4487 -0.5938
  107OSM    H6T10968   4.006   2.311  10.244  0.2994  0.2096  1.3741
  107OSM    C7S10969   4.200   2.307  10.162 -0.3996 -0.0860  0.8531
  107OSM    H7S10970   4.227   2.229  10.236 -0.5683 -0.7932  0.1796
  107OSM    H7T10971   4.289   2.372  10.149 -0.5706  0.0558  0.3748
  107OSM    C8S10972   4.155   2.241  10.039 -0.0239 -0.1323 -0.0217
  107OSM    H8S10973   4.045   2.238  10.048 -0.2592  0.8847 -1.9962
  107OSM    H8T10974   4.199   2.140  10.025 -2.6808 -1.3888  0.1656
  107OSM    C9S10975   4.182   2.327   9.914 -0.1646 -0.2651 -0.2169
  107OSM    H9S10976   4.292   2.339   9.914 -0.1656 -0.1978  0.8087
  107OSM    H9T10977   4.143   2.431   9.909  0.9789  0.2485  1.1092
  107OSM   C10S10978   4.157   2.250   9.781 -0.2853  0.4858 -0.3088
  107OSM   H10S10979   4.094   2.163   9.807  2.3231 -1.4076  0.0652
  107OSM   H10T10980   4.254   2.212   9.743 -1.4775 -0.2459 -2.8242
  107OSM   C11S10981   4.089   2.336   9.680  0.2263  0.5511  0.3787
  107OSM   H11S10982   4.158   2.418   9.651 -0.0504  0.3976 -0.7668
  107OSM   H11T10983   4.001   2.381   9.730  1.5732  2.1500  1.4229
  107OSM   C12S10984   4.050   2.281   9.542 -0.4194 -0.0063  0.3464
  107OSM   H12S10985   4.003   2.361   9.481  1.6420  0.8358 -0.2607
  107OSM   H12T10986   3.979   2.196   9.549 -2.2144  1.4858  0.9320
  107OSM   C13S10987   4.172   2.234   9.467 -0.2664 -0.1776  0.3578
  107OSM   H13S10988   4.225   2.149   9.517  0.5909 -0.1017 -0.3928
  107OSM   H13T10989   4.232   2.326   9.454 -1.9288  1.0743  1.2753
  107OSM   C14S10990   4.140   2.179   9.327 -0.1976 -0.7256  0.3814
  107OSM   H14S10991   4.101   2.268   9.274 -0.9464 -1.8302 -0.9913
  107OSM   H14T10992   4.063   2.101   9.347  0.0574 -1.4493 -1.3321
  107OSM   C15S10993   4.261   2.102   9.268 -0.0200 -0.1497  0.7192
  107OSM   H15S10994   4.298   2.028   9.341  0.7761 -0.2198  0.2557
  107OSM   H15T10995   4.338   2.179   9.245  0.7026 -1.1291 -0.2569
  107OSM   C16S10996   4.226   2.048   9.127  0.4686 -0.2131 -0.3953
  107OSM   H16S10997   4.212   2.128   9.051 -1.7223 -0.3575 -0.2080
  107OSM   H16T10998   4.125   2.004   9.138 -0.3489  1.6842  0.1338
  107OSM   C17S10999   4.320   1.944   9.064  0.2172  0.4515  0.0155
  107OSM   H17S11000   4.262   1.892   8.985  0.4129  1.4250 -0.7968
  107OSM   H17T11001   4.350   1.872   9.143  3.9366 -1.2615 -2.6699
  107OSM   C18S11002   4.445   1.994   9.001 -0.4497 -0.2587  0.4441
  107OSM   H18S11003   4.429   2.062   8.915  0.5730 -1.6565 -0.8999
  107OSM   H18T11004   4.512   1.914   8.963  0.0978  0.4029  0.0012
  107OSM   H18U11005   4.510   2.044   9.076 -0.7526  0.1214  0.4550
  107OSM    C1F11006   4.313   2.873  10.341  0.6270  0.2837  0.1879
  107OSM     OF11007   4.429   2.900  10.365 -0.1687 -0.3428 -0.0521
  107OSM    C2F11008   4.232   2.954  10.247 -0.0799 -0.2374 -0.4569
  107OSM    H2F11009   4.247   3.060  10.276  3.9647 -1.0041  0.8933
  107OSM    H2G11010   4.127   2.920  10.249  0.0235 -0.6281  2.4706
  107OSM    C3F11011   4.289   2.957  10.099 -0.7834 -0.4263  0.5582
  107OSM    H3F11012   4.380   3.020  10.088 -1.3888  0.2057 -1.0845
  107OSM    H3G11013   4.227   3.014  10.026  0.9827 -1.6862 -2.1032
  107OSM    C4F11014   4.302   2.816  10.040 -0.1009  0.6837  0.0679
  107OSM    H4F11015   4.216   2.754  10.073  1.2243 -0.1421  2.1346
  107OSM    H4G11016   4.382   2.757  10.088 -2.3948 -2.9191 -0.1691
  107OSM    C5F11017   4.337   2.816   9.889  0.5578  0.0432 -0.9710
  107OSM    H5F11018   4.440   2.857   9.884  0.0825  1.1147 -2.6383
  107OSM    H5G11019   4.277   2.886   9.826  1.1959 -0.8841 -2.6657
  107OSM    C6F11020   4.334   2.673   9.830 -1.2697  0.2301  0.4677
  107OSM    H6F11021   4.228   2.650   9.805 -0.4868 -1.4902 -1.6189
  107OSM    H6G11022   4.370   2.601   9.906 -2.6294 -0.0716  0.8480
  107OSM    C7F11023   4.409   2.667   9.699  0.1623  0.2649 -0.7754
  107OSM    H7F11024   4.515   2.690   9.725  0.8488 -0.4840 -2.7543
  107OSM    H7G11025   4.373   2.756   9.642 -0.3563  1.5082  1.3522
  107OSM    C8F11026   4.384   2.544   9.609  0.3441 -0.0598  0.0101
  107OSM    H8F11027   4.285   2.565   9.565  0.5659 -0.0302 -0.4820
  107OSM    H8G11028   4.389   2.451   9.669 -0.4558 -0.7700 -1.0144
  107OSM    C9F11029   4.489   2.545   9.497  0.3146  0.3523  0.2721
  107OSM    H9F11030   4.594   2.542   9.528  0.2428  0.8772  0.5743
  107OSM   C10F11031   4.459   2.553   9.359 -0.5883 -0.6384 -0.5076
  107OSM   H10F11032   4.549   2.550   9.296  0.8765  2.4463  1.1951
  107OSM   C11F11033   4.324   2.553   9.294 -0.0591 -0.0423  0.1104
  107OSM   H11F11034   4.284   2.656   9.287 -3.0534 -0.4588  5.5083
  107OSM   H11G11035   4.248   2.509   9.363 -0.4194  2.0231  1.1027
  107OSM   C12F11036   4.302   2.488   9.156  0.3148 -0.1481  0.4776
  107OSM   H12F11037   4.210   2.426   9.154  0.1998  0.0256  0.2896
  107OSM   H12G11038   4.390   2.421   9.143 -0.7341 -1.0941 -2.8677
  107OSM   C13F11039   4.290   2.576   9.030  0.2196 -0.0487 -0.1202
  107OSM   H13F11040   4.380   2.641   9.024 -0.1827  0.3558 -2.5615
  107OSM   H13G11041   4.196   2.636   9.030 -1.3538 -2.3572  0.2516
  107OSM   C14F11042   4.297   2.506   8.896  0.3797 -0.4240  0.5154
  107OSM   H14F11043   4.227   2.420   8.889  0.6817 -0.7200  1.0549
  107OSM   H14G11044   4.396   2.460   8.879 -0.9530 -2.6525 -2.0799
  107OSM   C15F11045   4.277   2.600   8.771  0.4050  0.3503 -0.2594
  107OSM   H15F11046   4.336   2.694   8.780  0.6502  0.3075 -1.3045
  107OSM   H15G11047   4.175   2.645   8.775  1.7073  3.5077  0.1334
  107OSM   C16F11048   4.309   2.529   8.640 -0.3328  0.2316 -0.3181
  107OSM   H16F11049   4.237   2.446   8.624  0.5997 -0.8067  0.6264
  107OSM   H16G11050   4.412   2.486   8.647 -0.3793 -0.1856 -1.8358
  107OSM   C17F11051   4.297   2.630   8.529  0.5864 -0.0371 -0.1962
  107OSM   H17F11052   4.368   2.713   8.551 -1.1857  1.8590 -1.3040
  107OSM   H17G11053   4.193   2.669   8.530  0.2303 -0.9851  0.4185
  107OSM   C18F11054   4.336   2.584   8.386 -0.8809 -0.1182  0.6813
  107OSM   H18F11055   4.442   2.551   8.387 -0.7395  0.2627  2.7340
  107OSM   H18G11056   4.323   2.667   8.314  0.9899 -1.3684 -1.1950
  107OSM   H18H11057   4.275   2.496   8.357  0.1954  0.0305 -2.3748
  108OSM      N11058   1.477   0.319  10.947 -0.0847 -0.1772  0.7442
  108OSM    C1511059   1.425   0.449  10.989  0.1053  0.5577 -0.1202
  108OSM   H15A11060   1.318   0.458  10.979  0.1811  2.1929  0.2562
  108OSM   H15B11061   1.476   0.526  10.932  1.6157 -0.3980 -0.1148
  108OSM   H15C11062   1.447   0.462  11.094  0.8767 -1.4512  0.0113
  108OSM    C1411063   1.621   0.304  10.993  0.5811  0.4660 -0.0550
  108OSM   H14A11064   1.648   0.201  10.979  1.5396  0.9719 -2.5418
  108OSM   H14B11065   1.627   0.309  11.100 -0.3520  0.4100  0.0126
  108OSM   H14C11066   1.697   0.364  10.944  2.0682 -0.1417  1.4405
  108OSM    C1311067   1.394   0.212  11.019 -0.6437 -0.5944  0.3391
  108OSM   H13A11068   1.291   0.220  10.990  0.0394  0.7803 -1.9371
  108OSM   H13B11069   1.399   0.229  11.125 -0.7431  0.9598  0.1181
  108OSM   H13C11070   1.423   0.114  10.984 -0.1725 -0.3485  0.0324
  108OSM    C1211071   1.466   0.306  10.793  0.3886 -0.0140 -0.1910
  108OSM   H12A11072   1.529   0.382  10.748  1.1970 -0.8599 -0.5057
  108OSM   H12B11073   1.363   0.318  10.765 -0.2920 -1.1497  1.6531
  108OSM    C1111074   1.507   0.175  10.721 -0.0315 -0.6471 -0.1976
  108OSM   H11A11075   1.612   0.152  10.753  0.1578 -1.0635 -1.0938
  108OSM   H11B11076   1.506   0.208  10.615  3.6814  0.7606  0.0546
  108OSM      P11077   1.463  -0.068  10.796  0.5407  0.5351  0.4875
  108OSM    O1311078   1.537  -0.043  10.922 -0.3159 -0.1610 -0.0596
  108OSM    O1411079   1.348  -0.170  10.789  0.8010  0.0240 -0.3401
  108OSM    O1111080   1.566  -0.101  10.682 -0.3736 -0.0978  0.5504
  108OSM    O1211081   1.408   0.072  10.758 -0.2279  0.1500 -0.1374
  108OSM    C1S11082   1.543  -0.109  10.546 -0.2123  0.0464 -0.2109
  108OSM    H1S11083   1.567  -0.012  10.498  2.2740  0.7974  2.2483
  108OSM    H1T11084   1.438  -0.135  10.524 -0.2938  1.4066 -1.5315
  108OSM     NF11085   1.580  -0.258  10.354 -0.1151 -0.2378  0.3098
  108OSM    HNF11086   1.531  -0.345  10.359 -0.9579  0.1561 -0.7299
  108OSM    C2S11087   1.634  -0.216  10.482 -0.3174  0.3135 -0.4592
  108OSM    H2S11088   1.735  -0.176  10.458 -0.4290 -1.2162 -4.1788
  108OSM    C3S11089   1.660  -0.340  10.580 -0.1930 -0.0628  0.0091
  108OSM    H3S11090   1.563  -0.388  10.601 -0.1931 -0.1939 -0.2953
  108OSM     O311091   1.719  -0.301  10.709  0.1891  0.4218 -0.0308
  108OSM    HO311092   1.712  -0.205  10.711 -1.9092  0.3016  0.2680
  108OSM    C4S11093   1.738  -0.446  10.504 -0.0349 -0.2375 -0.3887
  108OSM    H4S11094   1.673  -0.527  10.465  0.3511 -0.6698 -0.1501
  108OSM    C5S11095   1.867  -0.457  10.473  0.2899 -0.0992  0.5953
  108OSM    H5S11096   1.939  -0.376  10.493  2.1104 -1.7272  0.9146
  108OSM    C6S11097   1.933  -0.571  10.407  0.2122  0.2046 -0.1478
  108OSM    H6S11098   1.924  -0.648  10.487 -0.6091  1.1965  0.7525
  108OSM    H6T11099   2.040  -0.557  10.380  0.1742  0.9416  0.0378
  108OSM    C7S11100   1.865  -0.627  10.282  0.3869 -0.2338 -0.1769
  108OSM    H7S11101   1.757  -0.650  10.295 -0.3595  2.5779 -0.8511
  108OSM    H7T11102   1.925  -0.716  10.251  0.4722 -0.6550  1.1215
  108OSM    C8S11103   1.883  -0.533  10.160  0.2646 -0.5988  1.1789
  108OSM    H8S11104   1.989  -0.506  10.144 -0.4387  1.0220 -1.3626
  108OSM    H8T11105   1.830  -0.437  10.178  1.2127 -0.0236  0.9107
  108OSM    C9S11106   1.808  -0.585  10.028  0.2355  0.4697  0.5777
  108OSM    H9S11107   1.698  -0.599  10.042  0.1698 -1.8563 -1.5159
  108OSM    H9T11108   1.850  -0.683   9.996  2.7365  2.0311 -1.2244
  108OSM   C10S11109   1.834  -0.492   9.909  0.4465 -0.1611 -0.3372
  108OSM   H10S11110   1.942  -0.471   9.899  0.4606 -1.3043 -4.0656
  108OSM   H10T11111   1.783  -0.396   9.933 -0.3860 -0.1685 -1.9541
  108OSM   C11S11112   1.774  -0.530   9.772 -0.6601 -0.2399  0.0007
  108OSM   H11S11113   1.665  -0.513   9.765 -0.7408  0.5886  2.3951
  108OSM   H11T11114   1.777  -0.641   9.775 -0.2527 -0.2241  0.2636
  108OSM   C12S11115   1.847  -0.480   9.645 -0.7118  0.7206 -0.3452
  108OSM   H12S11116   1.954  -0.507   9.658 -1.1865 -1.1772 -0.2082
  108OSM   H12T11117   1.850  -0.368   9.644  2.3428  0.8315  3.0844
  108OSM   C13S11118   1.806  -0.550   9.516 -0.6987  1.0929  0.1044
  108OSM   H13S11119   1.695  -0.555   9.515 -0.6973  0.9552  0.3994
  108OSM   H13T11120   1.851  -0.651   9.531  0.1822  1.5651  0.7672
  108OSM   C14S11121   1.861  -0.495   9.389 -0.0111 -0.3115 -0.3901
  108OSM   H14S11122   1.972  -0.492   9.391  0.0949 -1.9617  2.7319
  108OSM   H14T11123   1.808  -0.400   9.367  1.1505 -0.3002 -3.6634
  108OSM   C15S11124   1.822  -0.580   9.271  0.6114  0.4244  0.1837
  108OSM   H15S11125   1.711  -0.582   9.275  0.6287  0.7667  2.2851
  108OSM   H15T11126   1.860  -0.684   9.280  1.5775  0.8845  2.0221
  108OSM   C16S11127   1.871  -0.523   9.132 -0.7016  0.4881 -0.4148
  108OSM   H16S11128   1.982  -0.515   9.125 -0.6463 -0.2517 -0.4700
  108OSM   H16T11129   1.820  -0.429   9.104  0.9302  2.0143  1.4495
  108OSM   C17S11130   1.829  -0.620   9.024 -0.2184 -0.6224  0.2338
  108OSM   H17S11131   1.719  -0.634   9.029 -0.4719  1.4721  3.0934
  108OSM   H17T11132   1.877  -0.719   9.036  2.2776  0.4816  0.1097
  108OSM   C18S11133   1.868  -0.578   8.882 -0.3398  0.0998 -0.5922
  108OSM   H18S11134   1.820  -0.646   8.807 -0.6031  1.2958 -1.5396
  108OSM   H18T11135   1.977  -0.595   8.879 -0.2101  0.5009  1.1034
  108OSM   H18U11136   1.844  -0.476   8.846  0.7806  0.7981  0.5818
  108OSM    C1F11137   1.582  -0.187  10.248  0.1207  0.3537  0.0076
  108OSM     OF11138   1.620  -0.070  10.252  0.0339  0.0925 -0.1194
  108OSM    C2F11139   1.539  -0.246  10.113  0.7872  0.4975  0.0880
  108OSM    H2F11140   1.430  -0.269  10.114  0.7786  0.5236 -0.1957
  108OSM    H2G11141   1.601  -0.338  10.102  0.4117  0.2942 -0.3589
  108OSM    C3F11142   1.569  -0.146   9.988  0.2190 -0.1515 -0.1634
  108OSM    H3F11143   1.679  -0.132   9.984  0.2230  0.2055  0.8451
  108OSM    H3G11144   1.523  -0.048  10.013  1.2814 -0.0253  1.3869
  108OSM    C4F11145   1.516  -0.197   9.850 -0.4774 -0.3780  0.9960
  108OSM    H4F11146   1.405  -0.191   9.855 -0.4639  1.3427  0.0293
  108OSM    H4G11147   1.545  -0.303   9.834 -0.5182 -0.5421  1.9565
  108OSM    C5F11148   1.564  -0.097   9.739 -0.2863 -0.1614 -0.4059
  108OSM    H5F11149   1.673  -0.104   9.720 -0.1729  1.6820 -0.5982
  108OSM    H5G11150   1.539   0.003   9.782 -0.6677 -1.4202  2.5943
  108OSM    C6F11151   1.505  -0.127   9.600  0.5960 -0.3796 -0.9650
  108OSM    H6F11152   1.536  -0.047   9.530 -1.9701  0.1019 -1.6544
  108OSM    H6G11153   1.396  -0.107   9.593  0.0481 -1.0570  2.9258
  108OSM    C7F11154   1.548  -0.265   9.541 -0.1416 -0.4017  0.4958
  108OSM    H7F11155   1.509  -0.341   9.612 -1.3640 -0.0039  0.2755
  108OSM    H7G11156   1.657  -0.279   9.524 -0.4493 -1.5418 -0.6342
  108OSM    C8F11157   1.484  -0.286   9.400 -0.5472 -0.2281 -0.0691
  108OSM    H8F11158   1.376  -0.264   9.413 -0.5537 -0.9656  1.2788
  108OSM    H8G11159   1.491  -0.396   9.387  0.0043 -0.3176  0.9572
  108OSM    C9F11160   1.544  -0.195   9.298  0.0511  0.4586 -0.0947
  108OSM    H9F11161   1.596  -0.106   9.337  1.6412  0.4029 -1.9385
  108OSM   C10F11162   1.520  -0.204   9.162  0.0281 -0.3390  0.4260
  108OSM   H10F11163   1.554  -0.129   9.089  0.4634 -0.8405  0.1122
  108OSM   C11F11164   1.430  -0.309   9.105 -0.6393 -0.4528 -0.7119
  108OSM   H11F11165   1.341  -0.255   9.068 -1.4741 -0.7295  0.8198
  108OSM   H11G11166   1.399  -0.381   9.183  3.8637 -0.7330  1.1617
  108OSM   C12F11167   1.489  -0.394   8.999 -0.7683 -0.3035 -0.1704
  108OSM   H12F11168   1.408  -0.453   8.951 -1.4302  1.4982 -1.3865
  108OSM   H12G11169   1.569  -0.462   9.037  0.7476  1.5230  0.0230
  108OSM   C13F11170   1.549  -0.328   8.876 -0.0424 -0.4164 -0.3285
  108OSM   H13F11171   1.593  -0.412   8.819  2.3584  0.1023  0.6602
  108OSM   H13G11172   1.627  -0.252   8.896 -0.4091  0.5253 -2.2613
  108OSM   C14F11173   1.445  -0.256   8.785 -0.0289  0.0088 -0.4268
  108OSM   H14F11174   1.381  -0.184   8.840  0.4595 -0.4438  0.7595
  108OSM   H14G11175   1.386  -0.340   8.742 -0.6659  0.0017  0.4302
  108OSM   C15F11176   1.507  -0.185   8.665 -0.5690 -0.5984 -0.0873
  108OSM   H15F11177   1.586  -0.253   8.627 -0.3786 -1.4937  1.7739
  108OSM   H15G11178   1.570  -0.096   8.690 -0.1964 -0.6623 -0.7819
  108OSM   C16F11179   1.400  -0.140   8.560  0.2574 -0.0782  0.7975
  108OSM   H16F11180   1.354  -0.048   8.601  0.3475  0.6597 -0.7139
  108OSM   H16G11181   1.326  -0.222   8.546 -0.5184  0.7247  0.1433
  108OSM   C17F11182   1.457  -0.123   8.421 -0.1084 -0.2028 -0.2143
  108OSM   H17F11183   1.494  -0.220   8.381  0.3064  0.1387 -0.6742
  108OSM   H17G11184   1.544  -0.055   8.430  0.0781 -0.4615 -0.0338
  108OSM   C18F11185   1.358  -0.065   8.325 -0.8288 -0.3211 -0.0346
  108OSM   H18F11186   1.273  -0.137   8.318 -1.1762 -0.1216  1.6255
  108OSM   H18G11187   1.411  -0.047   8.229  0.5254 -2.1652  0.3122
  108OSM   H18H11188   1.319   0.025   8.377 -0.2800  0.1673 -0.4638
  109OSM      N11189   0.843   6.673  10.754  0.0127 -0.5507  0.1009
  109OSM    C1511190   0.812   6.539  10.814  0.3436 -0.3418  0.3648
  109OSM   H15A11191   0.773   6.472  10.740  1.7844  0.6058 -1.3353
  109OSM   H15B11192   0.744   6.540  10.898 -0.8707  1.3679 -0.5721
  109OSM   H15C11193   0.905   6.498  10.851  0.3481 -0.0683  0.6688
  109OSM    C1411194   0.718   6.751  10.766  0.3538 -0.2971 -1.0629
  109OSM   H14A11195   0.638   6.687  10.733 -0.1406  0.2512 -0.9428
  109OSM   H14B11196   0.715   6.844  10.711  0.5720 -0.0169 -0.6090
  109OSM   H14C11197   0.694   6.780  10.867  0.7414 -1.2124 -0.6979
  109OSM    C1311198   0.945   6.742  10.843 -0.2725 -0.2726  0.0715
  109OSM   H13A11199   1.045   6.704  10.830  0.6951  1.6011  1.5591
  109OSM   H13B11200   0.922   6.721  10.946 -0.4934 -0.2854  0.0200
  109OSM   H13C11201   0.946   6.845  10.809  1.1183 -0.7732 -1.5423
  109OSM    C1211202   0.885   6.671  10.608 -0.5352  0.4962  0.5833
  109OSM   H12A11203   0.803   6.633  10.549  0.5147  0.7869 -1.1305
  109OSM   H12B11204   0.964   6.599  10.592 -1.3720 -0.1104 -1.1098
  109OSM    C1111205   0.926   6.803  10.537  0.1448  0.3454  0.3564
  109OSM   H11A11206   0.977   6.787  10.440  2.0882  0.5729  1.2849
  109OSM   H11B11207   1.006   6.844  10.604  0.0997  2.0178 -0.5572
  109OSM      P11208   0.727   6.907  10.414 -0.2623 -0.2603  0.1420
  109OSM    O1311209   0.593   6.951  10.460 -0.1200  0.2687  0.2173
  109OSM    O1411210   0.792   6.983  10.302 -0.0400  0.2392  0.0134
  109OSM    O1111211   0.719   6.749  10.368 -0.4222  0.4397  0.4690
  109OSM    O1211212   0.828   6.900  10.535  0.0114  0.1783  0.5294
  109OSM    C1S11213   0.626   6.710  10.262  0.2414  0.2898 -1.0720
  109OSM    H1S11214   0.542   6.782  10.258 -1.0663 -1.2088 -1.5985
  109OSM    H1T11215   0.571   6.617  10.287  2.3156 -0.4158  1.2658
  109OSM     NF11216   0.590   6.693  10.015 -0.1207 -0.4441 -0.0623
  109OSM    HNF11217   0.548   6.605   9.993 -1.0055 -0.1937  0.5625
  109OSM    C2S11218   0.694   6.696  10.122  0.1567  0.3721 -0.9930
  109OSM    H2S11219   0.767   6.779  10.106 -0.1201  0.6183 -0.9774
  109OSM    C3S11220   0.781   6.568  10.137  0.7497 -0.0450  1.0413
  109OSM    H3S11221   0.716   6.478  10.136  0.5166  0.1248 -0.0208
  109OSM     O311222   0.856   6.554  10.255 -0.2178 -0.8577  0.1747
  109OSM    HO311223   0.811   6.621  10.307 -0.3369  0.3323 -1.3969
  109OSM    C4S11224   0.874   6.555  10.022  0.4296 -0.1756  0.2852
  109OSM    H4S11225   0.938   6.642  10.005  0.4494 -0.7437 -3.2359
  109OSM    C5S11226   0.890   6.453   9.940  0.8657  1.0851  0.0742
  109OSM    H5S11227   0.831   6.361   9.954  1.6560  0.1512 -2.1228
  109OSM    C6S11228   0.975   6.454   9.820 -0.3293 -0.8257  0.0995
  109OSM    H6S11229   1.000   6.351   9.787 -1.4265 -0.6208 -1.5055
  109OSM    H6T11230   1.071   6.506   9.839 -0.6266  0.1530 -0.8970
  109OSM    C7S11231   0.909   6.530   9.701 -0.6156 -0.0516 -0.2348
  109OSM    H7S11232   0.902   6.635   9.737 -0.5215 -0.4093  0.8832
  109OSM    H7T11233   0.807   6.494   9.675 -0.5038 -0.1446 -0.5407
  109OSM    C8S11234   1.002   6.533   9.574 -0.7237 -0.4784 -0.3549
  109OSM    H8S11235   1.107   6.545   9.608 -1.4769  0.7658  1.7462
  109OSM    H8T11236   0.983   6.614   9.501  2.6553 -0.3821 -1.2896
  109OSM    C9S11237   0.986   6.397   9.501  1.0040  0.3223  0.7941
  109OSM    H9S11238   0.886   6.395   9.454  2.0879 -0.9015 -1.6445
  109OSM    H9T11239   0.988   6.316   9.578 -1.1200  0.0958  0.6681
  109OSM   C10S11240   1.082   6.367   9.385 -0.4057 -0.2192 -0.1201
  109OSM   H10S11241   1.184   6.357   9.427 -1.5710 -3.7366  2.2858
  109OSM   H10T11242   1.084   6.463   9.329  2.5231 -0.6597 -0.9441
  109OSM   C11S11243   1.041   6.259   9.285 -0.0768 -0.1200  0.4996
  109OSM   H11S11244   0.932   6.245   9.266  0.1453 -0.5790 -0.5092
  109OSM   H11T11245   1.068   6.157   9.321  0.0514  0.4539  2.1064
  109OSM   C12S11246   1.099   6.291   9.148  0.3820  0.1401  0.8440
  109OSM   H12S11247   1.206   6.317   9.156  0.5182 -0.5162  1.3078
  109OSM   H12T11248   1.047   6.368   9.087  0.4715 -0.9764 -0.6772
  109OSM   C13S11249   1.102   6.164   9.062 -0.3668  0.1559  0.4882
  109OSM   H13S11250   1.006   6.108   9.071  0.8630 -1.8653  1.5524
  109OSM   H13T11251   1.181   6.094   9.095  0.7817  0.1950 -1.9469
  109OSM   C14S11252   1.123   6.191   8.902  0.7451 -0.3023  0.7495
  109OSM   H14S11253   1.215   6.245   8.871  0.1161  1.6970  2.0974
  109OSM   H14T11254   1.032   6.247   8.872  1.9560  1.3199 -0.0806
  109OSM   C15S11255   1.146   6.057   8.834  0.5682  0.6642 -0.1606
  109OSM   H15S11256   1.090   5.972   8.878  2.7052  0.0380  1.5144
  109OSM   H15T11257   1.246   6.031   8.875  0.9358  1.8281 -0.2802
  109OSM   C16S11258   1.139   6.054   8.682 -0.2750  0.7820  0.5201
  109OSM   H16S11259   1.146   6.157   8.643  0.6301  1.3121  2.0154
  109OSM   H16T11260   1.039   6.014   8.653 -0.4010  1.6017 -0.2074
  109OSM   C17S11261   1.243   5.955   8.616  0.2712 -0.2412 -0.2348
  109OSM   H17S11262   1.342   5.992   8.651  1.6022 -0.8696 -3.0128
  109OSM   H17T11263   1.244   5.952   8.505 -0.7941 -1.3326 -0.2310
  109OSM   C18S11264   1.235   5.806   8.654 -0.4937 -0.2117  0.5417
  109OSM   H18S11265   1.250   5.751   8.558 -2.0943 -0.0151  0.1478
  109OSM   H18T11266   1.134   5.777   8.687 -1.3627 -0.5355 -2.1666
  109OSM   H18U11267   1.315   5.772   8.723  1.1788  2.2066 -0.0759
  109OSM    C1F11268   0.534   6.807   9.975 -0.1488 -0.7926 -0.0920
  109OSM     OF11269   0.573   6.917  10.014 -0.2689  0.4223 -0.0659
  109OSM    C2F11270   0.419   6.802   9.873 -0.3853 -0.7975 -0.3469
  109OSM    H2F11271   0.344   6.873   9.915  1.2572  0.0929  1.2732
  109OSM    H2G11272   0.374   6.701   9.887 -0.1259 -0.5820  2.7047
  109OSM    C3F11273   0.470   6.851   9.736  0.8922  0.3051  0.0612
  109OSM    H3F11274   0.514   6.953   9.732  2.4406 -0.2502  1.5659
  109OSM    H3G11275   0.374   6.853   9.679  1.3328 -0.8427 -0.7587
  109OSM    C4F11276   0.555   6.750   9.660 -0.0531  0.8616 -0.3156
  109OSM    H4F11277   0.510   6.648   9.656 -0.5862  1.0155  1.2226
  109OSM    H4G11278   0.655   6.746   9.708  1.0497  1.3085 -2.4335
  109OSM    C5F11279   0.584   6.789   9.515  0.4229  0.2578  0.5229
  109OSM    H5F11280   0.650   6.879   9.516 -4.4908  4.3437  0.7777
  109OSM    H5G11281   0.494   6.819   9.457  1.1113 -0.3424 -0.9034
  109OSM    C6F11282   0.650   6.680   9.430 -0.5843  0.5220 -0.0510
  109OSM    H6F11283   0.588   6.589   9.446  0.1701  0.3448  2.2033
  109OSM    H6G11284   0.752   6.655   9.465 -0.6956  1.8415  1.3169
  109OSM    C7F11285   0.649   6.718   9.282  0.0706  0.5108 -0.9835
  109OSM    H7F11286   0.692   6.819   9.263  0.1033  0.8370  0.6800
  109OSM    H7G11287   0.542   6.728   9.256  0.0150  1.0925 -0.5608
  109OSM    C8F11288   0.712   6.604   9.197  0.3131  0.2002 -0.8543
  109OSM    H8F11289   0.663   6.605   9.098 -0.9220  1.6873 -0.2660
  109OSM    H8G11290   0.702   6.509   9.253  1.6713 -0.1383 -1.1633
  109OSM    C9F11291   0.859   6.628   9.177 -0.1487 -0.2697 -0.1420
  109OSM    H9F11292   0.924   6.650   9.263  0.3217 -0.1584 -0.5205
  109OSM   C10F11293   0.913   6.641   9.055 -0.0429 -0.0228  0.5635
  109OSM   H10F11294   1.023   6.649   9.051  0.1665 -2.3522 -0.1540
  109OSM   C11F11295   0.850   6.631   8.917  1.1158 -0.3832 -0.2838
  109OSM   H11F11296   0.796   6.725   8.892  2.2883 -0.0859 -1.8464
  109OSM   H11G11297   0.783   6.543   8.909  1.8701 -0.8476 -1.8987
  109OSM   C12F11298   0.956   6.620   8.799  1.3132 -0.5299 -0.2594
  109OSM   H12F11299   0.983   6.514   8.778 -2.1769 -1.8271  1.1099
  109OSM   H12G11300   1.041   6.690   8.815 -0.0529  1.4033 -1.0295
  109OSM   C13F11301   0.899   6.667   8.661  0.3416 -0.5151 -0.7331
  109OSM   H13F11302   0.983   6.659   8.589 -0.3616  1.3550 -1.7968
  109OSM   H13G11303   0.869   6.774   8.664  1.3926 -0.1319 -2.6533
  109OSM   C14F11304   0.773   6.580   8.628 -0.2278 -0.5372 -0.2714
  109OSM   H14F11305   0.728   6.517   8.708 -1.4028  0.8642  0.2104
  109OSM   H14G11306   0.798   6.507   8.549  2.2748 -0.4757  0.3666
  109OSM   C15F11307   0.662   6.673   8.572 -0.0245  0.3915 -0.1074
  109OSM   H15F11308   0.701   6.738   8.490 -2.1055 -1.4254 -2.7300
  109OSM   H15G11309   0.630   6.729   8.662  2.1325  1.0501  0.3160
  109OSM   C16F11310   0.540   6.592   8.509 -0.6087  0.5736  0.1094
  109OSM   H16F11311   0.495   6.527   8.587  1.7620 -1.3744 -0.0418
  109OSM   H16G11312   0.581   6.527   8.429 -2.7349 -1.3583  0.4987
  109OSM   C17F11313   0.430   6.680   8.444 -0.7361  0.1976 -0.0253
  109OSM   H17F11314   0.474   6.741   8.363 -1.2609 -0.0915 -0.5406
  109OSM   H17G11315   0.389   6.752   8.517 -1.1172 -1.8243  1.8831
  109OSM   C18F11316   0.318   6.595   8.384 -0.3086  0.4807 -0.7688
  109OSM   H18F11317   0.235   6.658   8.346  0.4549  2.3972  0.5441
  109OSM   H18G11318   0.291   6.513   8.454 -0.0930 -0.3882 -1.6887
  109OSM   H18H11319   0.356   6.529   8.303 -0.0367 -0.4255  0.0781
  110OSM      N11320   2.592   1.040  10.959  0.2954 -0.7665 -0.3364
  110OSM    C1511321   2.694   0.927  10.975  0.0872 -0.9538  0.3449
  110OSM   H15A11322   2.698   0.863  10.889  0.2952  0.8352 -1.0357
  110OSM   H15B11323   2.668   0.861  11.057 -5.2734  1.2209  0.8644
  110OSM   H15C11324   2.788   0.971  11.006 -0.2178 -0.6911  0.9232
  110OSM    C1411325   2.460   0.979  10.947  0.1889  0.3329  0.5140
  110OSM   H14A11326   2.418   0.944  11.040 -1.9374  0.2154 -0.4299
  110OSM   H14B11327   2.470   0.904  10.870 -1.8492 -1.2515  1.6780
  110OSM   H14C11328   2.382   1.040  10.903  1.4864  0.2546 -2.0847
  110OSM    C1311329   2.598   1.139  11.074  0.1043  0.3590 -0.5314
  110OSM   H13A11330   2.562   1.095  11.165  0.6349  2.4466  0.7441
  110OSM   H13B11331   2.526   1.217  11.054 -1.6339 -0.7558  1.0346
  110OSM   H13C11332   2.699   1.177  11.082  0.0158  0.7460 -1.2023
  110OSM    C1211333   2.621   1.115  10.825  0.2618  0.3466 -0.2859
  110OSM   H12A11334   2.721   1.155  10.825 -0.4519  2.2526  1.3553
  110OSM   H12B11335   2.559   1.202  10.819 -1.0539 -0.4677  0.8634
  110OSM    C1111336   2.602   1.022  10.699 -0.3169 -0.6626  0.0696
  110OSM   H11A11337   2.628   0.916  10.720  1.4446 -0.6647 -1.7436
  110OSM   H11B11338   2.669   1.058  10.618 -0.2809 -0.6998  0.0832
  110OSM      P11339   2.398   1.101  10.551 -0.1272  0.3310  0.3678
  110OSM    O1311340   2.253   1.117  10.599 -0.3850  0.2989  0.6394
  110OSM    O1411341   2.472   1.223  10.511  0.0342 -0.4237 -0.3449
  110OSM    O1111342   2.396   0.994  10.421 -0.0971 -0.4925  0.0545
  110OSM    O1211343   2.466   1.017  10.666 -0.1548  0.2546  0.3792
  110OSM    C1S11344   2.446   0.858  10.418  0.5561 -0.3509 -0.1283
  110OSM    H1S11345   2.385   0.798  10.488  2.8378 -2.7361 -0.0122
  110OSM    H1T11346   2.555   0.849  10.437  0.9414  0.9084 -1.5037
  110OSM     NF11347   2.414   0.663  10.254  0.4349  0.1646  0.3916
  110OSM    HNF11348   2.498   0.613  10.232 -0.4212 -1.3053  0.2939
  110OSM    C2S11349   2.424   0.802  10.266  0.2020 -0.9386 -0.8145
  110OSM    H2S11350   2.331   0.853  10.233  0.6080 -0.3758 -1.0901
  110OSM    C3S11351   2.545   0.850  10.176 -0.0222 -0.1175 -0.0099
  110OSM    H3S11352   2.641   0.797  10.194  0.4999  1.3030  1.6990
  110OSM     O311353   2.583   0.986  10.192  0.3688  0.4396  0.5386
  110OSM    HO311354   2.530   1.009  10.269  1.7598  0.3371  1.5720
  110OSM    C4S11355   2.504   0.836  10.036 -0.3754  0.6230  0.4662
  110OSM    H4S11356   2.410   0.888  10.014 -1.4255  0.0657  3.2506
  110OSM    C5S11357   2.581   0.767   9.951 -0.3835  0.2041 -0.1372
  110OSM    H5S11358   2.678   0.725   9.978  1.2322  2.6414 -1.7019
  110OSM    C6S11359   2.544   0.754   9.805 -0.2239  0.1418  0.5993
  110OSM    H6S11360   2.636   0.769   9.745  0.3089 -0.6693  1.1905
  110OSM    H6T11361   2.470   0.833   9.777  1.8940  2.7718  2.0249
  110OSM    C7S11362   2.487   0.612   9.784 -0.3709 -0.3218  0.7683
  110OSM    H7S11363   2.404   0.600   9.856 -3.5653 -2.0433 -2.8315
  110OSM    H7T11364   2.569   0.544   9.816  1.3144  0.7341 -1.0233
  110OSM    C8S11365   2.432   0.601   9.640 -0.2224  0.5180 -0.0128
  110OSM    H8S11366   2.369   0.689   9.616 -3.2842 -1.2232  1.0512
  110OSM    H8T11367   2.367   0.511   9.636  2.1050 -1.3042  0.8916
  110OSM    C9S11368   2.543   0.592   9.531 -0.3363  0.5568  0.1009
  110OSM    H9S11369   2.611   0.506   9.551 -2.2854 -1.4913 -1.5554
  110OSM    H9T11370   2.602   0.686   9.537  1.4537 -0.5315  0.2470
  110OSM   C10S11371   2.502   0.576   9.386  0.3450 -1.1299  0.0707
  110OSM   H10S11372   2.408   0.633   9.371  0.3168 -1.1974 -0.0103
  110OSM   H10T11373   2.460   0.475   9.365 -0.7544 -0.0922 -3.2117
  110OSM   C11S11374   2.599   0.625   9.271  0.6497 -0.1865  0.5021
  110OSM   H11S11375   2.678   0.547   9.283  0.6266 -0.6738 -2.0549
  110OSM   H11T11376   2.634   0.730   9.278 -2.9108  1.3711 -2.4066
  110OSM   C12S11377   2.537   0.601   9.135 -0.1695  0.3379  0.4343
  110OSM   H12S11378   2.437   0.648   9.124 -0.3434 -0.0201  0.4432
  110OSM   H12T11379   2.522   0.491   9.142 -1.5430  0.5428  1.2338
  110OSM   C13S11380   2.628   0.632   9.018  0.5760 -0.7807 -0.1785
  110OSM   H13S11381   2.701   0.550   8.999  0.2538 -1.0469 -0.2806
  110OSM   H13T11382   2.666   0.734   9.042 -2.6639 -0.1350  2.8616
  110OSM   C14S11383   2.543   0.632   8.888 -0.0385  0.2392 -0.4775
  110OSM   H14S11384   2.449   0.687   8.907 -1.1645 -1.6666 -0.2428
  110OSM   H14T11385   2.516   0.529   8.856  2.3692 -0.7080  0.2854
  110OSM   C15S11386   2.606   0.705   8.766 -0.0901 -0.3567 -0.5880
  110OSM   H15S11387   2.680   0.632   8.727 -2.2791 -1.9630 -1.9738
  110OSM   H15T11388   2.653   0.798   8.806 -0.7471 -0.2766  0.0316
  110OSM   C16S11389   2.502   0.736   8.657 -0.4475  0.1335 -0.7053
  110OSM   H16S11390   2.443   0.823   8.694 -0.1017  1.7264 -3.5342
  110OSM   H16T11391   2.443   0.643   8.652  1.5187 -1.1664 -0.7319
  110OSM   C17S11392   2.560   0.773   8.520 -0.2571 -0.3846 -1.2744
  110OSM   H17S11393   2.471   0.817   8.470 -1.7823  0.4756  1.9107
  110OSM   H17T11394   2.608   0.692   8.461 -0.6177 -0.6876 -1.1562
  110OSM   C18S11395   2.665   0.889   8.518  0.3142  0.8837 -0.7174
  110OSM   H18S11396   2.632   0.978   8.575 -0.7134  0.1545 -0.1458
  110OSM   H18T11397   2.684   0.908   8.410  0.5192  0.7814 -0.7006
  110OSM   H18U11398   2.763   0.856   8.558 -0.0765  0.9841  0.3592
  110OSM    C1F11399   2.306   0.600  10.296  0.3458 -0.1107 -0.9441
  110OSM     OF11400   2.215   0.658  10.357  0.3982 -0.2348  0.2560
  110OSM    C2F11401   2.308   0.448  10.282  0.3343  0.8614 -0.0311
  110OSM    H2F11402   2.320   0.400  10.381  1.8948  3.0705  0.9508
  110OSM    H2G11403   2.402   0.423  10.227 -0.7107  1.1666 -2.0593
  110OSM    C3F11404   2.179   0.390  10.212 -0.1842 -1.0317  0.2671
  110OSM    H3F11405   2.162   0.442  10.115  2.0629 -0.5953  0.0626
  110OSM    H3G11406   2.095   0.417  10.280 -1.2713  0.1767 -1.4708
  110OSM    C4F11407   2.178   0.241  10.195  0.0443  0.0300  0.9216
  110OSM    H4F11408   2.088   0.207  10.140 -1.4849  0.6403  2.9542
  110OSM    H4G11409   2.162   0.203  10.298  0.8135  1.9874  1.8042
  110OSM    C5F11410   2.310   0.173  10.135 -0.3027  0.0082 -0.6236
  110OSM    H5F11411   2.287   0.065  10.120  1.1957 -0.2996 -0.8331
  110OSM    H5G11412   2.394   0.177  10.207 -0.3446 -3.0974 -0.2696
  110OSM    C6F11413   2.347   0.217   9.997 -0.0439 -0.0022  0.5591
  110OSM    H6F11414   2.409   0.137   9.951  0.3108  1.2263 -1.1768
  110OSM    H6G11415   2.405   0.311   9.993  1.1374 -0.6823 -3.8219
  110OSM    C7F11416   2.229   0.239   9.900  0.2201  0.3403  0.3534
  110OSM    H7F11417   2.172   0.332   9.919 -1.3651 -0.1874 -1.4605
  110OSM    H7G11418   2.158   0.156   9.919  0.5122  0.4670  2.1015
  110OSM    C8F11419   2.279   0.252   9.753 -0.0784  0.3525 -0.5654
  110OSM    H8F11420   2.348   0.167   9.735  1.6840  1.6630 -0.3263
  110OSM    H8G11421   2.349   0.338   9.758  0.3981  0.0096 -1.2194
  110OSM    C9F11422   2.163   0.269   9.660  0.0779  0.2383 -0.2585
  110OSM    H9F11423   2.067   0.297   9.707  1.0067 -1.1413  2.7253
  110OSM   C10F11424   2.170   0.236   9.532 -0.2198 -0.7280 -0.2351
  110OSM   H10F11425   2.080   0.244   9.470 -0.1771  1.3018 -0.1058
  110OSM   C11F11426   2.293   0.198   9.466 -0.4217 -0.1597  0.3847
  110OSM   H11F11427   2.312   0.089   9.470  0.1373 -0.1393 -1.1317
  110OSM   H11G11428   2.381   0.255   9.503 -0.7806  1.5393 -1.2009
  110OSM   C12F11429   2.281   0.250   9.324 -0.1590 -0.3901  0.1532
  110OSM   H12F11430   2.385   0.279   9.300  0.0683 -1.6194 -0.4116
  110OSM   H12G11431   2.216   0.338   9.304  0.9102  0.3299 -0.2448
  110OSM   C13F11432   2.264   0.132   9.232  0.0269 -0.4742  1.1623
  110OSM   H13F11433   2.160   0.093   9.221  0.0007 -0.0767 -0.0587
  110OSM   H13G11434   2.326   0.052   9.278  1.2010  0.1181  0.6485
  110OSM   C14F11435   2.308   0.163   9.086  0.0362  0.2589  0.8662
  110OSM   H14F11436   2.316   0.069   9.028  0.9478  1.6129 -1.3275
  110OSM   H14G11437   2.412   0.200   9.095  1.0460 -2.2562  0.2670
  110OSM   C15F11438   2.219   0.274   9.029 -0.4059  0.4256  0.4094
  110OSM   H15F11439   2.237   0.359   9.099 -3.9235  0.3664  1.5505
  110OSM   H15G11440   2.110   0.256   9.022 -0.3641  0.8121 -2.2712
  110OSM   C16F11441   2.260   0.309   8.888 -0.1863 -0.0705 -0.0874
  110OSM   H16F11442   2.232   0.221   8.826 -1.2056 -0.7072  1.2369
  110OSM   H16G11443   2.371   0.310   8.884 -0.1936 -0.2696 -0.4833
  110OSM   C17F11444   2.179   0.423   8.828  0.9117 -0.0340 -0.4640
  110OSM   H17F11445   2.249   0.509   8.820  1.0996 -0.1849 -0.4607
  110OSM   H17G11446   2.095   0.461   8.889 -1.4827 -0.7396 -3.1186
  110OSM   C18F11447   2.118   0.376   8.697  0.5203  0.3909 -0.2545
  110OSM   H18F11448   2.023   0.326   8.725 -0.2311  2.3731  0.9650
  110OSM   H18G11449   2.183   0.309   8.637  1.0669 -0.1295  0.9079
  110OSM   H18H11450   2.085   0.464   8.637 -1.7712  0.8392  1.5458
  111OSM      N11451   3.589   3.736  10.893 -0.0062 -0.5046 -0.4922
  111OSM    C1511452   3.488   3.826  10.968 -0.0045 -0.4190 -0.4279
  111OSM   H15A11453   3.458   3.906  10.902  1.1067  0.2100 -0.1889
  111OSM   H15B11454   3.528   3.870  11.058 -0.0795  0.5586 -0.8576
  111OSM   H15C11455   3.401   3.766  10.990  0.3122 -0.8844 -0.4321
  111OSM    C1411456   3.711   3.819  10.859 -0.3486 -0.8677  0.0435
  111OSM   H14A11457   3.742   3.866  10.951  0.6162 -0.3015 -0.5577
  111OSM   H14B11458   3.692   3.894  10.783 -2.3107  0.4380  1.7363
  111OSM   H14C11459   3.788   3.749  10.828  0.7823  0.2802  0.1953
  111OSM    C1311460   3.614   3.628  10.992 -0.3532  0.0172  0.2894
  111OSM   H13A11461   3.527   3.569  11.015 -0.3630 -1.1082 -2.3420
  111OSM   H13B11462   3.640   3.671  11.088 -0.4999 -2.9144  1.7481
  111OSM   H13C11463   3.696   3.565  10.960  1.1187  3.1502 -2.6620
  111OSM    C1211464   3.531   3.680  10.765  0.0790 -0.1446  0.1986
  111OSM   H12A11465   3.442   3.630  10.800  0.3970  0.0303  1.3157
  111OSM   H12B11466   3.601   3.608  10.726 -0.6093 -0.3858 -0.6263
  111OSM    C1111467   3.497   3.774  10.655 -0.2617 -0.0835 -0.2848
  111OSM   H11A11468   3.467   3.719  10.564  0.2405  1.4055 -1.3810
  111OSM   H11B11469   3.594   3.818  10.624  1.9745 -3.4391  1.3476
  111OSM      P11470   3.238   3.815  10.699  0.1842  0.2041  0.0125
  111OSM    O1311471   3.226   3.683  10.766  0.9408 -0.5702 -0.0680
  111OSM    O1411472   3.167   3.929  10.758  0.1685  0.4653  0.2901
  111OSM    O1111473   3.210   3.794  10.546  0.0739 -0.0816 -0.5582
  111OSM    O1211474   3.390   3.863  10.688 -0.0849  0.2664 -0.2766
  111OSM    C1S11475   3.252   3.888  10.445 -0.6433 -0.1548 -0.0799
  111OSM    H1S11476   3.349   3.940  10.460  0.6676 -0.9512 -4.3419
  111OSM    H1T11477   3.172   3.964  10.429 -0.9235 -0.8182 -2.1433
  111OSM     NF11478   3.319   3.906  10.208 -0.1677  0.3305  0.2505
  111OSM    HNF11479   3.268   3.940  10.129  0.4236  0.4029 -0.1076
  111OSM    C2S11480   3.269   3.814  10.306  0.8069 -0.1037 -0.7219
  111OSM    H2S11481   3.341   3.732  10.328 -1.6390 -1.6278  2.3661
  111OSM    C3S11482   3.131   3.755  10.270 -0.5122  0.7769  0.1686
  111OSM    H3S11483   3.056   3.837  10.274 -2.0952 -0.4783 -1.6408
  111OSM     O311484   3.070   3.671  10.367  0.0593  0.2066 -0.4256
  111OSM    HO311485   3.114   3.698  10.447 -0.6172  0.2369 -0.0617
  111OSM    C4S11486   3.135   3.691  10.139  0.3754  0.5350 -0.3883
  111OSM    H4S11487   3.194   3.598  10.140 -1.8936 -0.9761 -0.0428
  111OSM    C5S11488   3.071   3.728  10.030 -0.5007  0.0569  0.1139
  111OSM    H5S11489   3.006   3.816  10.043 -0.3083  0.2423 -0.1642
  111OSM    C6S11490   3.065   3.662   9.893  0.3499  0.3772 -0.6081
  111OSM    H6S11491   2.974   3.600   9.880 -0.0031  1.0069 -1.2382
  111OSM    H6T11492   3.146   3.587   9.882 -1.3368 -1.6682  0.2685
  111OSM    C7S11493   3.066   3.768   9.778 -0.6103 -0.5665 -0.2399
  111OSM    H7S11494   3.151   3.838   9.792 -1.5045  0.5292 -0.0985
  111OSM    H7T11495   2.983   3.842   9.788 -0.7841 -0.8561  0.6393
  111OSM    C8S11496   3.082   3.713   9.636  0.2141 -0.0826 -0.1488
  111OSM    H8S11497   3.168   3.643   9.648 -0.8976 -1.8744 -1.9878
  111OSM    H8T11498   3.112   3.789   9.561 -1.2042  1.1552  0.4776
  111OSM    C9S11499   2.957   3.634   9.589  0.2556 -0.0232  0.8162
  111OSM    H9S11500   2.877   3.710   9.581  1.6745  1.5407  0.9499
  111OSM    H9T11501   2.935   3.567   9.675 -4.2356 -1.4545 -1.1207
  111OSM   C10S11502   2.969   3.548   9.465  0.0897  0.5835  0.8999
  111OSM   H10S11503   2.871   3.498   9.452  1.3359 -2.4535  2.1044
  111OSM   H10T11504   3.042   3.466   9.484  1.9091  1.2988 -2.2495
  111OSM   C11S11505   3.007   3.624   9.335 -0.3007 -0.1353 -0.6892
  111OSM   H11S11506   3.114   3.653   9.344 -0.6652  2.2548 -2.8547
  111OSM   H11T11507   2.945   3.716   9.332  0.7722  0.5945 -1.8063
  111OSM   C12S11508   2.989   3.540   9.213  0.4826 -1.0562 -0.7883
  111OSM   H12S11509   2.880   3.527   9.200  0.0263 -0.0632  1.6940
  111OSM   H12T11510   3.036   3.440   9.223 -0.1920 -1.3152 -0.1600
  111OSM   C13S11511   3.059   3.607   9.092  0.4138  0.0463 -0.5373
  111OSM   H13S11512   3.167   3.612   9.118 -0.0671  0.5409  1.5921
  111OSM   H13T11513   3.020   3.711   9.092  1.5956  0.5019 -1.4677
  111OSM   C14S11514   3.025   3.537   8.963 -0.0354 -0.8916  1.1674
  111OSM   H14S11515   3.011   3.618   8.889  0.2248 -0.5100  1.5286
  111OSM   H14T11516   2.940   3.467   8.977 -0.1442 -1.0270 -0.1347
  111OSM   C15S11517   3.148   3.465   8.906  0.2633 -0.2410 -0.1550
  111OSM   H15S11518   3.179   3.389   8.981  0.7380  0.2430  0.1399
  111OSM   H15T11519   3.231   3.537   8.894  0.8160 -1.1124 -1.9195
  111OSM   C16S11520   3.134   3.403   8.760  0.4173  0.5090 -0.2937
  111OSM   H16S11521   3.035   3.351   8.759  1.2681 -1.1865 -1.8289
  111OSM   H16T11522   3.208   3.322   8.743 -0.2860 -0.4717  1.1385
  111OSM   C17S11523   3.131   3.500   8.647  0.1637  0.1892 -0.3105
  111OSM   H17S11524   3.214   3.573   8.658 -0.5005  0.8338  0.5988
  111OSM   H17T11525   3.043   3.567   8.654  0.1439 -0.0051  2.1846
  111OSM   C18S11526   3.138   3.436   8.507  0.7307  0.4024  0.3793
  111OSM   H18S11527   3.238   3.425   8.459  0.9573 -0.9434  1.1242
  111OSM   H18T11528   3.062   3.484   8.442  0.8877  0.5994  0.3400
  111OSM   H18U11529   3.098   3.334   8.525 -0.2274  0.6244 -0.3685
  111OSM    C1F11530   3.444   3.955  10.213  0.5958 -0.5866  0.5296
  111OSM     OF11531   3.520   3.934  10.307 -0.4306 -0.1995  0.8044
  111OSM    C2F11532   3.472   4.058  10.110 -0.0545 -0.7697 -0.1502
  111OSM    H2F11533   3.434   4.154  10.149 -1.6465 -1.3818 -0.1400
  111OSM    H2G11534   3.426   4.032  10.012  1.5281 -0.4826 -1.0132
  111OSM    C3F11535   3.630   4.082  10.083  0.5499  0.8910 -0.0470
  111OSM    H3F11536   3.662   3.989  10.031 -1.1160 -0.2797  0.9296
  111OSM    H3G11537   3.686   4.089  10.178 -1.7929  1.1570  1.3801
  111OSM    C4F11538   3.665   4.211  10.004 -0.0393  0.2562  0.0282
  111OSM    H4F11539   3.771   4.219   9.973 -0.8040 -0.1781 -3.0452
  111OSM    H4G11540   3.646   4.296  10.072  0.6387  1.5406 -1.3442
  111OSM    C5F11541   3.569   4.227   9.888 -0.7972  0.5724 -0.1732
  111OSM    H5F11542   3.568   4.330   9.847 -2.4130  1.5940  2.1806
  111OSM    H5G11543   3.464   4.209   9.919 -1.1263 -0.3389 -1.7492
  111OSM    C6F11544   3.602   4.134   9.765 -0.2816 -0.3841  0.9453
  111OSM    H6F11545   3.582   4.027   9.787  2.0638 -1.3131 -1.0562
  111OSM    H6G11546   3.712   4.137   9.754 -0.4749  1.0740 -1.1109
  111OSM    C7F11547   3.542   4.161   9.627 -0.3276 -0.1674  0.4643
  111OSM    H7F11548   3.527   4.266   9.594 -0.6946  0.0680  1.3599
  111OSM    H7G11549   3.443   4.112   9.620 -0.6798  0.0587  2.9568
  111OSM    C8F11550   3.638   4.093   9.522 -0.8503  1.5626  0.5418
  111OSM    H8F11551   3.650   3.987   9.555  1.7480  1.5308 -0.3335
  111OSM    H8G11552   3.742   4.126   9.540 -0.1810 -1.7168  4.3498
  111OSM    C9F11553   3.598   4.117   9.377 -0.1553  0.1815  0.3727
  111OSM    H9F11554   3.606   4.225   9.358  2.9741  0.1213  0.7803
  111OSM   C10F11555   3.586   4.018   9.285 -0.7790 -0.0380  0.5457
  111OSM   H10F11556   3.538   4.045   9.190  0.0126  0.8984  0.3852
  111OSM   C11F11557   3.594   3.869   9.306 -0.3184 -0.4946  0.2645
  111OSM   H11F11558   3.488   3.838   9.314 -1.0450  1.9931  1.3296
  111OSM   H11G11559   3.649   3.850   9.401  2.8371 -0.0280 -1.3332
  111OSM   C12F11560   3.660   3.803   9.186 -0.2462  0.5448  0.0048
  111OSM   H12F11561   3.647   3.695   9.209 -0.1573  0.5169 -0.0749
  111OSM   H12G11562   3.769   3.818   9.179  0.2086 -2.5049 -1.0393
  111OSM   C13F11563   3.597   3.814   9.048 -0.2553 -0.2453  0.0404
  111OSM   H13F11564   3.616   3.917   9.010 -2.2077  0.0211 -0.3439
  111OSM   H13G11565   3.486   3.807   9.055 -0.1868  0.2925  2.4861
  111OSM   C14F11566   3.643   3.702   8.945  0.4288  0.3257  0.2440
  111OSM   H14F11567   3.749   3.690   8.974  0.6118 -0.9905 -0.8676
  111OSM   H14G11568   3.621   3.748   8.846  1.9376  1.8845  0.5960
  111OSM   C15F11569   3.569   3.565   8.967 -0.0926 -0.3927 -0.5216
  111OSM   H15F11570   3.459   3.575   8.956 -0.3815 -0.6827  1.6011
  111OSM   H15G11571   3.591   3.515   9.064  0.7649  0.5253 -0.2237
  111OSM   C16F11572   3.602   3.467   8.860 -0.3369  0.1820  0.2474
  111OSM   H16F11573   3.559   3.510   8.767  1.9615 -0.3593 -1.1475
  111OSM   H16G11574   3.558   3.370   8.891  0.5072 -0.9117 -1.8137
  111OSM   C17F11575   3.758   3.450   8.840  0.5330  0.0495  0.1026
  111OSM   H17F11576   3.812   3.420   8.932  4.9880 -1.6597 -2.7203
  111OSM   H17G11577   3.805   3.545   8.805 -0.2476  0.6088  0.5388
  111OSM   C18F11578   3.791   3.339   8.737 -0.2715  0.0812  0.5064
  111OSM   H18F11579   3.753   3.242   8.775  2.2538 -0.8801  0.7821
  111OSM   H18G11580   3.900   3.337   8.715 -0.7291  1.0335 -2.2346
  111OSM   H18H11581   3.736   3.344   8.640 -0.1505 -0.9950  0.3774
  112OSM      N11582   4.050   2.927  11.002  0.6016  0.5207 -0.3853
  112OSM    C1511583   3.930   2.966  11.080 -0.0372 -0.2373 -0.3665
  112OSM   H15A11584   3.839   2.978  11.022  0.4282  0.9815 -0.8638
  112OSM   H15B11585   3.952   3.054  11.138  1.1924 -0.5318 -0.3604
  112OSM   H15C11586   3.924   2.888  11.154  1.9230  1.1975  1.4257
  112OSM    C1411587   4.083   3.010  10.875 -0.6227 -0.0457 -0.6806
  112OSM   H14A11588   4.093   3.116  10.895  0.2955 -0.4873  1.4799
  112OSM   H14B11589   3.997   2.998  10.812 -1.0120  1.0218 -0.3725
  112OSM   H14C11590   4.177   2.976  10.833  0.4454  2.5606 -0.5792
  112OSM    C1311591   4.167   2.947  11.088  0.0909  0.1082 -0.0833
  112OSM   H13A11592   4.185   3.050  11.114 -1.1401 -0.2902  2.7421
  112OSM   H13B11593   4.252   2.897  11.044 -1.7371 -2.0690 -1.3884
  112OSM   H13C11594   4.157   2.889  11.179  0.8738 -1.0818 -0.7363
  112OSM    C1211595   4.044   2.777  10.963  0.3404 -0.6924 -0.0079
  112OSM   H12A11596   4.019   2.717  11.049  0.8576  0.1598  0.7521
  112OSM   H12B11597   4.146   2.763  10.931  0.6919  1.8259 -0.1962
  112OSM    C1111598   3.961   2.743  10.842 -0.0599  0.2720  0.2769
  112OSM   H11A11599   3.982   2.634  10.831  1.6532  0.5649  0.4192
  112OSM   H11B11600   4.001   2.783  10.746 -1.8307  1.1293 -0.1570
  112OSM      P11601   3.714   2.688  10.912 -0.1143  0.3020  0.0905
  112OSM    O1311602   3.768   2.596  11.014  0.1129 -0.3276  0.0462
  112OSM    O1411603   3.593   2.761  10.954  0.3514  0.2325 -0.1389
  112OSM    O1111604   3.687   2.602  10.784 -0.3373 -0.6336  0.3113
  112OSM    O1211605   3.824   2.792  10.864  0.4697  0.5733 -0.3741
  112OSM    C1S11606   3.666   2.632  10.649  0.7628 -0.0665 -0.0262
  112OSM    H1S11607   3.705   2.734  10.626 -1.7800  1.2506  1.0840
  112OSM    H1T11608   3.557   2.637  10.627  0.9072  0.6240 -0.6304
  112OSM     NF11609   3.725   2.580  10.415 -0.0707 -0.1442  0.0664
  112OSM    HNF11610   3.665   2.543  10.345  1.2254 -0.0422 -1.1375
  112OSM    C2S11611   3.721   2.528  10.551 -0.8647 -0.8880  0.6813
  112OSM    H2S11612   3.824   2.521  10.592 -1.1541 -2.2634  1.2363
  112OSM    C3S11613   3.638   2.400  10.571 -0.3399  0.2181  0.0714
  112OSM    H3S11614   3.535   2.425  10.538  0.3348  0.4932 -1.9892
  112OSM     O311615   3.623   2.366  10.708 -0.4446 -0.3330 -0.2809
  112OSM    HO311616   3.663   2.435  10.761 -2.2566 -1.5705  2.9989
  112OSM    C4S11617   3.690   2.290  10.483 -0.2813 -0.8086 -0.8514
  112OSM    H4S11618   3.619   2.281  10.400 -1.0146 -1.8656 -0.1290
  112OSM    C5S11619   3.788   2.199  10.501  0.5321 -0.4057 -0.2943
  112OSM    H5S11620   3.860   2.222  10.581 -0.2287 -0.6097  0.4721
  112OSM    C6S11621   3.831   2.105  10.391 -0.7622  0.4773 -0.0937
  112OSM    H6S11622   3.827   1.996  10.416 -0.1810  0.8550  1.7891
  112OSM    H6T11623   3.939   2.130  10.378 -0.4991  0.8969  2.4668
  112OSM    C7S11624   3.776   2.093  10.247  0.6463  0.5167  0.4777
  112OSM    H7S11625   3.801   2.192  10.205 -3.0467  2.2690  1.9615
  112OSM    H7T11626   3.668   2.071  10.261  1.0099 -2.8150 -0.8718
  112OSM    C8S11627   3.846   1.977  10.167 -0.6113  0.0955 -0.3815
  112OSM    H8S11628   3.800   1.881  10.201  0.5208 -1.3609 -2.6998
  112OSM    H8T11629   3.955   1.978  10.189 -0.9596  1.2867  1.5454
  112OSM    C9S11630   3.840   1.975  10.006  0.0867  0.4804 -0.4382
  112OSM    H9S11631   3.870   2.074   9.966  0.1002  0.5815 -0.1762
  112OSM    H9T11632   3.735   1.973   9.968 -0.7018  1.5841  1.5388
  112OSM   C10S11633   3.930   1.866   9.936 -0.3468  0.4513  0.6094
  112OSM   H10S11634   3.882   1.774   9.975  0.3296  0.0881  0.6118
  112OSM   H10T11635   4.030   1.881   9.982 -0.2378  2.3715 -0.1984
  112OSM   C11S11636   3.935   1.877   9.783 -1.1518 -0.5809  0.3525
  112OSM   H11S11637   4.017   1.819   9.738 -0.2169  1.3308 -0.5216
  112OSM   H11T11638   3.957   1.983   9.757  0.0355 -0.5776  1.2540
  112OSM   C12S11639   3.804   1.841   9.716  0.4278  0.1390  0.3344
  112OSM   H12S11640   3.730   1.906   9.767  0.8826  0.4951  0.5445
  112OSM   H12T11641   3.788   1.738   9.755 -2.2863  0.6071  0.6581
  112OSM   C13S11642   3.793   1.853   9.567  0.8239 -0.0607 -0.1055
  112OSM   H13S11643   3.845   1.946   9.535 -3.2214  2.2240 -0.7773
  112OSM   H13T11644   3.690   1.862   9.526  0.5134  1.8576  0.9548
  112OSM   C14S11645   3.848   1.729   9.490 -0.2758  0.8082  1.1352
  112OSM   H14S11646   3.770   1.658   9.454 -0.5709  1.2151  0.9564
  112OSM   H14T11647   3.897   1.667   9.568  3.9470  2.4663  0.0808
  112OSM   C15S11648   3.934   1.751   9.363  0.4071  0.3029 -0.0175
  112OSM   H15S11649   4.010   1.829   9.386  0.4367  1.1460 -2.6465
  112OSM   H15T11650   3.876   1.789   9.277 -1.5438 -2.6847 -0.1525
  112OSM   C16S11651   4.008   1.615   9.333  0.4832  0.2184  0.0570
  112OSM   H16S11652   3.924   1.553   9.293  2.3793 -2.2033 -0.3944
  112OSM   H16T11653   4.034   1.560   9.426  1.2889 -0.8655 -0.7800
  112OSM   C17S11654   4.117   1.626   9.235 -0.6785 -0.8250 -0.0773
  112OSM   H17S11655   4.171   1.532   9.212  0.3398  0.1116 -1.7331
  112OSM   H17T11656   4.188   1.691   9.291  0.9447 -0.9638 -1.8460
  112OSM   C18S11657   4.079   1.702   9.113 -0.4516 -0.2765  0.6098
  112OSM   H18S11658   4.043   1.804   9.137  1.8690  0.6105  0.5732
  112OSM   H18T11659   3.990   1.653   9.069 -0.3249  0.2091 -0.2063
  112OSM   H18U11660   4.163   1.711   9.041  0.6252 -0.0529  1.8435
  112OSM    C1F11661   3.804   2.683  10.373 -0.0078 -0.0783 -0.2042
  112OSM     OF11662   3.893   2.729  10.445  0.8545 -0.0011  0.4003
  112OSM    C2F11663   3.774   2.731  10.237 -0.2843 -0.9557  0.2775
  112OSM    H2F11664   3.675   2.781  10.235 -0.1262 -0.6469  0.2489
  112OSM    H2G11665   3.770   2.641  10.172 -1.5748 -1.5276  1.1037
  112OSM    C3F11666   3.875   2.827  10.183  0.4205 -0.2120 -0.1483
  112OSM    H3F11667   3.977   2.781  10.186  0.6788  0.3842  1.2319
  112OSM    H3G11668   3.888   2.917  10.247  0.5264 -0.5778  0.3542
  112OSM    C4F11669   3.860   2.873  10.039 -0.8351  0.2435  0.3423
  112OSM    H4F11670   3.932   2.954  10.017  2.4814 -2.1651  1.5530
  112OSM    H4G11671   3.756   2.905  10.016 -0.7500  0.0853 -0.3034
  112OSM    C5F11672   3.893   2.761   9.935 -0.0208 -0.3923  0.1273
  112OSM    H5F11673   3.839   2.665   9.950 -0.4787 -0.1618 -0.0156
  112OSM    H5G11674   3.996   2.723   9.952  0.4324  0.0288 -1.4904
  112OSM    C6F11675   3.865   2.812   9.790  0.5935 -0.1026 -0.6041
  112OSM    H6F11676   3.914   2.912   9.782 -0.5985  0.5124 -0.3479
  112OSM    H6G11677   3.756   2.821   9.771  0.0885 -1.7005  1.2073
  112OSM    C7F11678   3.921   2.711   9.693 -0.5880  0.2354 -1.1876
  112OSM    H7F11679   3.885   2.608   9.715 -0.4460 -0.2181 -2.9561
  112OSM    H7G11680   4.030   2.710   9.713 -0.7927  0.6620  0.0458
  112OSM    C8F11681   3.888   2.726   9.546  0.4957  0.4968  0.4013
  112OSM    H8F11682   3.894   2.837   9.540 -0.8275  0.5332 -0.9735
  112OSM    H8G11683   3.782   2.701   9.523  0.9420 -1.4094  0.3122
  112OSM    C9F11684   3.980   2.680   9.428 -0.0478  0.5726 -0.0152
  112OSM    H9F11685   4.086   2.688   9.454 -0.0318  2.0973 -0.4268
  112OSM   C10F11686   3.942   2.618   9.314  0.8050  0.6350 -0.0978
  112OSM   H10F11687   4.025   2.573   9.256  0.1055 -1.1651  0.2380
  112OSM   C11F11688   3.798   2.587   9.278 -0.0290  0.7975 -0.0056
  112OSM   H11F11689   3.739   2.558   9.367 -2.2654  1.2919 -1.2637
  112OSM   H11G11690   3.795   2.494   9.217  0.1577 -0.3644  1.6828
  112OSM   C12F11691   3.722   2.687   9.192 -0.0213 -0.0457 -0.2733
  112OSM   H12F11692   3.621   2.644   9.178 -0.4444  1.0467 -0.7169
  112OSM   H12G11693   3.775   2.670   9.095  0.9002 -1.3394  0.4215
  112OSM   C13F11694   3.717   2.840   9.231 -0.1055  0.2680 -0.4333
  112OSM   H13F11695   3.817   2.888   9.231  0.9429 -1.7810 -0.3543
  112OSM   H13G11696   3.687   2.854   9.338  0.3444  1.8635 -0.4953
  112OSM   C14F11697   3.623   2.905   9.126 -0.5333 -0.1594  0.5735
  112OSM   H14F11698   3.609   3.013   9.148  1.7470  0.2913  0.0586
  112OSM   H14G11699   3.526   2.852   9.122 -0.0729 -0.9642 -0.8031
  112OSM   C15F11700   3.688   2.911   8.992  0.1381  0.0904 -0.2005
  112OSM   H15F11701   3.680   2.813   8.940  0.1570  0.3365 -0.6787
  112OSM   H15G11702   3.794   2.942   8.989  0.3706 -0.5430  1.0387
  112OSM   C16F11703   3.620   3.007   8.903 -0.3441 -0.0148  0.4158
  112OSM   H16F11704   3.623   3.110   8.943 -0.6286 -0.4425  1.5694
  112OSM   H16G11705   3.512   2.979   8.899  0.1898 -3.1048  3.1701
  112OSM   C17F11706   3.673   2.987   8.758  0.3401 -0.6537  0.1220
  112OSM   H17F11707   3.677   2.880   8.730 -2.3376 -0.3317 -1.7907
  112OSM   H17G11708   3.774   3.030   8.777 -0.1781  0.1130  1.3021
  112OSM   C18F11709   3.591   3.066   8.655 -0.6320  0.9205 -0.3156
  112OSM   H18F11710   3.565   3.170   8.687 -1.3309  0.7175 -0.1911
  112OSM   H18G11711   3.492   3.015   8.657 -0.5902  0.7979  2.4074
  112OSM   H18H11712   3.631   3.062   8.551  1.3640 -0.1896  0.4577
  113OSM      N11713   3.000   5.072  10.838 -0.1644  0.4867 -0.6070
  113OSM    C1511714   2.874   5.149  10.846 -0.7292 -0.2035  0.1828
  113OSM   H15A11715   2.789   5.086  10.823  0.2257 -1.2345 -0.6194
  113OSM   H15B11716   2.871   5.220  10.764 -1.2245 -1.1983 -0.6793
  113OSM   H15C11717   2.870   5.202  10.940 -3.5226 -1.5495  0.9228
  113OSM    C1411718   3.115   5.154  10.851  0.3879 -0.1958  0.3156
  113OSM   H14A11719   3.115   5.182  10.955  2.3969 -0.6714  0.4860
  113OSM   H14B11720   3.101   5.235  10.782  0.2774 -0.5085 -0.0341
  113OSM   H14C11721   3.208   5.103  10.833 -0.4940 -1.9103  0.3707
  113OSM    C1311722   2.992   4.956  10.938  0.1795 -0.6051 -0.7289
  113OSM   H13A11723   2.901   4.904  10.915 -2.2045  2.2575  1.3695
  113OSM   H13B11724   2.984   4.987  11.041  1.3534 -0.8332 -0.5459
  113OSM   H13C11725   3.077   4.889  10.942  0.7765  0.1649  1.5739
  113OSM    C1211726   3.003   5.002  10.702 -0.0255 -0.2278 -0.2671
  113OSM   H12A11727   3.079   4.926  10.699  0.0930 -0.0747 -2.6146
  113OSM   H12B11728   3.027   5.075  10.627 -1.5239 -1.6379 -2.2167
  113OSM    C1111729   2.869   4.946  10.647  0.2010 -0.9382 -0.1530
  113OSM   H11A11730   2.901   4.921  10.543  0.1148 -0.5687 -0.2687
  113OSM   H11B11731   2.789   5.023  10.646 -1.4942 -2.6139 -0.3508
  113OSM      P11732   2.698   4.796  10.790 -0.1329 -0.1649 -0.1744
  113OSM    O1311733   2.727   4.686  10.876  0.3213  0.0318  0.0159
  113OSM    O1411734   2.656   4.926  10.851 -0.0547  0.6734  0.1597
  113OSM    O1111735   2.594   4.753  10.684 -0.2281 -0.1277 -0.6282
  113OSM    O1211736   2.830   4.825  10.706 -0.5093  0.3984 -0.1447
  113OSM    C1S11737   2.574   4.826  10.562  0.2969 -0.2778 -0.0809
  113OSM    H1S11738   2.620   4.792  10.467 -0.8985 -1.7763 -0.1656
  113OSM    H1T11739   2.611   4.930  10.577 -2.3288  0.6168  0.7352
  113OSM     NF11740   2.403   4.893  10.391 -0.2565  0.0118 -0.4288
  113OSM    HNF11741   2.389   4.992  10.397 -1.9008 -0.2657  1.0211
  113OSM    C2S11742   2.422   4.828  10.524  0.3998 -0.0071  0.8247
  113OSM    H2S11743   2.390   4.724  10.505  0.4729  0.2517 -0.8158
  113OSM    C3S11744   2.330   4.891  10.637 -0.1792 -0.0149  0.6622
  113OSM    H3S11745   2.354   4.999  10.646  0.8888 -0.0327 -1.3729
  113OSM     O311746   2.356   4.829  10.766  0.2005  0.0148 -0.2997
  113OSM    HO311747   2.430   4.771  10.748 -0.1805 -0.2962 -0.8991
  113OSM    C4S11748   2.180   4.880  10.607 -0.0035 -0.2327  0.4193
  113OSM    H4S11749   2.130   4.973  10.576  0.0703  0.3451  1.9517
  113OSM    C5S11750   2.111   4.761  10.602  0.2435 -0.3908 -0.7046
  113OSM    H5S11751   2.167   4.666  10.610 -0.2089 -0.7153 -1.2529
  113OSM    C6S11752   1.961   4.744  10.586 -0.6455 -0.4800  0.2328
  113OSM    H6S11753   1.914   4.841  10.560  0.2466 -0.1799 -0.3110
  113OSM    H6T11754   1.917   4.706  10.680 -3.3104  0.4396 -0.5588
  113OSM    C7S11755   1.922   4.653  10.462 -0.2204  0.4241 -0.0655
  113OSM    H7S11756   1.953   4.546  10.472 -0.8938  0.1736 -0.5471
  113OSM    H7T11757   1.982   4.695  10.379 -1.0969 -0.3675 -1.1421
  113OSM    C8S11758   1.780   4.658  10.418 -0.8873 -1.1453 -0.2107
  113OSM    H8S11759   1.764   4.768  10.415 -1.3821 -1.1241  1.7791
  113OSM    H8T11760   1.712   4.619  10.497 -1.6751 -1.4048 -1.0053
  113OSM    C9S11761   1.748   4.599  10.285  0.2304 -0.3841  0.7960
  113OSM    H9S11762   1.787   4.495  10.283 -1.1227 -0.9242 -1.6492
  113OSM    H9T11763   1.796   4.655  10.202 -0.6667  2.0213  1.8148
  113OSM   C10S11764   1.596   4.605  10.252  0.8777 -0.6019 -0.6828
  113OSM   H10S11765   1.556   4.704  10.284  0.8215 -2.0752  4.6262
  113OSM   H10T11766   1.549   4.529  10.317  1.6672 -0.1552  0.4332
  113OSM   C11S11767   1.565   4.562  10.116 -0.1065 -0.0908  1.6256
  113OSM   H11S11768   1.456   4.557  10.098  0.4746 -0.1869 -3.0414
  113OSM   H11T11769   1.598   4.456  10.103 -1.0588 -0.2566  0.3208
  113OSM   C12S11770   1.628   4.642   9.996  0.8824  0.7061  0.0745
  113OSM   H12S11771   1.736   4.619  10.006  0.2563 -3.7424 -0.9713
  113OSM   H12T11772   1.602   4.750  10.002  0.7317  0.7756 -1.3625
  113OSM   C13S11773   1.587   4.581   9.857  0.2590 -0.7047 -0.4947
  113OSM   H13S11774   1.479   4.593   9.838  0.2831 -1.0499 -0.8412
  113OSM   H13T11775   1.598   4.471   9.858 -1.1167 -0.8663  1.0771
  113OSM   C14S11776   1.682   4.631   9.748  0.7758  0.4113 -0.1601
  113OSM   H14S11777   1.776   4.601   9.797  0.0012 -1.2566  0.3811
  113OSM   H14T11778   1.691   4.741   9.741 -1.5400  0.8459  2.2395
  113OSM   C15S11779   1.635   4.568   9.610 -0.1725 -0.4050  0.6401
  113OSM   H15S11780   1.544   4.620   9.574 -1.6133 -1.0891  3.1077
  113OSM   H15T11781   1.605   4.463   9.631  1.6804 -1.0009  0.5502
  113OSM   C16S11782   1.741   4.577   9.505 -0.0282  0.0178 -0.1802
  113OSM   H16S11783   1.825   4.523   9.553  0.0214  0.0572 -0.2227
  113OSM   H16T11784   1.765   4.683   9.482 -0.6730 -0.2349 -2.1773
  113OSM   C17S11785   1.702   4.505   9.372 -1.1578  0.0648  0.1456
  113OSM   H17S11786   1.642   4.414   9.393 -0.2192 -0.8208 -0.8724
  113OSM   H17T11787   1.799   4.465   9.335 -1.3360 -0.1089 -0.1374
  113OSM   C18S11788   1.636   4.586   9.263 -1.2429  0.4314  0.4205
  113OSM   H18S11789   1.575   4.538   9.183 -0.2420  0.3697 -0.3172
  113OSM   H18T11790   1.699   4.663   9.214  0.5031 -0.1556  1.6248
  113OSM   H18U11791   1.560   4.645   9.320 -1.0417  1.5598 -0.4504
  113OSM    C1F11792   2.440   4.850  10.274 -0.7691 -0.1562  0.2662
  113OSM     OF11793   2.493   4.739  10.258 -0.4331 -0.9095 -0.8007
  113OSM    C2F11794   2.435   4.958  10.160  0.5155 -0.6202 -0.7294
  113OSM    H2F11795   2.498   5.049  10.173 -0.7442  0.3239 -0.9915
  113OSM    H2G11796   2.329   4.992  10.162  0.5834 -0.4373  0.2211
  113OSM    C3F11797   2.473   4.898  10.027 -0.2096 -0.2790  0.2342
  113OSM    H3F11798   2.406   4.810  10.009 -0.4255 -0.9007  3.4774
  113OSM    H3G11799   2.574   4.852  10.023 -1.6382 -3.6736 -2.4778
  113OSM    C4F11800   2.456   4.993   9.906  0.1636  0.2925 -0.4778
  113OSM    H4F11801   2.513   5.086   9.926  1.0235 -0.1953 -0.5992
  113OSM    H4G11802   2.351   5.029   9.905  0.0686  0.1208  0.8753
  113OSM    C5F11803   2.489   4.927   9.774 -0.2725 -0.1346  0.6985
  113OSM    H5F11804   2.438   4.828   9.769  1.1124 -0.9383  1.8711
  113OSM    H5G11805   2.599   4.917   9.768 -0.1561 -0.3233  2.7224
  113OSM    C6F11806   2.441   5.016   9.659 -0.0612  0.9502  0.1135
  113OSM    H6F11807   2.488   5.117   9.664  0.9853  0.5822 -1.5096
  113OSM    H6G11808   2.335   5.042   9.677 -0.4841 -0.2963 -0.4491
  113OSM    C7F11809   2.475   4.960   9.523  0.8424 -0.0467  0.3898
  113OSM    H7F11810   2.397   4.886   9.498  1.2915  0.1811 -1.9197
  113OSM    H7G11811   2.579   4.921   9.525  1.4096  1.1724 -1.5385
  113OSM    C8F11812   2.468   5.077   9.425 -1.0265  0.4914  0.1484
  113OSM    H8F11813   2.559   5.141   9.431 -0.6731  0.2815 -2.1225
  113OSM    H8G11814   2.397   5.151   9.470 -1.4476 -0.2852  0.7891
  113OSM    C9F11815   2.434   5.037   9.282 -0.4847 -0.2469  0.5137
  113OSM    H9F11816   2.526   5.037   9.222 -0.2393 -0.0839  0.8812
  113OSM   C10F11817   2.312   5.044   9.230  0.0147  0.2335 -0.7957
  113OSM   H10F11818   2.297   5.006   9.128 -0.6236  1.4641 -1.1714
  113OSM   C11F11819   2.184   5.094   9.300  0.3056  0.2539  0.3155
  113OSM   H11F11820   2.210   5.082   9.408  2.4750  1.1532 -0.0760
  113OSM   H11G11821   2.106   5.018   9.274  2.7253 -2.0718 -0.6065
  113OSM   C12F11822   2.140   5.241   9.265  1.2899  0.4083 -0.1856
  113OSM   H12F11823   2.078   5.253   9.173 -2.4378 -0.2584  2.0246
  113OSM   H12G11824   2.229   5.305   9.251  1.8058 -0.4480 -0.9053
  113OSM   C13F11825   2.053   5.317   9.375 -0.0443  0.6440 -0.1174
  113OSM   H13F11826   1.959   5.258   9.380  0.9663 -1.0856 -0.3519
  113OSM   H13G11827   2.036   5.423   9.346  1.1705  0.7581 -0.4972
  113OSM   C14F11828   2.122   5.306   9.510 -0.5474 -0.2040 -0.4118
  113OSM   H14F11829   2.229   5.336   9.506 -0.5226  0.2512  2.1448
  113OSM   H14G11830   2.115   5.208   9.561 -0.0228  0.5054  1.0952
  113OSM   C15F11831   2.058   5.401   9.613 -0.3343 -0.8300 -0.1780
  113OSM   H15F11832   1.959   5.371   9.654 -0.1385 -1.3582 -0.0712
  113OSM   H15G11833   2.054   5.500   9.564  0.2844 -1.0552 -0.6961
  113OSM   C16F11834   2.154   5.413   9.736  0.3199 -0.2316 -0.1477
  113OSM   H16F11835   2.136   5.511   9.785  1.3007  0.1224 -0.4682
  113OSM   H16G11836   2.258   5.427   9.701  0.5170  0.4851  0.7053
  113OSM   C17F11837   2.141   5.299   9.834 -0.2447 -0.3792  0.4718
  113OSM   H17F11838   2.121   5.204   9.779  0.7562  0.7327 -1.9242
  113OSM   H17G11839   2.050   5.320   9.894  0.2243  0.6090  0.8510
  113OSM   C18F11840   2.252   5.279   9.931  0.2679  0.2423 -0.6376
  113OSM   H18F11841   2.339   5.239   9.875 -0.1785 -0.4406 -0.8566
  113OSM   H18G11842   2.219   5.201  10.002  0.8151  0.6950  0.1351
  113OSM   H18H11843   2.261   5.371   9.992  0.7228  0.2520 -0.7100
  114OSM      N11844   3.318   1.765  10.788  0.2742  0.2774  0.5140
  114OSM    C1511845   3.403   1.746  10.912 -0.2849  0.2186 -0.0487
  114OSM   H15A11846   3.357   1.803  10.991  1.0432 -0.2271  1.0852
  114OSM   H15B11847   3.497   1.798  10.900 -0.4051  0.6030  0.6549
  114OSM   H15C11848   3.425   1.644  10.941 -2.4407 -0.0463  0.7870
  114OSM    C1411849   3.269   1.907  10.770 -0.2192  0.4202  0.3430
  114OSM   H14A11850   3.213   1.923  10.679  1.5362  2.8564 -0.4400
  114OSM   H14B11851   3.358   1.968  10.772 -0.3071  0.5492  0.3426
  114OSM   H14C11852   3.207   1.937  10.853  1.2382  1.5095  1.0744
  114OSM    C1311853   3.404   1.712  10.673 -0.2935  1.5426  0.1670
  114OSM   H13A11854   3.507   1.738  10.688  0.7430 -1.5538 -0.8538
  114OSM   H13B11855   3.373   1.750  10.576 -3.0530  0.8245  0.6785
  114OSM   H13C11856   3.393   1.605  10.668  0.7656  1.4641 -1.0177
  114OSM    C1211857   3.200   1.670  10.790  0.5761 -0.0594  0.3677
  114OSM   H12A11858   3.242   1.571  10.792 -0.4049 -0.4915  0.4485
  114OSM   H12B11859   3.158   1.684  10.692 -0.4044  0.4764  0.8408
  114OSM    C1111860   3.096   1.689  10.903  0.9352  0.4807 -0.7342
  114OSM   H11A11861   3.157   1.688  10.996  1.5369  1.5153 -1.0996
  114OSM   H11B11862   3.029   1.601  10.908 -2.0230  2.6355 -0.0713
  114OSM      P11863   2.902   1.832  10.820 -0.3665  0.1351  0.0532
  114OSM    O1311864   2.783   1.771  10.880  0.0858  0.3048 -0.0826
  114OSM    O1411865   2.896   1.971  10.787 -0.2130 -0.0859  0.1159
  114OSM    O1111866   2.939   1.762  10.683  0.4625 -0.2380 -0.1041
  114OSM    O1211867   3.021   1.806  10.910  0.1424  0.1816  0.1208
  114OSM    C1S11868   2.839   1.777  10.576 -0.6666 -0.1145  0.1924
  114OSM    H1S11869   2.805   1.883  10.571  0.2577  0.2686  1.5343
  114OSM    H1T11870   2.742   1.722  10.579 -2.2490  2.4850 -0.3759
  114OSM     NF11871   2.838   1.790  10.325 -0.4606  0.2996 -0.1193
  114OSM    HNF11872   2.756   1.744  10.292 -1.2597  2.1210 -0.7922
  114OSM    C2S11873   2.917   1.745  10.436 -0.3181 -0.5695 -0.2190
  114OSM    H2S11874   3.016   1.797  10.435  0.7569 -2.4184  1.7874
  114OSM    C3S11875   2.937   1.592  10.439 -0.5517 -0.0563  0.0133
  114OSM    H3S11876   2.834   1.551  10.435 -0.5333 -0.0845 -0.1997
  114OSM     O311877   2.988   1.525  10.556  0.2972 -0.6549 -0.0115
  114OSM    HO311878   2.967   1.588  10.625  0.7263 -1.8880  1.3015
  114OSM    C4S11879   3.019   1.552  10.314 -0.6269  0.6204  0.2680
  114OSM    H4S11880   2.963   1.561  10.219  0.1450  0.4995 -0.2137
  114OSM    C5S11881   3.150   1.513  10.311 -0.2579  0.1909 -0.6901
  114OSM    H5S11882   3.200   1.512  10.409  0.3826  0.3754 -1.0110
  114OSM    C6S11883   3.234   1.482  10.189  0.0553  0.4958  0.3666
  114OSM    H6S11884   3.297   1.398  10.225 -1.4533 -1.6433 -1.7365
  114OSM    H6T11885   3.292   1.575  10.168 -2.1444  1.3781 -2.3431
  114OSM    C7S11886   3.150   1.419  10.070  0.2769 -0.2650 -0.1331
  114OSM    H7S11887   3.076   1.492  10.030 -0.8711 -0.2891  1.8309
  114OSM    H7T11888   3.088   1.341  10.118 -1.2655 -0.5996 -2.4704
  114OSM    C8S11889   3.236   1.344   9.967  0.0212  0.1998  0.1011
  114OSM    H8S11890   3.297   1.262  10.010  0.4765  1.6788  2.5341
  114OSM    H8T11891   3.289   1.419   9.904 -0.8743  1.6146  0.9486
  114OSM    C9S11892   3.143   1.271   9.865 -0.5347 -0.6753  0.0980
  114OSM    H9S11893   3.087   1.345   9.805  3.3325  0.1653 -2.9158
  114OSM    H9T11894   3.079   1.202   9.924  1.7186 -3.6452 -0.6603
  114OSM   C10S11895   3.230   1.183   9.766 -0.0144 -0.6756  0.0670
  114OSM   H10S11896   3.162   1.106   9.722  0.0710 -1.0293  0.5469
  114OSM   H10T11897   3.306   1.116   9.811 -1.5740 -1.7569  1.2144
  114OSM   C11S11898   3.295   1.258   9.648  0.8154 -0.0514  0.2114
  114OSM   H11S11899   3.385   1.316   9.677  0.0580  1.8917 -1.1127
  114OSM   H11T11900   3.220   1.331   9.612  1.3261 -0.0672 -0.9419
  114OSM   C12S11901   3.347   1.168   9.535  0.2443  0.3737  0.6316
  114OSM   H12S11902   3.402   1.082   9.579  0.7320 -0.4012 -1.3822
  114OSM   H12T11903   3.413   1.231   9.472 -0.2596  0.8030  0.5277
  114OSM   C13S11904   3.240   1.128   9.429 -0.0168  0.3265 -0.4606
  114OSM   H13S11905   3.180   1.039   9.458 -0.3826  1.1166  1.3384
  114OSM   H13T11906   3.296   1.082   9.346 -0.6780  0.6716 -1.1184
  114OSM   C14S11907   3.144   1.242   9.387  0.6860 -0.4170  1.0441
  114OSM   H14S11908   3.207   1.327   9.351 -0.0322  0.9607  2.8967
  114OSM   H14T11909   3.091   1.276   9.479  0.8442  0.7016  0.7372
  114OSM   C15S11910   3.062   1.200   9.261  0.1023  0.8291 -0.0068
  114OSM   H15S11911   3.002   1.285   9.223 -0.2374 -0.1867 -1.8810
  114OSM   H15T11912   2.990   1.128   9.305  1.8443  0.1198  1.8721
  114OSM   C16S11913   3.137   1.127   9.148 -0.0729  0.0141 -0.6293
  114OSM   H16S11914   3.164   1.025   9.185 -2.4740 -0.2678  0.5250
  114OSM   H16T11915   3.233   1.177   9.124  0.3115 -1.1887 -1.7130
  114OSM   C17S11916   3.035   1.115   9.031  1.0547 -0.6190  0.0114
  114OSM   H17S11917   2.949   1.053   9.066  0.6498  0.3399  0.7359
  114OSM   H17T11918   3.104   1.066   8.958  1.4129 -0.6080  0.3385
  114OSM   C18S11919   2.983   1.248   8.980 -0.1610 -0.3365  0.1146
  114OSM   H18S11920   3.070   1.316   8.968  0.0307 -0.7059 -0.6889
  114OSM   H18T11921   2.905   1.291   9.047 -1.1457 -1.0278 -0.5519
  114OSM   H18U11922   2.930   1.226   8.884  0.6076  2.8876 -1.1884
  114OSM    C1F11923   2.843   1.914  10.286  0.2999  0.1614  0.3571
  114OSM     OF11924   2.920   1.993  10.334  0.4012  0.2778 -0.2234
  114OSM    C2F11925   2.738   1.964  10.184 -0.3357 -0.0671 -0.2649
  114OSM    H2F11926   2.710   2.060  10.231 -0.5079 -0.3355  0.1875
  114OSM    H2G11927   2.653   1.894  10.197 -1.0073  0.8762  0.5025
  114OSM    C3F11928   2.796   1.983  10.046  0.8621  0.2999 -0.0526
  114OSM    H3F11929   2.896   2.031  10.047  0.6119  0.8151  0.4700
  114OSM    H3G11930   2.734   2.064  10.003  1.4405  0.5657 -0.3973
  114OSM    C4F11931   2.793   1.862   9.966 -0.1130  0.0039 -0.2399
  114OSM    H4F11932   2.700   1.807   9.992 -0.9953  0.7130 -1.7345
  114OSM    H4G11933   2.876   1.793   9.993  0.9259  1.5922  0.7497
  114OSM    C5F11934   2.798   1.892   9.814 -0.0025  0.2264 -0.0684
  114OSM    H5F11935   2.889   1.950   9.786 -0.4001 -0.0538 -2.0365
  114OSM    H5G11936   2.704   1.946   9.791 -0.5025  1.2768  3.7527
  114OSM    C6F11937   2.794   1.763   9.720  0.3412 -0.0143  0.0588
  114OSM    H6F11938   2.719   1.693   9.761  3.2563 -1.8697  2.6894
  114OSM    H6G11939   2.885   1.699   9.723 -1.3167 -2.4685  1.4216
  114OSM    C7F11940   2.780   1.803   9.565  0.1179 -0.6825  0.5983
  114OSM    H7F11941   2.870   1.864   9.544 -0.1992 -0.3756  0.0990
  114OSM    H7G11942   2.702   1.882   9.560  0.9069  0.1903  1.7084
  114OSM    C8F11943   2.770   1.683   9.465  0.3301 -0.1269  0.3003
  114OSM    H8F11944   2.756   1.729   9.365 -0.5434  1.2582  1.0182
  114OSM    H8G11945   2.687   1.610   9.476 -2.7998  3.0093 -0.5708
  114OSM    C9F11946   2.903   1.613   9.460  0.1337  0.2869  0.0820
  114OSM    H9F11947   2.922   1.533   9.533  1.1373 -2.2870 -2.7700
  114OSM   C10F11948   3.008   1.647   9.377  0.0302  0.1416  0.2537
  114OSM   H10F11949   3.100   1.586   9.380  1.5736  2.3716  0.8302
  114OSM   C11F11950   3.010   1.765   9.283 -0.1422  0.1641 -0.0814
  114OSM   H11F11951   3.095   1.831   9.310 -2.3362  1.2665  5.5662
  114OSM   H11G11952   2.926   1.832   9.309 -0.9934 -0.3324 -1.4567
  114OSM   C12F11953   3.006   1.726   9.136 -0.0146  0.3489 -0.4493
  114OSM   H12F11954   3.070   1.639   9.110  1.5907  0.9264  1.3157
  114OSM   H12G11955   3.067   1.796   9.074  1.3417 -2.4469 -2.5220
  114OSM   C13F11956   2.863   1.695   9.086 -0.2138 -0.0841  0.3420
  114OSM   H13F11957   2.791   1.771   9.125  0.1178  1.3714 -1.7583
  114OSM   H13G11958   2.839   1.592   9.120  2.7627 -1.0976 -0.3318
  114OSM   C14F11959   2.858   1.695   8.928  0.3222 -0.4574  0.9207
  114OSM   H14F11960   2.880   1.798   8.892 -1.9353 -0.1345  0.2881
  114OSM   H14G11961   2.754   1.674   8.895  0.0745  0.4534  1.1049
  114OSM   C15F11962   2.942   1.583   8.865 -0.0153  0.2626  0.3132
  114OSM   H15F11963   2.909   1.480   8.891  0.4978  0.0498  0.1264
  114OSM   H15G11964   3.042   1.599   8.911 -0.5376  0.5327  1.3901
  114OSM   C16F11965   2.958   1.593   8.708  0.8352 -0.2297 -0.3743
  114OSM   H16F11966   2.858   1.591   8.661 -0.7790 -2.8214  2.7554
  114OSM   H16G11967   3.018   1.507   8.671  1.5704 -0.7464  1.8460
  114OSM   C17F11968   3.049   1.712   8.672 -0.1371  0.6254  1.0498
  114OSM   H17F11969   3.143   1.718   8.731  1.9477  1.7189 -2.1388
  114OSM   H17G11970   2.994   1.809   8.675 -1.4306 -0.0939  1.4817
  114OSM   C18F11971   3.112   1.695   8.538 -0.2641  0.4225  1.2414
  114OSM   H18F11972   3.176   1.778   8.501  1.2623 -1.3406 -0.2634
  114OSM   H18G11973   3.034   1.671   8.463  0.8462 -2.5760  0.8985
  114OSM   H18H11974   3.176   1.604   8.532  0.3544  0.8423  1.4046
  115OSM      N11975   6.484   4.832  11.249 -0.0975 -0.4494  0.2067
  115OSM    C1511976   6.346   4.764  11.230 -0.0427  0.7497 -0.0159
  115OSM   H15A11977   6.283   4.784  11.316 -0.5327  2.4961 -0.7326
  115OSM   H15B11978   6.362   4.658  11.221 -1.6265  0.5512 -0.7307
  115OSM   H15C11979   6.293   4.810  11.148 -0.1928  2.0154  0.7682
  115OSM    C1411980   6.451   4.977  11.266 -0.9379 -0.1572  0.3498
  115OSM   H14A11981   6.542   5.031  11.289 -1.0281 -0.2959  1.0587
  115OSM   H14B11982   6.389   4.999  11.352 -1.2652 -0.0060  0.0772
  115OSM   H14C11983   6.407   5.022  11.178 -1.4853  0.1641  0.7812
  115OSM    C1311984   6.558   4.778  11.373 -0.0935  0.0997  0.2972
  115OSM   H13A11985   6.517   4.826  11.460  0.3659  1.7059 -0.3263
  115OSM   H13B11986   6.662   4.809  11.368 -0.3009  0.7118 -0.4555
  115OSM   H13C11987   6.555   4.672  11.390  2.7311  0.1184  1.5502
  115OSM    C1211988   6.571   4.820  11.125  0.0139  0.2548 -0.2443
  115OSM   H12A11989   6.597   4.715  11.118 -0.0401  0.1463  1.0287
  115OSM   H12B11990   6.661   4.878  11.131 -0.0722  0.3577  0.0474
  115OSM    C1111991   6.508   4.854  10.982  0.5988 -0.7440 -0.1432
  115OSM   H11A11992   6.401   4.822  10.985 -0.1848  1.6456 -0.4195
  115OSM   H11B11993   6.557   4.790  10.905 -0.3940  0.4486 -1.8436
  115OSM      P11994   6.648   5.050  10.902 -0.2861 -0.2016  0.0266
  115OSM    O1311995   6.620   5.183  10.844 -0.0784  0.2248 -0.6580
  115OSM    O1411996   6.748   5.038  11.009 -0.1200  0.2208  0.6224
  115OSM    O1111997   6.686   4.956  10.781  0.2806 -0.0793  0.2241
  115OSM    O1211998   6.509   4.995  10.950  0.5693 -0.4833 -0.0127
  115OSM    C1S11999   6.587   4.924  10.680 -0.1230 -0.3596 -0.0966
  115OSM    H1S12000   6.487   4.970  10.696 -0.3598 -1.0994  0.6524
  115OSM    H1T12001   6.569   4.814  10.679  3.3138 -1.0535  0.8447
  115OSM     NF12002   6.516   4.929  10.439 -0.1395 -0.0340  0.3286
  115OSM    HNF12003   6.524   4.841  10.393  1.3333  0.9343 -1.4105
  115OSM    C2S12004   6.628   4.961  10.530 -0.2500 -0.1314  0.1725
  115OSM    H2S12005   6.666   5.065  10.519  1.9288 -0.8765  0.2206
  115OSM    C3S12006   6.758   4.885  10.490  1.0354 -0.1700  0.3921
  115OSM    H3S12007   6.732   4.778  10.476 -0.1094  0.1385  0.0603
  115OSM     O312008   6.859   4.871  10.592  0.7974 -0.3128 -0.3257
  115OSM    HO312009   6.813   4.899  10.671 -1.6670 -4.3054 -0.0479
  115OSM    C4S12010   6.813   4.929  10.360  0.2406  0.1305  0.4005
  115OSM    H4S12011   6.754   4.889  10.276 -2.3201  0.7721  1.7772
  115OSM    C5S12012   6.919   5.005  10.329 -0.2164 -0.6697 -0.1324
  115OSM    H5S12013   6.982   5.043  10.411 -0.5445 -1.0737  0.3144
  115OSM    C6S12014   6.961   5.061  10.191 -0.0082  0.0586 -0.5845
  115OSM    H6S12015   7.065   5.023  10.179  0.1165  0.2877 -0.2562
  115OSM    H6T12016   6.964   5.170  10.213  0.2628 -0.0263 -0.1888
  115OSM    C7S12017   6.869   5.033  10.066 -0.4958 -0.2401 -0.6811
  115OSM    H7S12018   6.770   5.081  10.060  0.1227  0.9346 -2.0683
  115OSM    H7T12019   6.856   4.923  10.063  2.3492 -0.6872 -0.2631
  115OSM    C8S12020   6.942   5.097   9.946 -0.2479 -0.0350 -0.1668
  115OSM    H8S12021   7.032   5.032   9.936  0.9119  1.2385  1.5485
  115OSM    H8T12022   6.974   5.199   9.973 -0.4750  0.1964 -0.7519
  115OSM    C9S12023   6.847   5.081   9.825  0.1517  0.0340  0.8814
  115OSM    H9S12024   6.757   5.143   9.845  1.0848  1.1583  1.7492
  115OSM    H9T12025   6.821   4.972   9.825  0.9509 -0.1604  0.7343
  115OSM   C10S12026   6.919   5.103   9.689  0.1824 -0.0815 -0.5117
  115OSM   H10S12027   7.000   5.027   9.684 -1.0931 -1.6817  1.3513
  115OSM   H10T12028   6.964   5.201   9.665 -1.8444  1.2388  0.7368
  115OSM   C11S12029   6.820   5.077   9.572  0.1750  0.5074  0.2341
  115OSM   H11S12030   6.727   5.137   9.572  1.0215  1.8726  0.9952
  115OSM   H11T12031   6.794   4.973   9.604 -1.2599  0.5811 -0.6230
  115OSM   C12S12032   6.875   5.079   9.430 -0.7871  0.5972  0.5884
  115OSM   H12S12033   6.957   5.004   9.429 -2.0681 -0.8514  0.7468
  115OSM   H12T12034   6.919   5.179   9.410  0.7096  0.0460  0.9832
  115OSM   C13S12035   6.768   5.035   9.324  0.1557 -0.1897 -0.0898
  115OSM   H13S12036   6.676   5.096   9.331 -0.6456 -0.9073 -3.1415
  115OSM   H13T12037   6.741   4.928   9.336 -0.8865  0.2621  2.0067
  115OSM   C14S12038   6.824   5.049   9.178  0.6168  0.1363  0.0432
  115OSM   H14S12039   6.910   4.980   9.165  2.0321  1.2506  2.5636
  115OSM   H14T12040   6.862   5.152   9.160 -1.9747  1.3270  0.8450
  115OSM   C15S12041   6.712   5.022   9.076 -0.4112  0.2914 -0.3701
  115OSM   H15S12042   6.631   5.097   9.088  0.7943  2.0864 -2.6440
  115OSM   H15T12043   6.683   4.917   9.099 -1.2446  0.4711 -0.6006
  115OSM   C16S12044   6.742   5.038   8.925  0.1564 -0.0371  0.5744
  115OSM   H16S12045   6.838   4.982   8.924 -0.2689 -1.0549  3.9156
  115OSM   H16T12046   6.761   5.143   8.893  1.2283  0.2379  2.0350
  115OSM   C17S12047   6.635   4.985   8.830  0.1550  0.3018 -0.0646
  115OSM   H17S12048   6.527   4.997   8.854 -0.7838 -1.4195 -2.9068
  115OSM   H17T12049   6.662   4.878   8.825  1.5985  0.6457  0.1298
  115OSM   C18S12050   6.651   5.042   8.691  0.4310 -0.6775  0.2630
  115OSM   H18S12051   6.758   5.029   8.663  0.0856 -1.5954 -0.7146
  115OSM   H18T12052   6.620   5.147   8.675  2.0823  0.0089  1.2923
  115OSM   H18U12053   6.590   4.975   8.626 -0.3712  0.8731 -0.6161
  115OSM    C1F12054   6.403   5.001  10.443  0.0322  0.2957  0.4766
  115OSM     OF12055   6.405   5.112  10.488 -0.3039 -0.4867 -0.0454
  115OSM    C2F12056   6.282   4.925  10.405  0.2347 -0.3174  0.2084
  115OSM    H2F12057   6.218   4.900  10.492  1.1685 -3.7930  0.0660
  115OSM    H2G12058   6.318   4.829  10.360  0.2620 -0.8000  1.2399
  115OSM    C3F12059   6.196   5.007  10.300 -0.2962  0.3998 -0.9112
  115OSM    H3F12060   6.188   5.112  10.334 -1.0707 -0.3688  1.5628
  115OSM    H3G12061   6.097   4.956  10.302  0.0259 -0.2634  1.5044
  115OSM    C4F12062   6.246   4.996  10.157 -0.0137 -0.0998 -0.5186
  115OSM    H4F12063   6.246   4.887  10.135 -2.5457 -0.3731  0.5173
  115OSM    H4G12064   6.345   5.047  10.151 -1.9683  4.3637  0.6771
  115OSM    C5F12065   6.149   5.055  10.050  0.1467 -0.5311 -0.0651
  115OSM    H5F12066   6.119   5.160  10.071  0.3599 -0.6598  0.9038
  115OSM    H5G12067   6.052   5.001  10.055  0.0362 -0.2639  0.8220
  115OSM    C6F12068   6.216   5.066   9.913 -0.3054  0.7081  0.3460
  115OSM    H6F12069   6.280   4.976   9.899  1.7281  2.0100  0.8478
  115OSM    H6G12070   6.280   5.157   9.917  1.3968 -0.4230  0.0630
  115OSM    C7F12071   6.112   5.090   9.803  0.9487  0.9696 -0.2269
  115OSM    H7F12072   6.033   5.164   9.827  0.6864  0.7031 -0.2491
  115OSM    H7G12073   6.054   4.995   9.804  3.5270 -0.7112 -0.6385
  115OSM    C8F12074   6.164   5.119   9.664 -0.2309 -0.0865  0.1362
  115OSM    H8F12075   6.237   5.201   9.681  1.4146 -1.7558  1.4374
  115OSM    H8G12076   6.086   5.177   9.610 -0.1475 -0.6561 -0.5999
  115OSM    C9F12077   6.231   4.999   9.594 -0.1376 -0.1560 -0.4766
  115OSM    H9F12078   6.228   4.899   9.639  0.2871 -0.4442 -1.0794
  115OSM   C10F12079   6.310   5.017   9.483 -0.5074  0.2113  0.1486
  115OSM   H10F12080   6.349   4.928   9.431  1.4036  0.1715  1.5295
  115OSM   C11F12081   6.339   5.146   9.411 -0.1861 -0.5298 -0.0571
  115OSM   H11F12082   6.447   5.155   9.389 -0.6953  2.2090 -2.0117
  115OSM   H11G12083   6.308   5.235   9.471  1.2730  0.7134 -1.0747
  115OSM   C12F12084   6.279   5.164   9.270  0.3830 -0.3255 -0.0550
  115OSM   H12F12085   6.168   5.157   9.275  0.4054 -2.1005 -1.2326
  115OSM   H12G12086   6.311   5.071   9.218 -1.6372 -1.7089  1.0488
  115OSM   C13F12087   6.335   5.289   9.195  0.0141  0.0931 -0.5162
  115OSM   H13F12088   6.443   5.267   9.180  0.1736  0.2459  0.3401
  115OSM   H13G12089   6.321   5.387   9.246 -1.4499  0.0378 -0.7803
  115OSM   C14F12090   6.270   5.297   9.055  0.4794 -0.3913 -0.5206
  115OSM   H14F12091   6.160   5.288   9.064  0.5577  0.3096  2.2207
  115OSM   H14G12092   6.297   5.208   8.994 -0.6441 -0.8243 -0.4099
  115OSM   C15F12093   6.289   5.430   8.978 -0.3024 -0.3608 -0.8844
  115OSM   H15F12094   6.278   5.516   9.048 -1.0212  1.8199 -3.4944
  115OSM   H15G12095   6.207   5.436   8.903 -0.6994  0.2476 -0.4112
  115OSM   C16F12096   6.426   5.445   8.905  0.0947 -0.3152 -0.4909
  115OSM   H16F12097   6.514   5.446   8.973 -1.0163  2.1171  1.0545
  115OSM   H16G12098   6.429   5.543   8.852  0.4785 -0.4247 -0.6732
  115OSM   C17F12099   6.443   5.340   8.786 -0.6747 -0.3295  0.1919
  115OSM   H17F12100   6.440   5.235   8.823  0.9520  0.0309  1.4824
  115OSM   H17G12101   6.548   5.357   8.756  0.6476 -2.7826  2.9452
  115OSM   C18F12102   6.337   5.357   8.679 -1.0506 -0.2298  0.4328
  115OSM   H18F12103   6.349   5.443   8.609 -0.5618 -1.3198 -0.8759
  115OSM   H18G12104   6.234   5.341   8.719 -1.7355  0.7775 -0.8534
  115OSM   H18H12105   6.346   5.279   8.600 -1.2447  1.3195 -1.1976
  116OSM      N12106   2.002   3.731  10.981 -1.0716 -0.2395  0.2205
  116OSM    C1512107   2.128   3.681  10.920 -0.1356  0.3141  0.2084
  116OSM   H15A12108   2.190   3.760  10.881 -0.8447  0.2484 -1.1319
  116OSM   H15B12109   2.120   3.603  10.845  1.9183  0.7142 -0.4747
  116OSM   H15C12110   2.185   3.626  10.993  1.6413  0.1006 -1.2660
  116OSM    C1412111   1.921   3.619  11.022  0.6836  0.8861  0.0012
  116OSM   H14A12112   1.983   3.540  11.064  1.1650  0.9233 -0.6261
  116OSM   H14B12113   1.864   3.579  10.940  1.3744 -0.3322  0.0822
  116OSM   H14C12114   1.849   3.654  11.095 -1.0752 -0.4527 -1.0299
  116OSM    C1312115   2.044   3.823  11.090  0.3139  0.2584  0.0298
  116OSM   H13A12116   1.971   3.899  11.112  3.0449  2.5161  2.1118
  116OSM   H13B12117   2.132   3.879  11.063  1.5073 -1.2037  0.7270
  116OSM   H13C12118   2.068   3.768  11.180  0.0840 -0.6476 -0.4500
  116OSM    C1212119   1.928   3.815  10.881 -0.2331 -0.1640  0.0623
  116OSM   H12A12120   1.977   3.911  10.874  0.8677 -0.1110  5.0461
  116OSM   H12B12121   1.831   3.848  10.916  0.0587  0.8472 -0.0617
  116OSM    C1112122   1.926   3.754  10.732  0.3610  0.9542  0.7554
  116OSM   H11A12123   2.028   3.751  10.689 -0.6574 -2.5107 -1.8657
  116OSM   H11B12124   1.873   3.831  10.672  2.9867  2.6349  0.4183
  116OSM      P12125   1.730   3.586  10.699  0.1515  0.1232 -0.3149
  116OSM    O1312126   1.716   3.451  10.760 -0.1174  0.4878 -0.9173
  116OSM    O1412127   1.646   3.690  10.753  0.0743 -0.4649  0.1906
  116OSM    O1112128   1.715   3.583  10.538 -0.4065 -0.4453  0.0241
  116OSM    O1212129   1.876   3.614  10.720  0.2621  0.4233  0.0369
  116OSM    C1S12130   1.829   3.565  10.456 -0.4649  0.1400  0.9897
  116OSM    H1S12131   1.895   3.480  10.483  1.8864  2.0579  1.6860
  116OSM    H1T12132   1.885   3.661  10.454 -1.1293  0.5544 -2.1863
  116OSM     NF12133   1.901   3.517  10.229  0.3860 -0.6258 -0.8197
  116OSM    HNF12134   1.948   3.575  10.163  2.9432 -2.3568 -0.6714
  116OSM    C2S12135   1.785   3.556  10.307 -0.2707 -0.5014 -0.1246
  116OSM    H2S12136   1.703   3.481  10.301 -1.6687  0.9743  0.0548
  116OSM    C3S12137   1.724   3.698  10.271 -1.0670  0.3966  0.1084
  116OSM    H3S12138   1.794   3.784  10.279 -2.4692  1.9464 -2.7881
  116OSM     O312139   1.618   3.728  10.360 -0.3955  0.2138  0.5800
  116OSM    HO312140   1.643   3.684  10.442 -1.9627  1.2959  1.7049
  116OSM    C4S12141   1.678   3.696  10.126 -0.3151  0.6915  0.0918
  116OSM    H4S12142   1.607   3.614  10.109 -0.0476  0.0034  2.0044
  116OSM    C5S12143   1.716   3.778  10.025  0.0025  0.4642 -0.8959
  116OSM    H5S12144   1.786   3.861  10.043  1.8161 -1.5998  2.7509
  116OSM    C6S12145   1.673   3.754   9.884  0.4700 -0.1157  0.8609
  116OSM    H6S12146   1.650   3.849   9.831  1.1361 -0.6660 -0.4579
  116OSM    H6T12147   1.578   3.697   9.883 -0.6068  1.6179  0.5585
  116OSM    C7S12148   1.762   3.672   9.796  0.8152 -0.4790 -0.6648
  116OSM    H7S12149   1.802   3.581   9.845  1.0577 -1.3120 -2.3171
  116OSM    H7T12150   1.852   3.729   9.767  1.2993 -0.4140  0.9001
  116OSM    C8S12151   1.702   3.635   9.659  0.5718  0.5172 -0.3793
  116OSM    H8S12152   1.619   3.561   9.660 -0.2155  1.3644 -1.1667
  116OSM    H8T12153   1.787   3.592   9.602  0.2177 -0.1895 -0.3892
  116OSM    C9S12154   1.640   3.757   9.580 -0.4050  0.3311 -0.2657
  116OSM    H9S12155   1.719   3.831   9.607  1.1327 -0.5578 -2.0818
  116OSM    H9T12156   1.542   3.776   9.628 -0.4325 -3.6022  1.6820
  116OSM   C10S12157   1.630   3.743   9.431  0.4517 -0.6649  0.7156
  116OSM   H10S12158   1.575   3.835   9.400 -0.0240 -1.0384  0.4484
  116OSM   H10T12159   1.552   3.666   9.411 -2.0225  1.9227 -0.4065
  116OSM   C11S12160   1.744   3.712   9.346 -0.5370 -0.0262  0.2855
  116OSM   H11S12161   1.780   3.607   9.354  0.1373  0.1300 -0.4878
  116OSM   H11T12162   1.829   3.776   9.381 -0.2595 -0.9165  1.2782
  116OSM   C12S12163   1.722   3.750   9.192  0.2294 -0.5181  0.2499
  116OSM   H12S12164   1.817   3.758   9.134 -0.4633 -0.7585 -0.9392
  116OSM   H12T12165   1.681   3.853   9.188  1.6442  0.1385  1.5707
  116OSM   C13S12166   1.635   3.641   9.129 -0.3229  0.3271 -0.1499
  116OSM   H13S12167   1.541   3.691   9.097  0.3449  0.8545 -1.3209
  116OSM   H13T12168   1.602   3.563   9.201  3.5865 -1.5179 -0.1048
  116OSM   C14S12169   1.696   3.583   9.003  0.1836  0.1948 -0.0139
  116OSM   H14S12170   1.791   3.532   9.030  0.1891  0.1516 -0.1163
  116OSM   H14T12171   1.725   3.675   8.947  1.4140  1.0953  2.0035
  116OSM   C15S12172   1.594   3.487   8.933  0.3512 -0.7635 -0.4177
  116OSM   H15S12173   1.495   3.534   8.915  0.1467 -0.5462  1.1870
  116OSM   H15T12174   1.572   3.402   9.001  0.9855 -0.1471  0.5794
  116OSM   C16S12175   1.652   3.430   8.808  0.4887 -0.9157  0.4408
  116OSM   H16S12176   1.758   3.409   8.834 -0.0401 -2.4895  1.4722
  116OSM   H16T12177   1.646   3.494   8.718  2.3260 -0.6869  0.4407
  116OSM   C17S12178   1.592   3.290   8.779  0.4784 -0.1613 -0.0530
  116OSM   H17S12179   1.604   3.238   8.877 -0.6721 -2.2720 -0.9618
  116OSM   H17T12180   1.668   3.236   8.717 -0.1528 -2.1785  0.8340
  116OSM   C18S12181   1.456   3.271   8.712  0.1721 -0.3244  0.2018
  116OSM   H18S12182   1.453   3.328   8.617  1.6312 -1.9589 -0.8703
  116OSM   H18T12183   1.366   3.312   8.763 -0.9241  0.0182 -1.8816
  116OSM   H18U12184   1.427   3.168   8.685 -1.1580  0.1572 -0.3026
  116OSM    C1F12185   1.955   3.396  10.233 -0.3306  0.8691  0.6199
  116OSM     OF12186   1.888   3.298  10.264  0.0827 -0.0080 -0.0205
  116OSM    C2F12187   2.090   3.380  10.179 -0.5107  0.1815 -0.1608
  116OSM    H2F12188   2.100   3.269  10.180  0.4781  0.2280 -2.0966
  116OSM    H2G12189   2.172   3.418  10.244 -0.7879 -0.5784  0.6613
  116OSM    C3F12190   2.114   3.426  10.035  0.2810  1.0385  0.0477
  116OSM    H3F12191   2.220   3.402  10.011  0.0244  1.6166 -1.8517
  116OSM    H3G12192   2.108   3.537  10.041  1.0751  1.0669  0.4094
  116OSM    C4F12193   2.026   3.342   9.935  0.0347 -0.2742 -0.6186
  116OSM    H4F12194   1.921   3.375   9.922  0.3214  0.1606 -1.9729
  116OSM    H4G12195   2.028   3.232   9.951  0.1184 -0.1213  0.4714
  116OSM    C5F12196   2.067   3.381   9.792  0.2146  0.3603  0.1083
  116OSM    H5F12197   2.177   3.366   9.787 -0.0459 -1.4464 -2.1411
  116OSM    H5G12198   2.044   3.489   9.780 -2.4807 -0.0419  1.0592
  116OSM    C6F12199   1.998   3.302   9.673 -0.3831 -0.5600 -0.1164
  116OSM    H6F12200   1.891   3.320   9.698 -0.3411  1.5764 -1.2278
  116OSM    H6G12201   2.016   3.194   9.689  4.5106 -0.1077 -0.9223
  116OSM    C7F12202   2.042   3.344   9.536  0.4492 -0.2622 -0.8359
  116OSM    H7F12203   2.153   3.351   9.541  0.3844 -0.1661  0.9122
  116OSM    H7G12204   1.998   3.446   9.529  0.4542 -0.0539  1.5827
  116OSM    C8F12205   1.987   3.247   9.426  0.2053 -0.3867  0.7001
  116OSM    H8F12206   1.877   3.242   9.418  0.0608  2.6120 -0.4567
  116OSM    H8G12207   2.006   3.144   9.464  0.0491 -1.3592 -1.6841
  116OSM    C9F12208   2.060   3.258   9.298 -0.2725 -0.6331  0.1628
  116OSM    H9F12209   2.132   3.341   9.292 -1.7662  0.7457  0.6280
  116OSM   C10F12210   2.025   3.194   9.181  0.0441 -0.9982  0.1275
  116OSM   H10F12211   2.093   3.224   9.100 -0.9167  1.3804  0.1041
  116OSM   C11F12212   1.902   3.113   9.157  0.0949 -0.0360  0.1952
  116OSM   H11F12213   1.862   3.135   9.056 -1.2216 -0.1785  0.6683
  116OSM   H11G12214   1.812   3.132   9.219  0.2274  1.5160 -0.0581
  116OSM   C12F12215   1.926   2.961   9.152  0.0880  0.4610 -0.7375
  116OSM   H12F12216   2.015   2.946   9.088  2.5608 -1.3415  2.7696
  116OSM   H12G12217   1.842   2.900   9.112 -0.5348 -1.8876  3.4870
  116OSM   C13F12218   1.955   2.881   9.291 -0.2342 -0.1052  0.1967
  116OSM   H13F12219   2.035   2.936   9.344 -1.2261  0.2524  1.3563
  116OSM   H13G12220   1.992   2.782   9.255 -0.0938  0.1360 -0.3295
  116OSM   C14F12221   1.828   2.862   9.379 -0.2653 -0.0871 -0.4030
  116OSM   H14F12222   1.750   2.846   9.302  1.5232 -2.1948 -1.9110
  116OSM   H14G12223   1.806   2.960   9.427 -0.4324 -0.9523  1.3569
  116OSM   C15F12224   1.832   2.739   9.465  0.0627  0.4750  0.1218
  116OSM   H15F12225   1.931   2.730   9.515  1.0823  3.4508 -1.1140
  116OSM   H15G12226   1.818   2.649   9.402  0.6288  1.1883 -1.0505
  116OSM   C16F12227   1.717   2.737   9.568  0.2551 -0.1544  0.6941
  116OSM   H16F12228   1.688   2.633   9.592 -2.4877  0.8817  2.3027
  116OSM   H16G12229   1.624   2.783   9.527 -0.0919 -1.9785 -0.6808
  116OSM   C17F12230   1.759   2.796   9.703  0.1717 -0.2104  0.8380
  116OSM   H17F12231   1.789   2.900   9.678 -2.1110  0.4354  0.5666
  116OSM   H17G12232   1.847   2.743   9.747  0.5697 -0.1114  0.1654
  116OSM   C18F12233   1.645   2.796   9.808  0.1187 -1.3025 -0.6626
  116OSM   H18F12234   1.567   2.857   9.758  0.7865  0.2715  0.1704
  116OSM   H18G12235   1.670   2.833   9.910  0.4526 -3.2918  0.0191
  116OSM   H18H12236   1.604   2.696   9.835 -3.5661 -0.1450 -1.3333
  117OSM      N12237   1.955   4.514  11.108 -0.0919 -0.0801 -0.2102
  117OSM    C1512238   1.884   4.419  11.205 -1.0597 -0.1251 -0.3464
  117OSM   H15A12239   1.910   4.315  11.192 -2.0179 -0.3874 -0.2582
  117OSM   H15B12240   1.777   4.416  11.188 -1.0940 -2.6249  0.0180
  117OSM   H15C12241   1.892   4.450  11.308 -2.3973 -2.0913  0.4050
  117OSM    C1412242   1.861   4.627  11.083  0.1348 -0.2539 -0.4705
  117OSM   H14A12243   1.911   4.698  11.019 -0.5700  1.0184  0.3433
  117OSM   H14B12244   1.833   4.671  11.177 -0.5601  1.2867 -1.3652
  117OSM   H14C12245   1.770   4.603  11.029  1.5168 -0.2218 -2.9183
  117OSM    C1312246   2.077   4.571  11.176 -0.5677  0.0195  0.2213
  117OSM   H13A12247   2.129   4.640  11.111 -1.8362  0.2774 -0.5780
  117OSM   H13B12248   2.141   4.489  11.204  0.2443  1.0582  1.4919
  117OSM   H13C12249   2.048   4.614  11.271 -1.4449 -1.8875  0.8740
  117OSM    C1212250   1.993   4.444  10.975 -0.4426 -0.0816 -1.0852
  117OSM   H12A12251   1.897   4.412  10.937 -0.4460  0.4061 -1.4814
  117OSM   H12B12252   2.057   4.359  10.996  3.0401  2.5984  0.0396
  117OSM    C1112253   2.069   4.519  10.867  0.1924 -0.4059  0.0514
  117OSM   H11A12254   2.020   4.617  10.849 -1.8979 -1.5081 -0.6015
  117OSM   H11B12255   2.059   4.464  10.771  1.1924 -2.0725  0.8462
  117OSM      P12256   2.304   4.408  10.909  0.4404 -0.1068  0.6465
  117OSM    O1312257   2.426   4.439  10.987 -0.6568  0.6196  0.1702
  117OSM    O1412258   2.230   4.295  10.965 -0.1575  0.5230  0.0424
  117OSM    O1112259   2.332   4.373  10.761  0.4508  0.0826 -0.3265
  117OSM    O1212260   2.209   4.537  10.902 -0.4392  0.2095 -0.1466
  117OSM    C1S12261   2.414   4.452  10.676  0.1159 -0.5762  0.1038
  117OSM    H1S12262   2.521   4.448  10.706  0.5162  0.3810 -1.1251
  117OSM    H1T12263   2.385   4.559  10.675  2.4108  0.1200 -2.1090
  117OSM     NF12264   2.516   4.479  10.442  1.1242 -0.4542  0.1840
  117OSM    HNF12265   2.493   4.551  10.377 -1.2756  0.6712  2.1187
  117OSM    C2S12266   2.406   4.414  10.527 -0.2052  0.2601  0.1163
  117OSM    H2S12267   2.424   4.305  10.529 -1.6203  0.0313  1.5633
  117OSM    C3S12268   2.267   4.430  10.475  0.8024 -0.0642  1.0773
  117OSM    H3S12269   2.245   4.538  10.462 -0.9408 -0.5194 -0.1617
  117OSM     O312270   2.163   4.380  10.555 -0.4818 -0.0737  0.6482
  117OSM    HO312271   2.210   4.392  10.637  0.7344  1.1875 -0.1836
  117OSM    C4S12272   2.256   4.369  10.335 -1.0734  0.3866  0.8030
  117OSM    H4S12273   2.287   4.265  10.315 -1.4462  0.5515 -0.7823
  117OSM    C5S12274   2.207   4.426  10.225 -0.0233 -0.2610  0.4444
  117OSM    H5S12275   2.156   4.523  10.238 -3.0402 -2.0135  3.3795
  117OSM    C6S12276   2.193   4.375  10.082  0.1326  0.4183 -0.1470
  117OSM    H6S12277   2.092   4.399  10.044 -0.2405  2.2350  1.8605
  117OSM    H6T12278   2.208   4.265  10.085  1.7389  0.6122  2.3704
  117OSM    C7S12279   2.307   4.430   9.989  0.0784 -0.3961 -0.0026
  117OSM    H7S12280   2.410   4.411  10.025 -0.1782  1.2361  1.7486
  117OSM    H7T12281   2.287   4.539   9.999 -0.9023 -0.5969  0.3652
  117OSM    C8S12282   2.273   4.397   9.845  0.9187  0.0399 -0.0152
  117OSM    H8S12283   2.313   4.482   9.785  0.6672 -0.0165 -0.2650
  117OSM    H8T12284   2.165   4.406   9.823  1.2152  1.5930 -0.9961
  117OSM    C9S12285   2.324   4.257   9.792  0.4505 -0.3269 -0.0959
  117OSM    H9S12286   2.292   4.176   9.861 -1.3039 -0.8344 -1.4534
  117OSM    H9T12287   2.434   4.253   9.807  0.4235  1.8911  1.1681
  117OSM   C10S12288   2.283   4.228   9.648  0.3221 -0.6031  0.4103
  117OSM   H10S12289   2.172   4.231   9.646  0.2901 -0.0754  1.9839
  117OSM   H10T12290   2.318   4.129   9.612  0.4097 -0.2981 -0.3696
  117OSM   C11S12291   2.340   4.324   9.535  0.2097  0.4735 -0.4531
  117OSM   H11S12292   2.451   4.318   9.540  0.2009  0.4908 -0.2417
  117OSM   H11T12293   2.317   4.431   9.549  0.0740  0.2931  0.8735
  117OSM   C12S12294   2.297   4.263   9.400  0.0155  0.5015 -0.0937
  117OSM   H12S12295   2.191   4.287   9.375  0.8848  1.4660 -3.4580
  117OSM   H12T12296   2.305   4.153   9.388 -0.9094  0.6588 -3.2813
  117OSM   C13S12297   2.379   4.335   9.297  0.0439 -0.0921 -0.1709
  117OSM   H13S12298   2.483   4.317   9.330 -0.2668  1.4697  1.9036
  117OSM   H13T12299   2.369   4.446   9.299 -1.0924 -0.1739  2.0790
  117OSM   C14S12300   2.365   4.272   9.165  0.5469 -0.2388 -0.1285
  117OSM   H14S12301   2.262   4.292   9.129  0.8032  0.1021 -0.6996
  117OSM   H14T12302   2.380   4.162   9.175  1.1264 -0.0849  0.8160
  117OSM   C15S12303   2.473   4.335   9.069  0.0389  0.8491 -0.3036
  117OSM   H15S12304   2.573   4.303   9.104 -0.1598 -2.1034 -2.0755
  117OSM   H15T12305   2.473   4.446   9.067  1.9248  0.8666 -1.1612
  117OSM   C16S12306   2.466   4.275   8.927  0.2613 -0.2497 -0.3485
  117OSM   H16S12307   2.366   4.265   8.881  0.8628 -1.0038 -1.5738
  117OSM   H16T12308   2.502   4.170   8.934 -0.9859 -0.5562  2.4372
  117OSM   C17S12309   2.564   4.354   8.840 -0.4769 -0.1714  0.3789
  117OSM   H17S12310   2.660   4.338   8.892 -0.1230 -0.1387 -0.2591
  117OSM   H17T12311   2.541   4.462   8.826  1.2448  0.1747  0.0652
  117OSM   C18S12312   2.585   4.291   8.694 -0.4293 -0.7799  0.1741
  117OSM   H18S12313   2.613   4.183   8.699 -0.2214 -0.7109  0.5414
  117OSM   H18T12314   2.667   4.345   8.644 -2.1780  0.4350 -1.4992
  117OSM   H18U12315   2.498   4.294   8.626  0.3476 -2.5639 -0.9678
  117OSM    C1F12316   2.645   4.452  10.462  0.4871 -0.3480  0.6727
  117OSM     OF12317   2.680   4.362  10.536 -0.7710 -0.2450 -0.0025
  117OSM    C2F12318   2.747   4.545  10.390  0.4494  0.1165 -0.2060
  117OSM    H2F12319   2.845   4.553  10.441  0.8232 -1.4950 -0.6203
  117OSM    H2G12320   2.697   4.645  10.395  0.3336  0.0495  4.1116
  117OSM    C3F12321   2.762   4.498  10.240  0.1387  0.1734 -0.1194
  117OSM    H3F12322   2.661   4.493  10.195  0.7440 -0.6027 -1.4591
  117OSM    H3G12323   2.810   4.398  10.235  2.0233  1.0099  0.2053
  117OSM    C4F12324   2.836   4.580  10.131 -0.2686 -0.5565  0.1763
  117OSM    H4F12325   2.936   4.611  10.168 -0.6866 -0.0424  0.9138
  117OSM    H4G12326   2.777   4.673  10.120 -1.4000 -1.1736  0.8638
  117OSM    C5F12327   2.857   4.513   9.998 -0.1214 -0.0898  0.4943
  117OSM    H5F12328   2.886   4.406  10.005 -0.2122 -0.2474 -1.2246
  117OSM    H5G12329   2.951   4.559   9.960 -0.9702  0.7011 -0.6868
  117OSM    C6F12330   2.746   4.529   9.897  0.5914 -0.3158 -0.0709
  117OSM    H6F12331   2.709   4.633   9.886 -0.3133 -0.8373 -2.5665
  117OSM    H6G12332   2.665   4.463   9.933 -1.0899  1.2543 -0.8225
  117OSM    C7F12333   2.796   4.483   9.758  0.0073 -0.1314 -0.7335
  117OSM    H7F12334   2.845   4.384   9.775  1.0716  0.7686  2.1294
  117OSM    H7G12335   2.878   4.549   9.723 -0.6264  0.3317 -1.3671
  117OSM    C8F12336   2.693   4.489   9.641  0.1744  0.3175  0.3830
  117OSM    H8F12337   2.681   4.599   9.627 -0.9373  0.1043 -0.5141
  117OSM    H8G12338   2.596   4.456   9.684 -0.8350  0.0875 -1.9149
  117OSM    C9F12339   2.716   4.396   9.528 -0.3775 -0.3891 -0.2467
  117OSM    H9F12340   2.686   4.291   9.541  0.6670 -0.3776  3.1172
  117OSM   C10F12341   2.755   4.436   9.410  0.2182 -0.0736  1.6186
  117OSM   H10F12342   2.754   4.358   9.332 -2.2857  0.0173  1.4797
  117OSM   C11F12343   2.788   4.579   9.367 -0.7443  0.3616 -0.1611
  117OSM   H11F12344   2.894   4.573   9.333 -0.1727 -0.2177  1.6258
  117OSM   H11G12345   2.780   4.662   9.440  2.0090 -0.5927  1.3783
  117OSM   C12F12346   2.700   4.612   9.246  0.2721  0.0169  0.1276
  117OSM   H12F12347   2.600   4.624   9.294 -1.0774 -2.5343 -1.7796
  117OSM   H12G12348   2.706   4.526   9.175 -1.5689  1.1299 -1.4657
  117OSM   C13F12349   2.743   4.741   9.172  0.5369  0.1124  0.3028
  117OSM   H13F12350   2.842   4.724   9.123 -0.6906 -4.0149 -1.1960
  117OSM   H13G12351   2.741   4.821   9.249 -1.0481  1.3103 -0.9142
  117OSM   C14F12352   2.644   4.767   9.062 -0.4399 -0.2966  0.6014
  117OSM   H14F12353   2.542   4.754   9.104 -0.4377 -0.8793  0.4346
  117OSM   H14G12354   2.654   4.686   8.986 -0.7787 -0.8894  1.1818
  117OSM   C15F12355   2.651   4.909   8.994 -0.8580  0.1979  0.2133
  117OSM   H15F12356   2.751   4.912   8.946 -0.2346 -0.9721  1.3715
  117OSM   H15G12357   2.650   4.983   9.077 -0.4089 -0.1650  0.5527
  117OSM   C16F12358   2.540   4.939   8.897  0.7316 -0.5294  0.3604
  117OSM   H16F12359   2.520   5.048   8.888  2.0776 -0.0548  2.4903
  117OSM   H16G12360   2.446   4.900   8.941  0.8181  0.3274  1.3293
  117OSM   C17F12361   2.561   4.877   8.760 -0.4918  0.5632  0.1119
  117OSM   H17F12362   2.625   4.788   8.772 -1.1875  0.0453  0.0425
  117OSM   H17G12363   2.617   4.948   8.695 -1.6193  0.7324 -0.7096
  117OSM   C18F12364   2.439   4.831   8.682  0.5852 -0.0988  0.2815
  117OSM   H18F12365   2.458   4.769   8.592  0.7410  1.1493 -0.5733
  117OSM   H18G12366   2.387   4.928   8.667 -0.0697 -0.6914 -1.6513
  117OSM   H18H12367   2.370   4.762   8.736  0.8949 -0.2894  0.4334
  118OSM      N12368   0.485   5.499  10.866  0.3565  0.0397 -0.3100
  118OSM    C1512369   0.492   5.598  10.753 -0.1833  0.1117  0.2413
  118OSM   H15A12370   0.591   5.587  10.712 -0.0352 -0.9907  0.8494
  118OSM   H15B12371   0.489   5.702  10.781  1.3058  0.1925  0.1721
  118OSM   H15C12372   0.422   5.589  10.671 -0.5628 -0.7410  0.6437
  118OSM    C1412373   0.576   5.538  10.966 -0.2249  0.3595 -0.8823
  118OSM   H14A12374   0.576   5.644  10.988 -0.6884  0.1755  0.0522
  118OSM   H14B12375   0.673   5.509  10.927 -0.4889 -2.8762  0.5618
  118OSM   H14C12376   0.564   5.478  11.055  1.2921  0.1498 -0.7797
  118OSM    C1312377   0.348   5.502  10.927  0.0416  0.0940 -0.6035
  118OSM   H13A12378   0.322   5.597  10.971  1.4766  0.0219  0.5167
  118OSM   H13B12379   0.351   5.435  11.012  4.8275 -0.1655 -0.6855
  118OSM   H13C12380   0.269   5.483  10.857  1.0921 -0.2460 -1.7361
  118OSM    C1212381   0.512   5.358  10.820  0.0815 -0.4308 -0.4611
  118OSM   H12A12382   0.444   5.337  10.739 -1.1644  2.1686 -0.1855
  118OSM   H12B12383   0.487   5.304  10.910  0.2503 -0.0114 -0.1567
  118OSM    C1112384   0.655   5.322  10.776  0.0676 -0.0466 -0.2544
  118OSM   H11A12385   0.703   5.397  10.709 -0.5711 -0.0105 -0.6818
  118OSM   H11B12386   0.637   5.232  10.714 -2.7842 -0.7040  1.3465
  118OSM      P12387   0.894   5.294  10.874  0.3424 -0.5213  0.0361
  118OSM    O1312388   0.939   5.434  10.877  0.0913 -0.0409 -0.4934
  118OSM    O1412389   0.953   5.212  10.974 -0.4125 -0.0986 -0.8481
  118OSM    O1112390   0.919   5.224  10.737 -0.3316  0.3752  0.2597
  118OSM    O1212391   0.733   5.290  10.889 -0.5184  0.4514  0.0264
  118OSM    C1S12392   1.040   5.273  10.669 -0.6646  0.4869  0.3486
  118OSM    H1S12393   1.127   5.248  10.734 -0.6435 -1.3652 -0.3378
  118OSM    H1T12394   1.041   5.384  10.667  3.0695  0.5558 -1.1680
  118OSM     NF12395   1.180   5.255  10.472 -0.0010  0.3617 -0.1805
  118OSM    HNF12396   1.179   5.310  10.389  0.6390 -1.6665 -1.5965
  118OSM    C2S12397   1.052   5.220  10.528 -0.4189  0.1325 -0.2244
  118OSM    H2S12398   1.058   5.109  10.530  0.6504  0.1823  0.2311
  118OSM    C3S12399   0.919   5.261  10.453 -0.0629  0.2603  0.7997
  118OSM    H3S12400   0.910   5.371  10.462 -2.2833  0.2834 -0.8299
  118OSM     O312401   0.791   5.202  10.504  0.5816 -0.1338  0.3009
  118OSM    HO312402   0.813   5.186  10.596  1.8715  0.0946  0.0573
  118OSM    C4S12403   0.936   5.213  10.308  0.1408 -0.8451  0.3443
  118OSM    H4S12404   0.962   5.300  10.247 -0.4271 -0.9727 -0.0867
  118OSM    C5S12405   0.898   5.099  10.252 -0.2255 -0.0273  0.1151
  118OSM    H5S12406   0.856   5.019  10.314  0.5400  0.7344  1.6509
  118OSM    C6S12407   0.921   5.054  10.103 -0.1967  0.0737 -0.3148
  118OSM    H6S12408   0.818   5.040  10.062 -0.9348 -1.9916  2.0104
  118OSM    H6T12409   0.975   4.957  10.101 -0.6635 -0.1800 -1.0598
  118OSM    C7S12410   0.990   5.166  10.005 -0.0153  0.4446 -0.0002
  118OSM    H7S12411   1.095   5.188  10.032  0.6186 -3.0813  0.8381
  118OSM    H7T12412   0.926   5.257  10.005 -0.0716  0.4143  0.8440
  118OSM    C8S12413   0.999   5.103   9.862  0.1245 -0.2912 -0.9188
  118OSM    H8S12414   1.053   5.009   9.882 -2.1066 -1.2734  0.9392
  118OSM    H8T12415   1.056   5.172   9.796 -0.9999 -0.4291 -2.0900
  118OSM    C9S12416   0.873   5.076   9.786 -0.3415 -0.2545 -0.5454
  118OSM    H9S12417   0.814   5.168   9.765 -0.4989 -0.3690 -0.6025
  118OSM    H9T12418   0.802   5.021   9.851  0.5342 -2.1131 -1.0996
  118OSM   C10S12419   0.905   4.994   9.658 -0.5233  0.2464 -0.6672
  118OSM   H10S12420   0.816   4.933   9.631  0.6564 -1.2081 -1.3923
  118OSM   H10T12421   0.986   4.921   9.677  0.6278  1.3163 -1.3237
  118OSM   C11S12422   0.945   5.084   9.547  0.5332  0.2147  0.4425
  118OSM   H11S12423   0.998   5.025   9.469 -1.0960  0.1095 -0.6349
  118OSM   H11T12424   1.021   5.154   9.589 -0.3271 -0.1619  2.7737
  118OSM   C12S12425   0.826   5.156   9.473  0.0485 -0.0892 -0.2817
  118OSM   H12S12426   0.788   5.236   9.539  0.2145  0.5112 -0.9074
  118OSM   H12T12427   0.749   5.079   9.449 -2.6777  2.3474  0.1741
  118OSM   C13S12428   0.862   5.217   9.341  0.4404 -1.0663  0.0873
  118OSM   H13S12429   0.932   5.297   9.372 -1.4933 -0.0632  2.1403
  118OSM   H13T12430   0.772   5.269   9.303 -1.1735 -1.8876  2.5474
  118OSM   C14S12431   0.918   5.121   9.229  1.2461 -0.2526  0.0660
  118OSM   H14S12432   0.998   5.061   9.276  1.7060  1.5604  1.7232
  118OSM   H14T12433   0.970   5.184   9.154  1.2925 -0.4141 -0.0374
  118OSM   C15S12434   0.816   5.033   9.156 -0.2686 -0.7967  0.1201
  118OSM   H15S12435   0.725   5.091   9.129 -0.3437 -1.0297 -0.1301
  118OSM   H15T12436   0.799   4.959   9.237  2.7827 -1.0679  0.6381
  118OSM   C16S12437   0.871   4.967   9.036  1.2599  0.3401 -0.0099
  118OSM   H16S12438   0.940   4.888   9.073  1.5796 -0.4308 -2.1419
  118OSM   H16T12439   0.933   5.031   8.970  0.7532 -0.5430 -1.3671
  118OSM   C17S12440   0.770   4.886   8.953  0.5271 -0.0733 -0.2874
  118OSM   H17S12441   0.783   4.913   8.846  2.5475  2.0370  0.3955
  118OSM   H17T12442   0.667   4.908   8.986 -0.0046 -0.9629 -1.2978
  118OSM   C18S12443   0.787   4.731   8.970 -0.0686  0.2377 -0.5941
  118OSM   H18S12444   0.713   4.682   8.903 -1.0166  1.8857 -0.8191
  118OSM   H18T12445   0.757   4.702   9.074  0.5891  1.1295 -0.1418
  118OSM   H18U12446   0.893   4.703   8.954 -0.1039 -0.6296  0.5006
  118OSM    C1F12447   1.301   5.211  10.513 -0.0543  0.5118  0.9411
  118OSM     OF12448   1.321   5.152  10.617 -0.6785  0.4874  0.6395
  118OSM    C2F12449   1.409   5.227  10.410  0.3617  0.1229 -0.1162
  118OSM    H2F12450   1.423   5.337  10.399  0.0822 -0.0668 -2.9472
  118OSM    H2G12451   1.365   5.204  10.311  0.0130  2.4385 -0.5676
  118OSM    C3F12452   1.548   5.151  10.433  0.0301 -0.0644 -0.3045
  118OSM    H3F12453   1.520   5.044  10.436 -1.4792  0.3073 -0.3864
  118OSM    H3G12454   1.581   5.168  10.538 -0.6144 -2.1303  0.2644
  118OSM    C4F12455   1.655   5.173  10.321 -0.0285 -0.2769 -0.0250
  118OSM    H4F12456   1.753   5.121  10.333  0.5257  1.0903  1.7998
  118OSM    H4G12457   1.681   5.279  10.339 -1.1727 -0.1979  1.2444
  118OSM    C5F12458   1.601   5.145  10.175 -0.2225 -0.0276 -0.4566
  118OSM    H5F12459   1.526   5.226  10.160 -1.5717 -1.2449 -0.5415
  118OSM    H5G12460   1.550   5.046  10.179 -1.4264  0.6119  2.0622
  118OSM    C6F12461   1.707   5.156  10.068  0.3047  0.2252  0.1352
  118OSM    H6F12462   1.772   5.067  10.077 -1.9365 -1.4894  0.0774
  118OSM    H6G12463   1.773   5.245  10.087  0.6066  0.0296  0.0118
  118OSM    C7F12464   1.640   5.168   9.929 -0.0981  0.4429  0.2083
  118OSM    H7F12465   1.574   5.255   9.944 -1.3887 -0.4684 -0.0110
  118OSM    H7G12466   1.576   5.079   9.912 -1.2673  1.1416  0.8674
  118OSM    C8F12467   1.749   5.173   9.821 -0.5457  0.2631 -0.2134
  118OSM    H8F12468   1.784   5.069   9.808  0.2891  0.5131  0.0208
  118OSM    H8G12469   1.842   5.220   9.859  1.3685 -0.8940 -3.1747
  118OSM    C9F12470   1.705   5.237   9.688  0.0788  0.0179 -0.5423
  118OSM    H9F12471   1.702   5.347   9.685  1.5242  0.0545 -1.6719
  118OSM   C10F12472   1.695   5.176   9.566 -0.4268  0.2343  0.2638
  118OSM   H10F12473   1.658   5.232   9.479 -1.3999  0.5057  0.8365
  118OSM   C11F12474   1.732   5.029   9.535  0.0136 -0.0514  0.3384
  118OSM   H11F12475   1.633   4.979   9.541 -0.5358  1.0585  0.7515
  118OSM   H11G12476   1.793   4.998   9.622 -0.4095  1.1111  1.0799
  118OSM   C12F12477   1.818   4.999   9.407  0.5811  0.0505 -0.2124
  118OSM   H12F12478   1.855   4.895   9.399  0.0399 -0.3419  1.8966
  118OSM   H12G12479   1.895   5.077   9.393  0.0768  0.5947 -0.0141
  118OSM   C13F12480   1.733   5.013   9.276 -0.0779 -0.3240  0.2885
  118OSM   H13F12481   1.671   5.106   9.271  0.6750  0.1565 -0.1669
  118OSM   H13G12482   1.671   4.922   9.289 -1.1510  0.3507  0.0133
  118OSM   C14F12483   1.824   4.998   9.157 -0.1327  0.4171  0.2482
  118OSM   H14F12484   1.901   4.922   9.183  0.0897  1.0517  1.4963
  118OSM   H14G12485   1.878   5.093   9.136 -0.8761  0.5934 -0.9235
  118OSM   C15F12486   1.749   4.973   9.023  0.8844 -0.4613  0.1484
  118OSM   H15F12487   1.666   5.043   9.001  0.9924  0.2711  1.9003
  118OSM   H15G12488   1.705   4.872   9.042  1.9084 -1.0104 -0.3651
  118OSM   C16F12489   1.842   4.966   8.905  0.3345  0.2207 -0.5269
  118OSM   H16F12490   1.943   4.928   8.929 -0.1647  0.5285  2.4506
  118OSM   H16G12491   1.865   5.069   8.868  1.8606  0.2929  0.5457
  118OSM   C17F12492   1.788   4.869   8.796 -0.1579 -0.8818 -0.5068
  118OSM   H17F12493   1.691   4.907   8.759  0.0605 -1.1433 -1.3653
  118OSM   H17G12494   1.783   4.766   8.837 -0.2403 -0.3776  0.8025
  118OSM   C18F12495   1.879   4.868   8.676 -1.3493 -0.0910  0.0542
  118OSM   H18F12496   1.867   4.960   8.615  0.9334  0.2232 -0.0163
  118OSM   H18G12497   1.846   4.781   8.616 -1.0294  0.0252 -0.2939
  118OSM   H18H12498   1.984   4.865   8.714 -1.3032  0.3482 -0.0281
  119OSM      N12499   3.064   6.097  11.168  0.6429  0.2817  0.2770
  119OSM    C1512500   3.072   6.229  11.098 -0.4778 -0.4187  0.6319
  119OSM   H15A12501   3.156   6.286  11.135 -0.7115 -0.6960  1.6403
  119OSM   H15B12502   2.988   6.295  11.118  0.6047  1.3356 -0.3193
  119OSM   H15C12503   3.074   6.209  10.992 -0.2242 -0.0203  0.5554
  119OSM    C1412504   3.191   6.023  11.137 -0.0199 -0.4680 -0.3319
  119OSM   H14A12505   3.279   6.072  11.174 -0.4378  1.2661 -1.4797
  119OSM   H14B12506   3.200   6.016  11.029  1.8244 -2.1372 -0.1180
  119OSM   H14C12507   3.195   5.925  11.182 -0.9789 -0.2696  0.2218
  119OSM    C1312508   3.042   6.116  11.317 -0.4767  0.1915 -0.2175
  119OSM   H13A12509   3.129   6.155  11.367 -0.3548  2.6652 -2.1398
  119OSM   H13B12510   3.017   6.026  11.370  0.0679 -0.0250 -0.3216
  119OSM   H13C12511   2.961   6.187  11.323 -0.5976  0.1657 -1.2866
  119OSM    C1212512   2.943   6.023  11.110 -0.7775  0.5206  0.3664
  119OSM   H12A12513   2.850   6.069  11.138 -2.7996 -2.6146 -0.6277
  119OSM   H12B12514   2.948   5.927  11.160  1.6941 -0.2234 -1.1411
  119OSM    C1112515   2.938   5.985  10.965  0.3582  0.0967 -0.0235
  119OSM   H11A12516   2.930   6.082  10.911 -0.5301 -0.4711 -0.9317
  119OSM   H11B12517   2.845   5.927  10.947  0.8940 -0.4560 -1.1312
  119OSM      P12518   3.039   5.746  10.931  0.3156  0.0957  0.4505
  119OSM    O1312519   3.164   5.697  10.866  0.0123  0.8475 -0.1350
  119OSM    O1412520   3.003   5.704  11.072  0.3163  0.2427  0.4427
  119OSM    O1112521   2.920   5.709  10.830  0.1337  0.1093 -0.4568
  119OSM    O1212522   3.045   5.903  10.917  0.1032 -0.1376  0.3421
  119OSM    C1S12523   2.936   5.736  10.686  1.0086  0.1744 -0.2647
  119OSM    H1S12524   3.018   5.678  10.640  1.3634  1.7423 -1.7256
  119OSM    H1T12525   2.958   5.844  10.677 -2.2519  0.9730 -0.1608
  119OSM     NF12526   2.832   5.755  10.472  0.2550 -0.5893  0.0220
  119OSM    HNF12527   2.804   5.846  10.443 -3.0396 -1.0563  1.3066
  119OSM    C2S12528   2.802   5.724  10.609 -0.1803  0.2375 -0.1737
  119OSM    H2S12529   2.787   5.614  10.613  0.1751  0.2289  1.1896
  119OSM    C3S12530   2.685   5.809  10.676 -0.2400  0.8604 -0.6665
  119OSM    H3S12531   2.698   5.919  10.665 -1.9218  0.9632 -2.1286
  119OSM     O312532   2.679   5.789  10.821 -0.0373  0.0590  0.4154
  119OSM    HO312533   2.760   5.743  10.845 -0.7248 -1.8847 -0.7032
  119OSM    C4S12534   2.558   5.782  10.605 -0.6034 -0.5717 -0.5603
  119OSM    H4S12535   2.549   5.860  10.527  0.6061 -1.0749 -1.2253
  119OSM    C5S12536   2.467   5.687  10.627 -0.2830 -0.5713 -0.0958
  119OSM    H5S12537   2.479   5.627  10.718 -0.2856  0.7313  0.8023
  119OSM    C6S12538   2.338   5.675  10.543  0.2479 -0.0132 -0.2315
  119OSM    H6S12539   2.251   5.662  10.611  1.0560  0.6305  0.9466
  119OSM    H6T12540   2.346   5.592  10.469  2.8110 -0.3667  0.3523
  119OSM    C7S12541   2.314   5.796  10.452 -1.0253  0.8730  0.4140
  119OSM    H7S12542   2.396   5.818  10.382 -1.7870  1.2860 -0.3744
  119OSM    H7T12543   2.313   5.889  10.513 -3.1097  2.1567 -1.4211
  119OSM    C8S12544   2.181   5.789  10.370  0.4400  0.2167 -0.0890
  119OSM    H8S12545   2.113   5.784  10.458  1.8950  1.9680  1.2065
  119OSM    H8T12546   2.163   5.694  10.315  0.7241  0.6830 -1.0042
  119OSM    C9S12547   2.141   5.920  10.301  0.3871  0.4364  0.5107
  119OSM    H9S12548   2.131   6.006  10.370  1.5722  0.3626  0.7965
  119OSM    H9T12549   2.040   5.900  10.259  1.4958 -1.1856 -1.5650
  119OSM   C10S12550   2.238   5.956  10.193  0.0678  0.3494  0.5554
  119OSM   H10S12551   2.331   6.008  10.225  0.6685  0.5213 -1.3607
  119OSM   H10T12552   2.189   6.024  10.120 -1.9349 -2.6521 -1.1145
  119OSM   C11S12553   2.296   5.831  10.099  0.4119  0.0200 -0.1031
  119OSM   H11S12554   2.201   5.778  10.079  0.9643 -1.4629  0.9968
  119OSM   H11T12555   2.353   5.759  10.162  2.3439  1.4189 -0.1673
  119OSM   C12S12556   2.357   5.877   9.967  0.1430  0.6829 -0.3467
  119OSM   H12S12557   2.465   5.903   9.968  0.6911 -1.4008  0.0184
  119OSM   H12T12558   2.300   5.966   9.932 -0.6842  0.0748 -0.5891
  119OSM   C13S12559   2.330   5.774   9.862  0.8761  0.2476  0.4806
  119OSM   H13S12560   2.222   5.749   9.859  0.6337  1.1433  1.2981
  119OSM   H13T12561   2.381   5.678   9.886 -1.1596 -0.9565  0.2307
  119OSM   C14S12562   2.368   5.816   9.720  0.5512 -0.2756  0.7597
  119OSM   H14S12563   2.478   5.836   9.716  0.6169 -0.7084 -3.0729
  119OSM   H14T12564   2.329   5.916   9.693  0.6358 -0.7034 -1.0534
  119OSM   C15S12565   2.329   5.713   9.618  0.0601 -0.2021 -0.2488
  119OSM   H15S12566   2.221   5.727   9.596 -0.2900  0.2890  1.5914
  119OSM   H15T12567   2.339   5.607   9.648  1.2873 -0.0249  0.0113
  119OSM   C16S12568   2.383   5.735   9.479 -0.4070 -0.7158  0.0918
  119OSM   H16S12569   2.491   5.707   9.483 -0.7770 -2.1335  0.4415
  119OSM   H16T12570   2.374   5.842   9.447 -0.8724 -0.6685  0.3783
  119OSM   C17S12571   2.315   5.647   9.373 -0.1857 -0.4102 -0.0955
  119OSM   H17S12572   2.205   5.658   9.378 -0.1055  0.2240  0.3670
  119OSM   H17T12573   2.346   5.544   9.399 -0.4720 -0.3701  0.4158
  119OSM   C18S12574   2.358   5.668   9.228  0.5456  0.2449 -0.2341
  119OSM   H18S12575   2.315   5.585   9.167  0.8417 -0.0381 -0.0608
  119OSM   H18T12576   2.467   5.669   9.209  0.6084  1.0471  0.1483
  119OSM   H18U12577   2.335   5.774   9.206  0.1332  0.1002 -0.5148
  119OSM    C1F12578   2.909   5.672  10.395  0.0286  0.3230 -0.4400
  119OSM     OF12579   2.917   5.556  10.434 -0.8831 -0.0552  0.3912
  119OSM    C2F12580   2.977   5.732  10.270 -0.1348  0.2605 -0.4139
  119OSM    H2F12581   3.048   5.811  10.303 -1.2268 -0.0434  3.0677
  119OSM    H2G12582   2.899   5.787  10.214  1.1508  1.5320 -1.0088
  119OSM    C3F12583   3.062   5.632  10.188  0.2437 -0.4712 -0.7650
  119OSM    H3F12584   2.990   5.552  10.161 -2.4339  1.4670  0.2247
  119OSM    H3G12585   3.140   5.580  10.247 -0.4481 -2.2306 -1.3487
  119OSM    C4F12586   3.113   5.702  10.059 -0.6953  0.1263 -0.5293
  119OSM    H4F12587   3.206   5.756  10.089 -1.1129 -0.2891  1.7328
  119OSM    H4G12588   3.038   5.770  10.014  1.1354  1.1065 -2.2494
  119OSM    C5F12589   3.139   5.610   9.933 -0.2686 -0.6421  0.1395
  119OSM    H5F12590   3.065   5.527   9.939  0.3880 -1.2525 -0.0499
  119OSM    H5G12591   3.239   5.561   9.936  0.2665  0.3647  4.0210
  119OSM    C6F12592   3.127   5.687   9.804 -0.0422 -0.8365 -0.2912
  119OSM    H6F12593   3.206   5.765   9.791  0.7290 -1.5217  0.1793
  119OSM    H6G12594   3.026   5.732   9.793 -1.3530 -3.6107 -0.4809
  119OSM    C7F12595   3.127   5.591   9.681 -0.1771  0.2313  0.2412
  119OSM    H7F12596   3.047   5.517   9.701 -0.5305  0.1756 -1.2514
  119OSM    H7G12597   3.225   5.541   9.670  0.7926  1.5276  2.2863
  119OSM    C8F12598   3.084   5.645   9.540 -0.0785 -0.4641  0.3617
  119OSM    H8F12599   2.996   5.710   9.558 -1.6207 -1.5037 -2.7446
  119OSM    H8G12600   3.049   5.559   9.479  3.0562 -1.2772 -0.4651
  119OSM    C9F12601   3.191   5.721   9.464 -0.0772 -0.6571  0.2690
  119OSM    H9F12602   3.220   5.817   9.511  1.0692 -0.7309 -0.2596
  119OSM   C10F12603   3.242   5.684   9.342 -0.4211 -0.2700 -0.1351
  119OSM   H10F12604   3.325   5.738   9.295  1.2483 -1.6163  1.1005
  119OSM   C11F12605   3.199   5.564   9.261 -0.7669 -0.0315  0.8078
  119OSM   H11F12606   3.181   5.472   9.321  3.0238 -0.8461  0.9401
  119OSM   H11G12607   3.280   5.533   9.191 -1.3435  1.1492 -0.4420
  119OSM   C12F12608   3.082   5.608   9.175  0.8296  0.0536 -0.1738
  119OSM   H12F12609   2.992   5.612   9.241  0.7842  1.1622 -0.2856
  119OSM   H12G12610   3.058   5.527   9.103  0.1110  0.8471 -0.8448
  119OSM   C13F12611   3.087   5.743   9.092  0.0644 -0.0107  0.0807
  119OSM   H13F12612   3.083   5.829   9.162 -0.1406 -0.3779  0.5196
  119OSM   H13G12613   2.994   5.748   9.032 -0.5640 -0.5502  1.0052
  119OSM   C14F12614   3.208   5.767   8.996 -0.6986  0.1356  0.5554
  119OSM   H14F12615   3.302   5.728   9.042 -0.5149 -0.7058 -0.4791
  119OSM   H14G12616   3.221   5.877   8.991  0.3606 -0.0315 -1.7191
  119OSM   C15F12617   3.187   5.709   8.852 -0.5400 -0.4625 -0.5080
  119OSM   H15F12618   3.275   5.740   8.792 -0.7790 -0.6120 -0.9344
  119OSM   H15G12619   3.097   5.748   8.800  0.0942  1.4874 -0.2364
  119OSM   C16F12620   3.193   5.557   8.846  0.5250  0.6012  0.3023
  119OSM   H16F12621   3.099   5.525   8.896  1.1891 -1.6848  0.1921
  119OSM   H16G12622   3.283   5.512   8.893 -0.0312  0.6724  1.4536
  119OSM   C17F12623   3.177   5.505   8.706 -0.4251  0.0211 -0.0976
  119OSM   H17F12624   3.250   5.560   8.641 -0.7034  1.2139  0.5655
  119OSM   H17G12625   3.078   5.535   8.666  0.2166  2.6328  0.1016
  119OSM   C18F12626   3.214   5.360   8.687  0.3414  0.4784 -0.4756
  119OSM   H18F12627   3.316   5.338   8.726  0.0253 -0.9350 -0.3980
  119OSM   H18G12628   3.212   5.331   8.580  0.3153  5.0423 -1.9201
  119OSM   H18H12629   3.151   5.296   8.752 -1.2240 -0.2201 -2.5637
  120OSM      N12630   6.343   0.332  10.405  0.5025 -0.4508  0.2522
  120OSM    C1512631   6.351   0.472  10.452 -0.7132  0.3098 -0.2763
  120OSM   H15A12632   6.396   0.487  10.549  1.8112  1.6885 -1.5703
  120OSM   H15B12633   6.249   0.506  10.465 -0.6360 -0.0384  1.4338
  120OSM   H15C12634   6.411   0.533  10.387  0.3126 -0.8496 -0.4526
  120OSM    C1412635   6.290   0.246  10.508 -0.3005  0.5662  0.1464
  120OSM   H14A12636   6.209   0.300  10.553  0.7952  1.6444  0.9006
  120OSM   H14B12637   6.357   0.233  10.591  0.8525  1.7585 -0.5463
  120OSM   H14C12638   6.274   0.148  10.464 -1.4605  0.8195 -0.0293
  120OSM    C1312639   6.250   0.337  10.291 -0.1422  0.9337  0.2966
  120OSM   H13A12640   6.251   0.248  10.230 -0.4603 -1.1911  3.1719
  120OSM   H13B12641   6.272   0.415  10.220  3.4724 -1.3463 -1.3708
  120OSM   H13C12642   6.147   0.333  10.326  0.1756 -0.6709  1.1583
  120OSM    C1212643   6.481   0.288  10.355 -0.0149 -0.5110  0.2543
  120OSM   H12A12644   6.525   0.351  10.278  1.0137 -0.8961  0.5100
  120OSM   H12B12645   6.469   0.194  10.302  0.5850  0.2126 -1.2423
  120OSM    C1112646   6.584   0.262  10.461  0.0542 -0.3143 -0.0768
  120OSM   H11A12647   6.611   0.360  10.507 -0.4581 -0.1766 -0.0589
  120OSM   H11B12648   6.685   0.246  10.418 -0.1342 -0.3479 -0.5079
  120OSM      P12649   6.559   0.017  10.544  0.1610  0.4252  0.1244
  120OSM    O1312650   6.655  -0.044  10.638  0.8617  1.2942 -0.5986
  120OSM    O1412651   6.417  -0.032  10.546  0.0540  0.3309  0.2273
  120OSM    O1112652   6.614   0.001  10.397 -0.2582  0.1482 -0.1975
  120OSM    O1212653   6.553   0.168  10.567 -0.1175  0.1241  0.1508
  120OSM    C1S12654   6.517  -0.044  10.296  0.0052  0.2814  0.7380
  120OSM    H1S12655   6.424   0.016  10.293 -0.8962 -0.8891  2.8234
  120OSM    H1T12656   6.499  -0.154  10.305 -1.5271  0.3661 -0.8702
  120OSM     NF12657   6.475  -0.046  10.049 -0.4480 -0.0702 -0.4309
  120OSM    HNF12658   6.501  -0.122   9.991  0.9493  0.2679 -0.2947
  120OSM    C2S12659   6.577  -0.030  10.156  0.4515 -0.7093  0.7355
  120OSM    H2S12660   6.608   0.075  10.144 -2.5242  0.1602 -0.4633
  120OSM    C3S12661   6.699  -0.120  10.125 -0.4005 -0.5850 -0.1605
  120OSM    H3S12662   6.674  -0.228  10.132  1.5843 -0.9714  2.2956
  120OSM     O312663   6.799  -0.119  10.226 -0.7545 -0.2173  0.4408
  120OSM    HO312664   6.768  -0.064  10.298 -0.7990  1.4867 -0.8086
  120OSM    C4S12665   6.754  -0.097   9.987 -0.2043  0.0405  0.0764
  120OSM    H4S12666   6.718  -0.168   9.910  3.4561 -2.1537  0.1500
  120OSM    C5S12667   6.822   0.016   9.955  0.1605 -0.6745 -1.1317
  120OSM    H5S12668   6.833   0.091  10.035  1.3259 -1.3871 -0.6106
  120OSM    C6S12669   6.872   0.066   9.818 -0.2901 -0.1239 -0.2624
  120OSM    H6S12670   6.892  -0.017   9.747 -0.6518 -1.3336  0.9878
  120OSM    H6T12671   6.956   0.133   9.844 -0.9211 -0.1503  2.1789
  120OSM    C7S12672   6.770   0.167   9.741 -0.9457  0.8143 -0.1791
  120OSM    H7S12673   6.833   0.205   9.657  0.1216  1.3980  0.8561
  120OSM    H7T12674   6.742   0.255   9.802  1.5253  1.2122  0.5097
  120OSM    C8S12675   6.643   0.102   9.692  0.8284 -0.3222 -0.4871
  120OSM    H8S12676   6.575   0.110   9.780  0.5293 -2.3595 -0.4687
  120OSM    H8T12677   6.657  -0.008   9.682 -1.0553 -0.8670  1.8023
  120OSM    C9S12678   6.587   0.178   9.568  0.5805 -0.6958  0.6172
  120OSM    H9S12679   6.651   0.148   9.483 -0.1179 -0.1510 -0.1141
  120OSM    H9T12680   6.597   0.286   9.591  0.4166  0.0763 -2.4810
  120OSM   C10S12681   6.437   0.141   9.531  0.5461 -0.2927 -0.1321
  120OSM   H10S12682   6.372   0.147   9.621  1.2812  1.5898  0.3207
  120OSM   H10T12683   6.434   0.030   9.523  3.2185 -0.5463  1.1136
  120OSM   C11S12684   6.390   0.217   9.410  0.3112 -0.4339  0.5634
  120OSM   H11S12685   6.434   0.319   9.414 -2.4887  0.8827 -0.1203
  120OSM   H11T12686   6.279   0.225   9.408  0.2610 -0.5026  1.8551
  120OSM   C12S12687   6.440   0.152   9.282 -0.6269 -0.6517 -0.1458
  120OSM   H12S12688   6.388   0.054   9.272  0.4572 -1.4235  1.4220
  120OSM   H12T12689   6.545   0.120   9.298 -1.1869 -2.5750 -0.0802
  120OSM   C13S12690   6.421   0.249   9.161  0.9668  0.1832  0.1556
  120OSM   H13S12691   6.476   0.346   9.161  0.8504  0.2676  1.5989
  120OSM   H13T12692   6.314   0.278   9.165  1.2699  1.5205 -0.7557
  120OSM   C14S12693   6.450   0.170   9.027 -0.2022 -0.2212  0.0400
  120OSM   H14S12694   6.387   0.079   9.017  0.4578 -0.8515  1.3825
  120OSM   H14T12695   6.555   0.137   9.040 -0.4469 -0.5927  1.2059
  120OSM   C15S12696   6.442   0.264   8.911  0.0702 -0.7371  0.1045
  120OSM   H15S12697   6.535   0.322   8.927 -0.3941 -0.0989  0.5180
  120OSM   H15T12698   6.360   0.338   8.901  0.1759 -0.5241  0.7845
  120OSM   C16S12699   6.454   0.192   8.779 -1.0385 -0.8429 -0.1879
  120OSM   H16S12700   6.543   0.126   8.773  0.3238  0.9048 -0.1202
  120OSM   H16T12701   6.480   0.270   8.704 -2.5170  0.3561  0.4986
  120OSM   C17S12702   6.327   0.131   8.720  0.1955  0.4879 -0.9899
  120OSM   H17S12703   6.251   0.106   8.797 -1.1861 -0.2929 -2.5390
  120OSM   H17T12704   6.347   0.043   8.655 -0.8267  0.8835 -1.8820
  120OSM   C18S12705   6.254   0.231   8.635  0.4173  0.6097 -0.1974
  120OSM   H18S12706   6.188   0.165   8.575  1.4707 -1.0020  0.3514
  120OSM   H18T12707   6.322   0.289   8.570  0.2778  2.2673  1.0580
  120OSM   H18U12708   6.201   0.303   8.701  0.5039 -0.9498  1.6696
  120OSM    C1F12709   6.360   0.023  10.032 -0.3057  0.0898  0.6278
  120OSM     OF12710   6.334   0.122  10.102 -0.0207  0.8919  0.0415
  120OSM    C2F12711   6.265  -0.020   9.918  0.0084  0.7395 -0.5035
  120OSM    H2F12712   6.244  -0.129   9.922 -0.9385  0.8802 -1.2691
  120OSM    H2G12713   6.308   0.009   9.820 -1.8646 -0.3561 -1.7156
  120OSM    C3F12714   6.126   0.050   9.931 -0.2466 -0.5810 -0.2664
  120OSM    H3F12715   6.133   0.160   9.922  1.6553 -0.8006 -2.8055
  120OSM    H3G12716   6.080   0.019  10.027  1.9851  1.4279  1.5751
  120OSM    C4F12717   6.031   0.019   9.807  0.0645 -0.3224 -0.4888
  120OSM    H4F12718   6.081   0.061   9.717 -2.5972  2.3365 -0.8877
  120OSM    H4G12719   5.943   0.085   9.817 -1.0967 -1.9248  0.2592
  120OSM    C5F12720   5.984  -0.129   9.792 -0.1445 -0.2007  0.2959
  120OSM    H5F12721   5.942  -0.161   9.890  2.8717 -1.9125  1.1799
  120OSM    H5G12722   6.073  -0.194   9.779 -0.4774 -0.4465 -0.8777
  120OSM    C6F12723   5.886  -0.157   9.676 -0.6717 -0.6977 -0.3065
  120OSM    H6F12724   5.921  -0.114   9.580 -1.8605  1.4314  0.1373
  120OSM    H6G12725   5.788  -0.105   9.689  0.7050  2.0835 -0.2451
  120OSM    C7F12726   5.876  -0.303   9.656 -0.1708  0.9750 -0.3271
  120OSM    H7F12727   5.829  -0.352   9.744 -0.8092  0.2166 -1.0753
  120OSM    H7G12728   5.977  -0.346   9.637 -0.3174  0.6511 -0.3737
  120OSM    C8F12729   5.790  -0.329   9.533  0.3475 -0.0654  0.2755
  120OSM    H8F12730   5.793  -0.434   9.496 -1.1002 -0.3491  0.9115
  120OSM    H8G12731   5.843  -0.267   9.457 -1.1111  2.0481  0.8765
  120OSM    C9F12732   5.647  -0.291   9.547 -0.3901 -0.4423  0.1302
  120OSM    H9F12733   5.609  -0.313   9.648 -0.0042  0.9137  0.6066
  120OSM   C10F12734   5.577  -0.220   9.454  0.5108 -0.1566 -0.2759
  120OSM   H10F12735   5.478  -0.188   9.489 -0.5017 -1.9803 -1.3032
  120OSM   C11F12736   5.623  -0.167   9.320 -0.6765 -0.2830 -0.8353
  120OSM   H11F12737   5.726  -0.201   9.297 -1.2810 -2.4635 -0.4653
  120OSM   H11G12738   5.626  -0.056   9.310  0.0885 -0.0449  1.3968
  120OSM   C12F12739   5.533  -0.228   9.215  0.1068 -0.5492 -0.7023
  120OSM   H12F12740   5.428  -0.202   9.240  0.6493 -0.0948  1.3156
  120OSM   H12G12741   5.536  -0.338   9.226 -4.2834 -0.9980 -1.9925
  120OSM   C13F12742   5.572  -0.193   9.066  0.7020  0.5470  0.1558
  120OSM   H13F12743   5.675  -0.234   9.052  1.2151  1.2063  1.7103
  120OSM   H13G12744   5.573  -0.082   9.060 -0.7368  0.6179  0.8581
  120OSM   C14F12745   5.469  -0.242   8.965  0.2827  0.0921 -0.5838
  120OSM   H14F12746   5.363  -0.234   9.000 -0.0522  1.9432 -1.9026
  120OSM   H14G12747   5.488  -0.351   8.955  0.1605  0.1990 -2.2860
  120OSM   C15F12748   5.471  -0.173   8.823  0.2169  0.3554 -0.2804
  120OSM   H15F12749   5.578  -0.158   8.797  0.4418  0.8759  0.8981
  120OSM   H15G12750   5.446  -0.064   8.829  0.9082  0.4731  0.5624
  120OSM   C16F12751   5.394  -0.248   8.716  0.2189 -0.0436  0.0912
  120OSM   H16F12752   5.309  -0.307   8.756 -0.1462 -0.2938 -1.0051
  120OSM   H16G12753   5.469  -0.328   8.699  0.6783  0.1382  1.2164
  120OSM   C17F12754   5.373  -0.173   8.592  0.2307  0.2873  0.1369
  120OSM   H17F12755   5.313  -0.082   8.613 -0.3777  0.6178 -2.6700
  120OSM   H17G12756   5.303  -0.234   8.532 -1.8316  2.3562  0.2799
  120OSM   C18F12757   5.505  -0.132   8.517 -0.2444  0.4368  0.3064
  120OSM   H18F12758   5.572  -0.062   8.571  1.3422  0.9855 -2.2032
  120OSM   H18G12759   5.476  -0.075   8.426 -2.3208  1.2533  1.4235
  120OSM   H18H12760   5.564  -0.225   8.496  1.1028  0.7242  2.5060
  121OSM      N12761   0.940   4.245  10.777  0.6453 -0.0709 -0.6387
  121OSM    C1512762   0.941   4.317  10.913  0.0372  0.4812  0.3492
  121OSM   H15A12763   1.035   4.369  10.922  0.1681  0.9449 -2.6002
  121OSM   H15B12764   0.908   4.259  10.998 -2.8367  1.4882  0.0408
  121OSM   H15C12765   0.864   4.392  10.900 -2.1475 -1.8174 -1.0133
  121OSM    C1412766   0.796   4.212  10.748  0.0958  0.2460  0.7791
  121OSM   H14A12767   0.753   4.168  10.836 -1.3773  1.0724  0.5142
  121OSM   H14B12768   0.789   4.139  10.669 -1.5470  0.2802  0.8571
  121OSM   H14C12769   0.751   4.299  10.702 -0.8097 -1.0708 -0.9206
  121OSM    C1312770   0.986   4.343  10.676  0.3526  0.1999  0.3826
  121OSM   H13A12771   1.002   4.311  10.574  2.9561 -1.5246  1.2280
  121OSM   H13B12772   1.069   4.400  10.714  0.4063  0.5056 -0.1815
  121OSM   H13C12773   0.915   4.424  10.664 -1.1742 -1.2903 -1.2549
  121OSM    C1212774   1.031   4.125  10.768  0.7363 -0.0707 -0.4676
  121OSM   H12A12775   1.128   4.167  10.790  0.3096  1.3730 -1.1597
  121OSM   H12B12776   1.046   4.102  10.663  0.8255 -0.8348 -0.2943
  121OSM    C1112777   0.987   3.997  10.851  0.0798  0.6590  0.1802
  121OSM   H11A12778   0.886   3.973  10.810  0.9929 -0.7325 -1.3684
  121OSM   H11B12779   0.969   4.017  10.959 -1.6922 -0.4117  0.1141
  121OSM      P12780   1.219   3.896  10.860 -0.3259  0.2309 -0.3405
  121OSM    O1312781   1.245   4.002  10.967 -0.9366 -0.1610  0.2739
  121OSM    O1412782   1.269   3.761  10.883  0.3659  0.1871 -0.2033
  121OSM    O1112783   1.271   3.947  10.724  0.6112  0.1387  0.1213
  121OSM    O1212784   1.064   3.883  10.833 -0.1762  0.9194  0.5960
  121OSM    C1S12785   1.306   3.860  10.617  0.4294  0.3340 -0.4776
  121OSM    H1S12786   1.213   3.810  10.581  0.2103  0.4817 -0.1268
  121OSM    H1T12787   1.364   3.775  10.658 -1.2450 -0.1361  1.0299
  121OSM     NF12788   1.371   3.851  10.378 -0.1073 -0.8377  0.5641
  121OSM    HNF12789   1.462   3.815  10.358  0.2341 -0.9945  2.2549
  121OSM    C2S12790   1.365   3.936  10.493 -0.2677  0.0441  0.3907
  121OSM    H2S12791   1.305   4.024  10.464  0.9786  0.3812 -1.3105
  121OSM    C3S12792   1.506   3.995  10.531 -0.4896 -0.4366  0.8717
  121OSM    H3S12793   1.580   3.913  10.547 -0.9251 -1.3447 -1.4318
  121OSM     O312794   1.505   4.064  10.654 -0.4312 -0.4893  0.3850
  121OSM    HO312795   1.426   4.044  10.706 -0.7424  2.7116  1.3439
  121OSM    C4S12796   1.555   4.080  10.420 -0.1714  0.3572  0.0788
  121OSM    H4S12797   1.485   4.156  10.386 -2.6620 -1.6453  0.4229
  121OSM    C5S12798   1.675   4.057  10.367  0.0516 -0.0376  0.3385
  121OSM    H5S12799   1.739   3.995  10.430 -1.1270  0.4286  2.0614
  121OSM    C6S12800   1.735   4.124  10.249 -0.3946 -0.1937  0.4563
  121OSM    H6S12801   1.826   4.067  10.218 -1.5905 -0.9352 -1.8859
  121OSM    H6T12802   1.770   4.228  10.268  0.1916 -0.5039  1.1834
  121OSM    C7S12803   1.639   4.130  10.126  0.1020 -0.1100 -0.1586
  121OSM    H7S12804   1.549   4.193  10.147  0.9912  1.5879 -1.1718
  121OSM    H7T12805   1.613   4.024  10.108  1.4947 -0.6291  0.7303
  121OSM    C8S12806   1.713   4.208  10.010 -0.2814  0.2381 -0.2329
  121OSM    H8S12807   1.744   4.310  10.040  2.0353 -0.6079  0.4572
  121OSM    H8T12808   1.633   4.228   9.936 -2.1421  0.0752  1.6386
  121OSM    C9S12809   1.844   4.143   9.959 -0.8572 -0.0288  0.2275
  121OSM    H9S12810   1.832   4.033   9.952 -1.8162  0.0366  0.6257
  121OSM    H9T12811   1.923   4.177  10.030 -0.0177 -0.7686 -0.3263
  121OSM   C10S12812   1.884   4.195   9.818 -0.2225 -0.1156  0.5333
  121OSM   H10S12813   1.994   4.179   9.816 -0.6440 -4.0270 -0.8031
  121OSM   H10T12814   1.856   4.302   9.809 -2.1670 -0.6380 -0.1445
  121OSM   C11S12815   1.815   4.107   9.703  0.3555 -0.8851  0.2768
  121OSM   H11S12816   1.708   4.096   9.728  0.1749  1.2809  0.6457
  121OSM   H11T12817   1.850   4.002   9.712  1.2920 -0.6443 -0.3378
  121OSM   C12S12818   1.827   4.169   9.562 -0.5145  0.3214  0.1798
  121OSM   H12S12819   1.934   4.193   9.548 -0.3767  0.6967  1.6795
  121OSM   H12T12820   1.776   4.267   9.557 -0.1266  0.5017 -0.2814
  121OSM   C13S12821   1.775   4.081   9.447  0.3386  0.4154  0.3342
  121OSM   H13S12822   1.665   4.086   9.456  0.2824  0.8732 -0.5012
  121OSM   H13T12823   1.802   3.974   9.462 -0.9550  0.2283  1.4596
  121OSM   C14S12824   1.820   4.123   9.313 -0.8805  0.2361 -0.0589
  121OSM   H14S12825   1.816   4.233   9.304 -0.6651  0.2758  0.2972
  121OSM   H14T12826   1.748   4.073   9.245  0.3782 -1.7208 -0.0641
  121OSM   C15S12827   1.964   4.073   9.277  0.0706  0.0382 -0.0792
  121OSM   H15S12828   1.973   3.962   9.280  0.3593  0.0698  0.3753
  121OSM   H15T12829   2.037   4.107   9.354  0.6470  1.0456 -1.0426
  121OSM   C16S12830   2.014   4.119   9.143 -0.0133  0.5783  0.1878
  121OSM   H16S12831   2.123   4.100   9.127  0.2070  2.3065 -0.6391
  121OSM   H16T12832   1.992   4.227   9.128 -0.6331  0.4599  0.2275
  121OSM   C17S12833   1.943   4.042   9.036  0.0507  0.1185  0.0320
  121OSM   H17S12834   1.836   4.069   9.026  0.1426  0.5123  0.0722
  121OSM   H17T12835   1.947   3.932   9.048 -1.6042 -0.0768 -0.9800
  121OSM   C18S12836   2.006   4.083   8.902  0.4961  0.3712  0.0505
  121OSM   H18S12837   1.980   4.189   8.886  1.8504  0.6800 -0.2571
  121OSM   H18T12838   1.978   4.016   8.818 -0.5533  0.8202  0.0371
  121OSM   H18U12839   2.116   4.069   8.910  0.6642  1.7723  0.4088
  121OSM    C1F12840   1.268   3.786  10.328 -0.9101 -0.5615  0.2009
  121OSM     OF12841   1.156   3.824  10.352  0.3898  1.0212 -0.1272
  121OSM    C2F12842   1.300   3.666  10.234 -0.0289 -0.3498 -0.9499
  121OSM    H2F12843   1.210   3.601  10.242 -0.2865  0.1345  0.4272
  121OSM    H2G12844   1.376   3.601  10.282 -2.8263 -2.8080  0.4557
  121OSM    C3F12845   1.325   3.704  10.090 -0.1679 -0.1068 -0.1731
  121OSM    H3F12846   1.415   3.768  10.078  0.8655 -0.8841  2.6352
  121OSM    H3G12847   1.241   3.772  10.063 -1.6179 -1.3675  1.0110
  121OSM    C4F12848   1.310   3.588   9.990  0.5632  0.6633 -0.3461
  121OSM    H4F12849   1.226   3.526  10.029  0.4087  0.5633 -0.8303
  121OSM    H4G12850   1.393   3.514   9.987 -0.2809 -0.3128 -0.1399
  121OSM    C5F12851   1.270   3.643   9.855 -0.3598  0.3945  0.0119
  121OSM    H5F12852   1.350   3.706   9.809 -0.3126  0.7436  0.5601
  121OSM    H5G12853   1.195   3.722   9.878  0.2573  1.3837 -1.2560
  121OSM    C6F12854   1.212   3.527   9.767 -0.0131 -0.5988 -0.7538
  121OSM    H6F12855   1.127   3.484   9.824  1.2023 -0.7258  1.0384
  121OSM    H6G12856   1.300   3.460   9.759  0.5021  0.1267 -1.3473
  121OSM    C7F12857   1.163   3.568   9.624  0.4097 -0.2003  0.5612
  121OSM    H7F12858   1.125   3.672   9.629  0.6592 -0.1480  1.5867
  121OSM    H7G12859   1.084   3.505   9.577 -0.4919  1.3255 -0.0393
  121OSM    C8F12860   1.292   3.571   9.536  0.5808  0.3296  0.1832
  121OSM    H8F12861   1.348   3.476   9.548  0.5090  0.4359  1.5204
  121OSM    H8G12862   1.362   3.651   9.568 -0.7792  1.4758  0.4283
  121OSM    C9F12863   1.257   3.621   9.400 -0.5421 -0.2588  0.0570
  121OSM    H9F12864   1.236   3.729   9.396  2.4394  0.5183  1.7243
  121OSM   C10F12865   1.262   3.558   9.287  0.6716  1.0959  0.4729
  121OSM   H10F12866   1.226   3.594   9.190  1.3900 -1.8163 -0.9775
  121OSM   C11F12867   1.302   3.412   9.269  0.5658  0.0465 -0.4741
  121OSM   H11F12868   1.352   3.364   9.356 -0.3168 -0.2640 -0.1231
  121OSM   H11G12869   1.366   3.398   9.179  0.1198 -0.5672 -0.6998
  121OSM   C12F12870   1.181   3.326   9.249  0.4473  0.3382 -0.4413
  121OSM   H12F12871   1.123   3.327   9.344  1.2627  1.3815  0.0631
  121OSM   H12G12872   1.210   3.219   9.242  0.3031  0.0701  1.9946
  121OSM   C13F12873   1.095   3.362   9.125  0.1004  1.3779  0.1977
  121OSM   H13F12874   1.157   3.319   9.043 -1.2542  0.4940 -0.4128
  121OSM   H13G12875   1.079   3.472   9.117  0.5701  1.4271 -0.0786
  121OSM   C14F12876   0.959   3.298   9.139 -0.4690  0.2705 -0.1986
  121OSM   H14F12877   0.910   3.315   9.237 -1.8677 -1.6472 -0.5110
  121OSM   H14G12878   0.944   3.188   9.131 -2.0486  0.2618  2.0953
  121OSM   C15F12879   0.862   3.361   9.037  0.3424  0.1929  0.4815
  121OSM   H15F12880   0.845   3.471   9.046  0.6785  0.4002 -1.0420
  121OSM   H15G12881   0.758   3.322   9.038 -0.2750  1.7384 -0.1700
  121OSM   C16F12882   0.906   3.329   8.888  0.0194 -0.1519  0.2964
  121OSM   H16F12883   0.939   3.225   8.864  1.4619  0.7005 -1.6161
  121OSM   H16G12884   1.003   3.382   8.881  0.3227 -0.6353  0.7980
  121OSM   C17F12885   0.811   3.387   8.785 -0.4970 -0.7661  0.2876
  121OSM   H17F12886   0.706   3.353   8.798 -0.4030 -1.2560 -0.2127
  121OSM   H17G12887   0.845   3.339   8.691  0.7410 -1.5150  1.0908
  121OSM   C18F12888   0.801   3.540   8.770  0.2251  0.1101  0.5859
  121OSM   H18F12889   0.750   3.555   8.673  0.6653  0.3108  0.3837
  121OSM   H18G12890   0.896   3.596   8.763 -0.0348  0.4026 -0.9928
  121OSM   H18H12891   0.748   3.589   8.855 -2.0463  0.0465 -0.7178
  122OSM      N12892   0.096   0.687  10.777  0.0928 -0.3135 -0.3809
  122OSM    C1512893  -0.004   0.585  10.817  0.2738  0.2990 -0.0138
  122OSM   H15A12894   0.038   0.493  10.856  0.7252  0.2750 -0.5585
  122OSM   H15B12895  -0.054   0.544  10.731  1.7177  0.2313 -0.8490
  122OSM   H15C12896  -0.075   0.616  10.893 -0.4729  1.8369 -1.2699
  122OSM    C1412897   0.015   0.821  10.753  0.0302 -0.5433  0.1286
  122OSM   H14A12898  -0.068   0.817  10.683 -0.3344 -0.1708  0.5381
  122OSM   H14B12899   0.070   0.910  10.725 -0.7770  1.1860  3.5386
  122OSM   H14C12900  -0.038   0.837  10.846  1.8487 -0.2794  1.1592
  122OSM    C1312901   0.196   0.711  10.890 -0.6751 -0.5484 -0.3981
  122OSM   H13A12902   0.264   0.789  10.861  0.5856 -1.7229 -0.6882
  122OSM   H13B12903   0.259   0.630  10.922  1.9031  0.9205 -1.4313
  122OSM   H13C12904   0.147   0.747  10.979  1.4715 -2.0994  1.5080
  122OSM    C1212905   0.176   0.647  10.657 -0.2151  0.2089 -0.2532
  122OSM   H12A12906   0.112   0.603  10.582  0.9051 -1.3855 -0.3134
  122OSM   H12B12907   0.236   0.562  10.687  1.0632  1.1126 -0.2325
  122OSM    C1112908   0.271   0.744  10.580 -0.1059  0.2830 -0.7850
  122OSM   H11A12909   0.205   0.823  10.539  0.7167  0.6824 -1.3938
  122OSM   H11B12910   0.303   0.686  10.491 -0.1416  1.4167 -1.5565
  122OSM      P12911   0.518   0.745  10.663  0.1184  0.1984  0.9970
  122OSM    O1312912   0.606   0.819  10.754  0.1194 -0.0759 -0.3363
  122OSM    O1412913   0.518   0.600  10.659  0.0801 -0.1911  0.0700
  122OSM    O1112914   0.547   0.795  10.516 -0.1010 -0.0877  0.3881
  122OSM    O1212915   0.372   0.790  10.674  0.1565  0.4473 -0.3628
  122OSM    C1S12916   0.605   0.921  10.489 -1.0357 -0.5787 -0.4735
  122OSM    H1S12917   0.710   0.926  10.525 -0.0345  0.8244 -3.3719
  122OSM    H1T12918   0.549   0.999  10.546  1.4862  0.8557  0.1704
  122OSM     NF12919   0.716   1.057  10.326 -0.4040 -0.0847  0.4268
  122OSM    HNF12920   0.684   1.152  10.321  1.8069  0.6293 -2.1367
  122OSM    C2S12921   0.625   0.947  10.338 -0.2758  0.2682  0.1466
  122OSM    H2S12922   0.670   0.855  10.296  0.3236  1.9663 -3.3481
  122OSM    C3S12923   0.486   0.965  10.271  0.7885 -0.2175  0.7310
  122OSM    H3S12924   0.444   1.060  10.310  0.3997  1.0227 -2.4125
  122OSM     O312925   0.399   0.847  10.282 -0.0963  0.6317 -0.2209
  122OSM    HO312926   0.432   0.808  10.363  0.1540 -1.8190 -1.4216
  122OSM    C4S12927   0.502   0.985  10.126  0.3542  0.3835 -0.4715
  122OSM    H4S12928   0.520   0.900  10.059 -1.8392 -2.8011  2.6216
  122OSM    C5S12929   0.488   1.107  10.066  0.6339 -0.0842  0.0608
  122OSM    H5S12930   0.460   1.185  10.139 -1.3952 -0.2492 -0.4867
  122OSM    C6S12931   0.508   1.147   9.924  0.1608 -0.0017  1.0550
  122OSM    H6S12932   0.613   1.183   9.919  0.0346  0.3462  0.8694
  122OSM    H6T12933   0.436   1.223   9.888 -1.6230 -1.4264  1.4456
  122OSM    C7S12934   0.504   1.032   9.823 -0.0403  0.0650 -0.7567
  122OSM    H7S12935   0.415   0.971   9.852  0.2490  1.0797  2.7534
  122OSM    H7T12936   0.595   0.971   9.837  0.5526  1.4219  1.8911
  122OSM    C8S12937   0.494   1.079   9.676  0.3305 -0.8437 -0.1453
  122OSM    H8S12938   0.587   1.129   9.642  0.6450  0.1414  1.9696
  122OSM    H8T12939   0.418   1.156   9.651 -0.1145 -0.1229  3.0375
  122OSM    C9S12940   0.483   0.957   9.585 -0.9356 -0.3741 -0.4744
  122OSM    H9S12941   0.405   0.890   9.628 -0.6604 -0.0348  0.5920
  122OSM    H9T12942   0.586   0.917   9.596 -0.7025  0.5246  0.9203
  122OSM   C10S12943   0.446   0.989   9.442 -0.1309 -0.0388 -0.0211
  122OSM   H10S12944   0.513   1.067   9.399  0.3256 -0.4518 -0.0686
  122OSM   H10T12945   0.338   1.015   9.438 -0.6417 -1.8758  1.0105
  122OSM   C11S12946   0.472   0.874   9.340  0.3303  0.0126  0.2364
  122OSM   H11S12947   0.384   0.807   9.353 -0.8989  1.6032  0.4775
  122OSM   H11T12948   0.571   0.829   9.360  0.7276  1.5549  2.0207
  122OSM   C12S12949   0.448   0.918   9.196 -0.9164  0.4867  0.6955
  122OSM   H12S12950   0.522   0.994   9.163  0.4683 -1.9211 -2.3145
  122OSM   H12T12951   0.344   0.954   9.181 -1.3451 -1.2887 -1.0775
  122OSM   C13S12952   0.481   0.808   9.094 -0.5369 -0.4724  0.3114
  122OSM   H13S12953   0.433   0.711   9.118 -2.0844  0.5813  1.6899
  122OSM   H13T12954   0.589   0.783   9.097 -0.1966  0.8786  0.1040
  122OSM   C14S12955   0.457   0.856   8.952 -0.7896 -0.0607 -0.2916
  122OSM   H14S12956   0.517   0.947   8.931  0.5172 -0.7578  0.3230
  122OSM   H14T12957   0.350   0.882   8.936 -0.7200  1.0336  0.9107
  122OSM   C15S12958   0.484   0.746   8.849 -0.3289  1.1530 -0.0633
  122OSM   H15S12959   0.451   0.645   8.880  1.3603  0.1475 -1.3770
  122OSM   H15T12960   0.593   0.739   8.827  0.4299 -0.6098  3.6040
  122OSM   C16S12961   0.414   0.786   8.725  0.1677  0.0021  0.2920
  122OSM   H16S12962   0.438   0.893   8.708  1.6792 -0.0875  1.6856
  122OSM   H16T12963   0.303   0.778   8.732 -0.1300  1.5140 -1.6581
  122OSM   C17S12964   0.448   0.704   8.596  0.2490  0.4446 -1.5026
  122OSM   H17S12965   0.408   0.600   8.597 -0.6817  0.7896 -0.2959
  122OSM   H17T12966   0.558   0.690   8.596  0.0012 -2.2862 -0.3707
  122OSM   C18S12967   0.422   0.780   8.475  0.3057 -0.2362  0.2636
  122OSM   H18S12968   0.486   0.870   8.471  1.1431 -0.8610 -0.6600
  122OSM   H18T12969   0.316   0.811   8.459  0.1433  0.1600  1.9181
  122OSM   H18U12970   0.455   0.730   8.382  0.1856  1.3558 -0.6715
  122OSM    C1F12971   0.853   1.043  10.341  0.8889 -0.5061 -0.4285
  122OSM     OF12972   0.898   0.934  10.363  0.0383  0.0448 -0.2104
  122OSM    C2F12973   0.929   1.171  10.346 -0.7035  1.2243 -0.3885
  122OSM    H2F12974   0.992   1.168  10.438 -0.2078 -1.9593 -0.7216
  122OSM    H2G12975   0.859   1.257  10.352 -1.5449  0.5783 -0.8731
  122OSM    C3F12976   1.016   1.212  10.224  0.0816  0.0784  0.4795
  122OSM    H3F12977   1.090   1.133  10.200 -0.7877 -0.4407 -0.5857
  122OSM    H3G12978   1.063   1.306  10.259 -0.1814  0.6226 -0.6072
  122OSM    C4F12979   0.926   1.232  10.095 -0.1446 -0.4191 -0.5554
  122OSM    H4F12980   0.880   1.333  10.099  1.4483  0.2989  1.2472
  122OSM    H4G12981   0.842   1.161  10.085 -0.0950 -0.6638  0.6688
  122OSM    C5F12982   0.999   1.238   9.952  0.2620 -0.1804  0.3585
  122OSM    H5F12983   1.073   1.155   9.943  2.9738  2.1711 -0.5331
  122OSM    H5G12984   1.049   1.337   9.945 -0.1948 -0.0659 -1.6887
  122OSM    C6F12985   0.883   1.208   9.845 -0.1181 -0.0614 -0.6056
  122OSM    H6F12986   0.820   1.299   9.838 -0.1039 -0.0704 -0.8801
  122OSM    H6G12987   0.815   1.128   9.880  0.1294  0.0942  0.2529
  122OSM    C7F12988   0.932   1.161   9.710 -0.2942  0.3413  0.2140
  122OSM    H7F12989   0.847   1.132   9.644  1.0598 -1.2119 -0.9311
  122OSM    H7G12990   0.988   1.069   9.736 -0.1285  0.6166  0.8402
  122OSM    C8F12991   1.024   1.257   9.620 -0.4584 -0.0255  0.2955
  122OSM    H8F12992   1.058   1.200   9.530 -0.7923 -1.8654  1.2812
  122OSM    H8G12993   1.110   1.297   9.678 -1.4349 -0.4564  2.1201
  122OSM    C9F12994   0.947   1.371   9.551  0.7953 -0.0321  0.5385
  122OSM    H9F12995   0.932   1.468   9.601 -1.5459 -0.8979  1.6781
  122OSM   C10F12996   0.881   1.383   9.439  0.2963 -0.0833  0.7388
  122OSM   H10F12997   0.819   1.470   9.413 -0.7276 -1.1193 -0.4365
  122OSM   C11F12998   0.867   1.280   9.332  0.3055  0.0206  0.2014
  122OSM   H11F12999   0.758   1.257   9.334  0.4643 -0.6778  1.6995
  122OSM   H11G13000   0.921   1.185   9.353  2.8503  0.8930 -1.8204
  122OSM   C12F13001   0.896   1.319   9.187  0.1411  0.2715 -0.4079
  122OSM   H12F13002   1.000   1.349   9.163  0.6726 -0.7870  0.4927
  122OSM   H12G13003   0.821   1.398   9.165 -0.9140 -0.5592  0.0852
  122OSM   C13F13004   0.870   1.198   9.095  0.0397  0.2755 -0.5828
  122OSM   H13F13005   0.769   1.155   9.114 -0.8295  2.4008 -0.1683
  122OSM   H13G13006   0.951   1.124   9.114  0.3245  0.4686 -1.0229
  122OSM   C14F13007   0.868   1.232   8.946  0.0526  0.4779  0.6864
  122OSM   H14F13008   0.973   1.251   8.917 -0.3301 -0.2934 -1.3826
  122OSM   H14G13009   0.796   1.310   8.913 -0.9903 -0.5426  0.4413
  122OSM   C15F13010   0.820   1.103   8.870 -0.2377 -0.0982 -0.6127
  122OSM   H15F13011   0.736   1.070   8.935  1.0126 -0.6440  0.7866
  122OSM   H15G13012   0.889   1.016   8.875  0.9831  0.7362 -2.0967
  122OSM   C16F13013   0.778   1.126   8.725 -0.7652  0.5721  0.5799
  122OSM   H16F13014   0.858   1.184   8.675 -0.9013  0.2953  0.0369
  122OSM   H16G13015   0.683   1.184   8.720 -1.6697 -0.7425  1.8116
  122OSM   C17F13016   0.751   1.003   8.638  0.2114 -0.6528  0.2178
  122OSM   H17F13017   0.664   0.951   8.682 -0.0978 -0.9242 -0.6954
  122OSM   H17G13018   0.841   0.939   8.651  1.5968  1.2730  0.4650
  122OSM   C18F13019   0.725   1.028   8.485 -0.2057 -0.1700  0.1320
  122OSM   H18F13020   0.696   0.933   8.436 -0.8536 -1.5772  3.0234
  122OSM   H18G13021   0.817   1.071   8.439 -2.1275  0.7541 -3.1425
  122OSM   H18H13022   0.644   1.100   8.460  1.2425  1.1261 -1.1157
  123OSM      N13023   4.954   6.772   6.234  0.0336  0.4393 -0.1528
  123OSM    C1513024   4.816   6.731   6.272 -0.0756  0.1459  0.0611
  123OSM   H15A13025   4.750   6.771   6.196  1.6429 -1.2491 -2.3086
  123OSM   H15B13026   4.796   6.784   6.364  1.4580  1.9056 -0.5449
  123OSM   H15C13027   4.804   6.624   6.268  0.6586  0.0747 -0.1921
  123OSM    C1413028   4.962   6.921   6.249 -0.4469  0.0792  0.1164
  123OSM   H14A13029   5.051   6.972   6.215 -1.4214  0.7608 -1.5450
  123OSM   H14B13030   4.922   6.940   6.348 -2.3155  0.1902 -0.6271
  123OSM   H14C13031   4.888   6.958   6.180  0.7839  0.8408 -0.8337
  123OSM    C1313032   5.053   6.716   6.320 -0.8226  0.0019  0.5126
  123OSM   H13A13033   5.151   6.721   6.276 -1.0527 -0.4359 -0.0628
  123OSM   H13B13034   5.036   6.609   6.331  0.3949 -0.3138 -0.5261
  123OSM   H13C13035   5.072   6.769   6.412 -0.8771  0.5980  0.1809
  123OSM    C1213036   4.981   6.746   6.090 -0.8774 -0.2801  0.2428
  123OSM   H12A13037   4.915   6.811   6.034 -0.1996 -1.4628 -2.0696
  123OSM   H12B13038   4.946   6.645   6.070 -2.1619  0.0157  0.8544
  123OSM    C1113039   5.123   6.750   6.024  0.7273 -0.4976  0.1193
  123OSM   H11A13040   5.169   6.849   6.043 -0.4293  0.3279 -1.1733
  123OSM   H11B13041   5.133   6.759   5.914  1.8930  1.7005  0.3683
  123OSM      P13042   5.152   6.496   6.026  0.2285  0.2100  0.3321
  123OSM    O1313043   5.030   6.448   6.096  0.0271 -0.0716 -0.5292
  123OSM    O1413044   5.149   6.499   5.875  0.1814 -0.2606 -0.1676
  123OSM    O1113045   5.275   6.411   6.067  0.0072  0.4560 -0.1358
  123OSM    O1213046   5.194   6.640   6.079  0.0925 -0.3072 -0.2751
  123OSM    C1S13047   5.368   6.444   6.166 -0.1102 -0.5284  0.7392
  123OSM    H1S13048   5.387   6.553   6.170  1.7497 -0.6691 -1.6894
  123OSM    H1T13049   5.473   6.410   6.159  0.2129  0.5220  0.2585
  123OSM     NF13050   5.400   6.405   6.407  0.3185 -0.4772  0.1706
  123OSM    HNF13051   5.465   6.333   6.431  0.5363 -1.1479 -2.1420
  123OSM    C2S13052   5.316   6.373   6.296 -0.1697  0.3036  0.3901
  123OSM    H2S13053   5.211   6.403   6.319 -0.8898 -1.9683  0.3252
  123OSM    C3S13054   5.309   6.215   6.275  0.5674 -0.7396 -0.0986
  123OSM    H3S13055   5.412   6.178   6.256  0.4576 -0.7302 -0.7354
  123OSM     O313056   5.224   6.151   6.176  0.1117  0.6232  0.2096
  123OSM    HO313057   5.207   6.220   6.112 -1.6433 -2.7979 -3.4386
  123OSM    C4S13058   5.257   6.151   6.403  0.4721  0.5699 -1.2108
  123OSM    H4S13059   5.332   6.096   6.462 -1.0945 -0.1407  0.2025
  123OSM    C5S13060   5.133   6.153   6.455  0.2725  0.6263  0.6398
  123OSM    H5S13061   5.059   6.218   6.405  0.4202 -1.2775 -2.3387
  123OSM    C6S13062   5.092   6.078   6.581  0.2946 -0.0074  0.4883
  123OSM    H6S13063   5.166   6.008   6.627  1.3928  2.9528  3.6359
  123OSM    H6T13064   4.994   6.030   6.558 -1.2400  2.7385  0.9298
  123OSM    C7S13065   5.064   6.179   6.697  0.4298 -0.1367 -1.0746
  123OSM    H7S13066   4.969   6.231   6.673 -0.1553 -0.5766  0.1752
  123OSM    H7T13067   5.146   6.252   6.710  1.1693 -1.2343  1.0933
  123OSM    C8S13068   5.038   6.102   6.831 -0.8054  0.6497 -0.4690
  123OSM    H8S13069   5.121   6.030   6.849 -1.5676 -1.0179 -3.1645
  123OSM    H8T13070   4.948   6.037   6.826  0.0240 -0.5905  0.2594
  123OSM    C9S13071   5.021   6.208   6.941  0.2909  0.3150  0.4800
  123OSM    H9S13072   4.918   6.248   6.935  0.4944  0.7636 -0.1937
  123OSM    H9T13073   5.093   6.293   6.950  0.4592  0.0072  2.4419
  123OSM   C10S13074   5.047   6.136   7.077  0.4174  0.5794  0.2209
  123OSM   H10S13075   5.148   6.091   7.070 -0.2915 -1.4244  1.7815
  123OSM   H10T13076   4.975   6.051   7.081 -1.5460  2.1488 -0.1459
  123OSM   C11S13077   5.027   6.230   7.200  0.5041 -0.5196  0.0853
  123OSM   H11S13078   4.933   6.290   7.191  1.4335  1.0070  0.2020
  123OSM   H11T13079   5.112   6.302   7.196  0.9186 -0.9180  1.4502
  123OSM   C12S13080   5.030   6.160   7.339 -0.0816 -0.2058  0.4433
  123OSM   H12S13081   5.119   6.094   7.344 -0.6486 -1.1355 -1.0810
  123OSM   H12T13082   4.941   6.094   7.353  0.4078 -0.9842 -0.0186
  123OSM   C13S13083   5.038   6.263   7.458 -0.0906 -0.0324  0.3624
  123OSM   H13S13084   4.952   6.333   7.455 -0.3012 -0.2805  0.4755
  123OSM   H13T13085   5.125   6.327   7.431  0.6559 -0.5550  1.4712
  123OSM   C14S13086   5.064   6.204   7.589 -0.1912 -0.2783 -0.5819
  123OSM   H14S13087   5.160   6.151   7.569 -0.4764 -0.3373 -1.8975
  123OSM   H14T13088   4.982   6.133   7.615  0.6930 -0.2541  2.7961
  123OSM   C15S13089   5.078   6.300   7.708  0.4141 -0.0659 -0.7970
  123OSM   H15S13090   4.985   6.354   7.737  0.3338 -0.8710  0.5626
  123OSM   H15T13091   5.146   6.384   7.686 -1.1942  1.4245 -0.3572
  123OSM   C16S13092   5.122   6.232   7.839 -1.3930  0.0926 -0.1059
  123OSM   H16S13093   5.222   6.186   7.821 -0.9540 -0.4763  3.0804
  123OSM   H16T13094   5.059   6.144   7.864 -0.7273 -0.0360  1.2199
  123OSM   C17S13095   5.128   6.331   7.961  0.4028 -0.1479  0.8326
  123OSM   H17S13096   5.033   6.388   7.950  1.4670  1.6701  0.6410
  123OSM   H17T13097   5.202   6.411   7.938 -1.7214  1.2908 -1.6159
  123OSM   C18S13098   5.147   6.255   8.093  0.6498 -0.2606 -0.0855
  123OSM   H18S13099   5.133   6.336   8.168  2.2348 -0.0728  0.0382
  123OSM   H18T13100   5.241   6.201   8.117 -0.9042 -2.5815  1.2391
  123OSM   H18U13101   5.062   6.183   8.098 -0.1833  0.7230  0.3132
  123OSM    C1F13102   5.396   6.529   6.464 -0.4306  0.1221 -0.2544
  123OSM     OF13103   5.322   6.614   6.420 -0.7463 -0.6952  0.0812
  123OSM    C2F13104   5.493   6.544   6.574 -0.3225 -0.5013 -0.1300
  123OSM    H2F13105   5.588   6.503   6.536  0.0157  0.6843 -0.6304
  123OSM    H2G13106   5.458   6.496   6.667  0.1825  1.1321  0.9412
  123OSM    C3F13107   5.508   6.688   6.619  0.4090 -0.4227 -0.4614
  123OSM    H3F13108   5.408   6.731   6.645  1.0870  0.7332  0.3235
  123OSM    H3G13109   5.546   6.758   6.542 -2.2460 -1.0271 -2.4770
  123OSM    C4F13110   5.582   6.712   6.749 -0.3996  0.1077  0.0644
  123OSM    H4F13111   5.692   6.707   6.739 -0.4000 -3.0479  0.7280
  123OSM    H4G13112   5.560   6.628   6.818  2.3146 -1.0275 -0.3452
  123OSM    C5F13113   5.550   6.848   6.819 -0.0955  1.1176  0.3018
  123OSM    H5F13114   5.447   6.843   6.861 -0.2242  0.5540 -0.0684
  123OSM    H5G13115   5.571   6.919   6.737  0.0864 -0.1012 -0.7343
  123OSM    C6F13116   5.655   6.889   6.924  0.6376  0.5618 -0.0229
  123OSM    H6F13117   5.621   6.983   6.973  0.3545  0.9999 -1.0421
  123OSM    H6G13118   5.755   6.904   6.877  0.3809 -0.7702 -1.0412
  123OSM    C7F13119   5.673   6.781   7.036 -0.4929  0.4957 -0.0480
  123OSM    H7F13120   5.747   6.709   6.993 -1.3160 -0.9540  0.8868
  123OSM    H7G13121   5.582   6.724   7.063 -0.3112 -0.1920 -0.8458
  123OSM    C8F13122   5.735   6.851   7.161  0.2795  0.8858 -0.1448
  123OSM    H8F13123   5.666   6.930   7.199 -1.9036 -0.5538 -0.9553
  123OSM    H8G13124   5.825   6.907   7.128 -0.4998  0.4638 -3.3070
  123OSM    C9F13125   5.759   6.756   7.272  0.2799  0.1770 -0.1224
  123OSM    H9F13126   5.742   6.652   7.240  0.6894  1.0914 -3.7617
  123OSM   C10F13127   5.784   6.781   7.397  0.0582 -0.3812 -0.1423
  123OSM   H10F13128   5.788   6.699   7.470  0.4807  1.4055  1.9988
  123OSM   C11F13129   5.801   6.912   7.471 -0.6846  0.2338  0.6918
  123OSM   H11F13130   5.698   6.949   7.491 -0.7847  0.1614  0.3098
  123OSM   H11G13131   5.866   6.984   7.416  1.2573 -1.7990  0.1817
  123OSM   C12F13132   5.847   6.888   7.623 -0.7049 -0.1804  0.1267
  123OSM   H12F13133   5.950   6.850   7.608 -0.4297  0.6324 -0.0967
  123OSM   H12G13134   5.780   6.811   7.667 -2.7609  1.2048 -0.4127
  123OSM   C13F13135   5.832   7.016   7.706 -0.0918  0.0534 -0.4118
  123OSM   H13F13136   5.730   7.061   7.712 -1.1546 -2.3042  0.7812
  123OSM   H13G13137   5.900   7.094   7.666  2.4316 -1.8885 -0.1027
  123OSM   C14F13138   5.864   6.986   7.858  0.0669  0.4336  0.7641
  123OSM   H14F13139   5.788   6.907   7.875 -0.2052  0.5166 -0.0649
  123OSM   H14G13140   5.844   7.073   7.925  0.0320  0.1471  1.1318
  123OSM   C15F13141   6.005   6.919   7.894  0.0919  0.3443 -0.7998
  123OSM   H15F13142   6.074   7.000   7.859  1.5689 -1.5527 -2.5166
  123OSM   H15G13143   6.027   6.822   7.845 -1.2427 -0.6547  0.4728
  123OSM   C16F13144   6.026   6.921   8.044  0.1869 -0.3340 -0.3576
  123OSM   H16F13145   5.964   6.851   8.103  1.3547 -1.2320 -0.1340
  123OSM   H16G13146   6.000   7.023   8.079 -3.3887 -1.1748 -0.1987
  123OSM   C17F13147   6.171   6.912   8.097  0.1468  0.3477  0.3494
  123OSM   H17F13148   6.221   6.992   8.038 -4.0330  2.8570 -0.2324
  123OSM   H17G13149   6.201   6.808   8.072 -0.4468  0.5337 -1.2724
  123OSM   C18F13150   6.189   6.939   8.249 -0.7811 -0.2390  0.1761
  123OSM   H18F13151   6.151   7.040   8.277  2.1157  1.3379 -1.1754
  123OSM   H18G13152   6.294   6.923   8.280 -0.2434 -2.6834 -2.5210
  123OSM   H18H13153   6.128   6.859   8.296 -1.9353 -0.5522 -1.7408
  124OSM      N13154   1.441   4.804   6.311 -0.0350  0.2169 -0.1605
  124OSM    C1513155   1.462   4.694   6.216  0.1342  0.3335  0.3803
  124OSM   H15A13156   1.371   4.639   6.198 -0.8651  1.6968  1.0711
  124OSM   H15B13157   1.525   4.611   6.247 -1.6426 -1.1239  0.2328
  124OSM   H15C13158   1.504   4.732   6.124 -1.3831 -0.8845 -0.8587
  124OSM    C1413159   1.352   4.915   6.259  0.0912  0.1573  0.1115
  124OSM   H14A13160   1.400   4.956   6.171  0.2715  1.7076  0.8943
  124OSM   H14B13161   1.347   5.000   6.326 -0.5011 -1.1241  1.7496
  124OSM   H14C13162   1.257   4.871   6.235 -0.1375  1.7775 -2.3554
  124OSM    C1313163   1.368   4.749   6.428  0.0608  0.5573  0.0008
  124OSM   H13A13164   1.433   4.684   6.484 -0.4628  0.5063  0.5627
  124OSM   H13B13165   1.286   4.688   6.394  1.0790 -0.0185 -1.5066
  124OSM   H13C13166   1.327   4.826   6.492  0.4660  1.0696 -0.3447
  124OSM    C1213167   1.581   4.870   6.345  0.0574 -0.5392  0.7627
  124OSM   H12A13168   1.569   4.977   6.353  2.0090 -0.1387 -1.0131
  124OSM   H12B13169   1.634   4.865   6.252 -0.7142 -0.4150  0.3046
  124OSM    C1113170   1.664   4.814   6.465 -0.0426  1.2118 -0.2668
  124OSM   H11A13171   1.609   4.840   6.558 -2.4675 -0.8897 -0.9641
  124OSM   H11B13172   1.759   4.871   6.473  0.1740  0.7217  0.8645
  124OSM      P13173   1.767   4.594   6.366 -0.0739 -0.2542  0.2422
  124OSM    O1313174   1.685   4.517   6.276 -0.2004 -0.1948  0.0862
  124OSM    O1413175   1.872   4.688   6.313  0.0452 -0.1835  0.7887
  124OSM    O1113176   1.839   4.491   6.456 -0.0858 -0.1991  0.1346
  124OSM    O1213177   1.676   4.673   6.471  0.2407  0.4032 -0.4435
  124OSM    C1S13178   1.892   4.528   6.586 -0.1053  0.0382  0.1289
  124OSM    H1S13179   1.829   4.603   6.640 -0.4266  0.5287 -0.8944
  124OSM    H1T13180   1.994   4.565   6.565 -0.6454  0.7214 -1.5250
  124OSM     NF13181   1.931   4.454   6.818 -0.1350  0.0821 -0.1248
  124OSM    HNF13182   2.026   4.461   6.847  0.0960  1.7478 -1.1396
  124OSM    C2S13183   1.905   4.406   6.682  0.3889 -0.4004 -0.5545
  124OSM    H2S13184   1.804   4.360   6.687  0.4821 -0.4862  1.1385
  124OSM    C3S13185   1.999   4.298   6.634 -0.6048 -0.4495  0.1095
  124OSM    H3S13186   2.103   4.332   6.615 -0.1172  0.1041  3.2660
  124OSM     O313187   1.958   4.236   6.509  0.4263 -0.4909 -0.0288
  124OSM    HO313188   1.887   4.280   6.462 -1.3865 -2.5571  0.5787
  124OSM    C4S13189   2.009   4.179   6.730 -0.7554  0.4262  0.2728
  124OSM    H4S13190   1.921   4.113   6.738  0.9284 -1.8261  1.5949
  124OSM    C5S13191   2.117   4.126   6.795 -0.0985 -0.8432 -0.2156
  124OSM    H5S13192   2.219   4.167   6.784 -0.7798  0.4180 -2.2569
  124OSM    C6S13193   2.112   4.004   6.886 -0.2399 -0.6364  0.0276
  124OSM    H6S13194   2.185   3.928   6.851  0.1725 -0.0656 -0.3777
  124OSM    H6T13195   2.009   3.964   6.888  0.1120 -1.5068  1.2651
  124OSM    C7S13196   2.155   4.053   7.024 -1.0420 -0.2125 -0.2929
  124OSM    H7S13197   2.083   4.130   7.058 -2.1844 -0.8116 -1.2849
  124OSM    H7T13198   2.260   4.090   7.025 -0.4890 -1.6274 -1.3894
  124OSM    C8S13199   2.145   3.943   7.129  0.6054 -0.3167  0.1136
  124OSM    H8S13200   2.216   3.863   7.098 -0.4592 -0.9089 -0.9218
  124OSM    H8T13201   2.043   3.901   7.146 -0.1544  1.0448 -0.8826
  124OSM    C9S13202   2.206   4.002   7.260  0.1547 -0.3213 -0.0379
  124OSM    H9S13203   2.155   4.099   7.275  1.8248  0.4526  0.9465
  124OSM    H9T13204   2.314   4.020   7.240  1.1910 -0.2195  4.5772
  124OSM   C10S13205   2.194   3.915   7.389  0.0717 -0.0843 -0.1155
  124OSM   H10S13206   2.202   3.808   7.362 -0.3073  0.7356 -4.1618
  124OSM   H10T13207   2.100   3.938   7.443 -0.8451 -1.1333 -1.2035
  124OSM   C11S13208   2.302   3.951   7.495 -0.0069  0.6229  0.3143
  124OSM   H11S13209   2.288   4.059   7.513  0.7986  0.5572  1.5046
  124OSM   H11T13210   2.402   3.924   7.455  0.0866  2.0226 -0.4419
  124OSM   C12S13211   2.282   3.884   7.634  0.0693 -0.1191  0.0763
  124OSM   H12S13212   2.283   3.773   7.630 -1.9203 -0.1589  0.0197
  124OSM   H12T13213   2.183   3.912   7.675  0.0888  0.6467 -0.3807
  124OSM   C13S13214   2.389   3.921   7.733 -0.0393 -0.2003 -0.1097
  124OSM   H13S13215   2.379   4.026   7.768 -3.6452 -0.9655  1.5739
  124OSM   H13T13216   2.489   3.921   7.685 -0.1591 -2.0643 -0.4358
  124OSM   C14S13217   2.402   3.837   7.858 -0.5543  0.5934  0.4246
  124OSM   H14S13218   2.308   3.856   7.914 -0.5830 -0.4491  0.7715
  124OSM   H14T13219   2.486   3.870   7.924  2.0026 -2.3620 -1.0566
  124OSM   C15S13220   2.432   3.689   7.826 -0.1768 -1.0497 -0.9884
  124OSM   H15S13221   2.513   3.679   7.752 -0.1114 -2.2064 -0.7784
  124OSM   H15T13222   2.342   3.641   7.781  0.0647 -2.8303  0.3188
  124OSM   C16S13223   2.471   3.619   7.955 -0.1513 -0.2338 -0.6330
  124OSM   H16S13224   2.557   3.664   8.008  0.6411 -2.6718  0.3161
  124OSM   H16T13225   2.501   3.515   7.928  0.4437 -0.2153 -0.0413
  124OSM   C17S13226   2.357   3.601   8.063  0.2386 -0.1342  0.2877
  124OSM   H17S13227   2.280   3.541   8.009  0.3498 -0.0531  0.0349
  124OSM   H17T13228   2.300   3.694   8.086  0.1301 -0.1989  0.2837
  124OSM   C18S13229   2.404   3.521   8.183 -0.3774  0.5029 -0.1332
  124OSM   H18S13230   2.456   3.594   8.249  0.6955  0.7960 -1.2776
  124OSM   H18T13231   2.468   3.437   8.150 -0.8860  0.9806 -2.5399
  124OSM   H18U13232   2.323   3.467   8.237 -0.0097  0.6538  0.5829
  124OSM    C1F13233   1.834   4.504   6.899  1.2604  0.6781  0.5337
  124OSM     OF13234   1.709   4.516   6.868 -1.0997  0.2276  0.1872
  124OSM    C2F13235   1.879   4.558   7.030 -0.0719 -0.8169  0.0829
  124OSM    H2F13236   1.795   4.588   7.095  0.2507 -0.0297  0.1462
  124OSM    H2G13237   1.954   4.637   7.009  1.1698 -1.9328  0.1980
  124OSM    C3F13238   1.940   4.455   7.127 -0.1868  0.6674 -0.0879
  124OSM    H3F13239   2.038   4.419   7.091 -0.3795  1.7986 -1.8323
  124OSM    H3G13240   1.874   4.365   7.131 -0.2626  0.7173 -0.2329
  124OSM    C4F13241   1.967   4.508   7.271 -0.2075 -0.5513  0.8803
  124OSM    H4F13242   1.879   4.549   7.325 -0.7382 -3.1855  2.2196
  124OSM    H4G13243   2.035   4.593   7.251 -0.0698 -0.7508  0.4770
  124OSM    C5F13244   2.029   4.407   7.364 -0.1242  0.1505 -0.3262
  124OSM    H5F13245   2.122   4.365   7.320  0.5001 -0.5454  1.5811
  124OSM    H5G13246   1.959   4.324   7.387  2.4610 -2.0684  0.0909
  124OSM    C6F13247   2.069   4.457   7.507  0.0876  1.2563 -0.0584
  124OSM    H6F13248   1.994   4.508   7.572  1.0449  2.1873  0.3394
  124OSM    H6G13249   2.160   4.517   7.485  0.9164 -0.4553 -1.5179
  124OSM    C7F13250   2.127   4.342   7.596 -0.2597  0.6670 -0.1125
  124OSM    H7F13251   2.203   4.292   7.532  0.3400 -0.4430  1.4149
  124OSM    H7G13252   2.050   4.265   7.617  0.6798 -0.3817 -0.3934
  124OSM    C8F13253   2.192   4.380   7.725  1.1210 -0.1382  0.1536
  124OSM    H8F13254   2.250   4.474   7.709 -0.0970  0.6081 -0.0476
  124OSM    H8G13255   2.268   4.303   7.751  0.3264 -1.0459 -0.1904
  124OSM    C9F13256   2.085   4.404   7.835 -0.0550  0.3059 -0.1657
  124OSM    H9F13257   2.007   4.471   7.797  1.0682  3.3715  2.5247
  124OSM   C10F13258   2.084   4.369   7.966 -0.0763 -0.4366  0.1069
  124OSM   H10F13259   1.999   4.397   8.029 -0.0081  0.5471 -0.2198
  124OSM   C11F13260   2.191   4.299   8.043 -0.5594 -0.9718 -0.2518
  124OSM   H11F13261   2.224   4.361   8.129 -0.1791 -0.0790 -1.0238
  124OSM   H11G13262   2.281   4.294   7.977 -1.0284 -1.7356 -0.8516
  124OSM   C12F13263   2.158   4.155   8.070  0.0144 -0.6268 -0.2137
  124OSM   H12F13264   2.148   4.094   7.977  1.3476  0.3123 -1.0267
  124OSM   H12G13265   2.063   4.150   8.127  0.5492  0.6196  0.8273
  124OSM   C13F13266   2.273   4.095   8.151 -0.3951  0.5218  0.0188
  124OSM   H13F13267   2.330   4.169   8.212  0.8403 -1.1627  0.9992
  124OSM   H13G13268   2.352   4.069   8.077 -0.1817 -0.7147  0.6548
  124OSM   C14F13269   2.255   3.964   8.237 -0.5015 -0.3787 -0.2668
  124OSM   H14F13270   2.344   3.900   8.256 -1.5086 -1.9993 -0.8074
  124OSM   H14G13271   2.202   3.896   8.167  1.0600 -0.5690 -1.3273
  124OSM   C15F13272   2.168   3.995   8.361  0.3522 -0.0361 -0.3061
  124OSM   H15F13273   2.060   3.996   8.333  0.1459  0.6976  0.4733
  124OSM   H15G13274   2.194   4.095   8.403  1.0135  0.0453 -0.8938
  124OSM   C16F13275   2.194   3.887   8.473  1.3793  0.5863  0.1408
  124OSM   H16F13276   2.185   3.790   8.420  1.0038 -0.9547  2.8710
  124OSM   H16G13277   2.104   3.889   8.538  0.3414  1.2034 -1.2425
  124OSM   C17F13278   2.320   3.917   8.556  0.2690  0.0114  0.0840
  124OSM   H17F13279   2.404   3.945   8.490  0.0036  2.3662  0.6460
  124OSM   H17G13280   2.341   3.829   8.621  0.9010 -0.0709 -0.2235
  124OSM   C18F13281   2.305   4.034   8.648 -0.1367  0.1812  0.3319
  124OSM   H18F13282   2.391   4.048   8.716  0.3662  1.1838 -0.4831
  124OSM   H18G13283   2.210   4.037   8.705  0.8371  0.3712  1.9949
  124OSM   H18H13284   2.301   4.122   8.579  1.8892 -1.4845 -2.0652
  125OSM      N13285   0.902   5.229   6.102 -0.4482 -0.3554 -0.2051
  125OSM    C1513286   0.829   5.190   6.225 -0.6292 -0.1896  0.3887
  125OSM   H15A13287   0.824   5.271   6.296 -0.8539  1.3038 -1.2645
  125OSM   H15B13288   0.866   5.105   6.280  0.2355  0.2657  0.5327
  125OSM   H15C13289   0.727   5.161   6.205 -0.8780  1.2477 -0.5671
  125OSM    C1413290   1.049   5.235   6.140  0.3612 -0.5364 -0.8175
  125OSM   H14A13291   1.077   5.310   6.213 -0.7442 -3.0945  2.4634
  125OSM   H14B13292   1.109   5.251   6.051 -0.4661  0.8797 -1.1550
  125OSM   H14C13293   1.070   5.137   6.179 -0.7551 -0.1236  0.9074
  125OSM    C1313294   0.889   5.121   6.000 -0.5040 -0.6385  0.4137
  125OSM   H13A13295   0.786   5.095   5.983 -0.5597  0.5896 -1.4067
  125OSM   H13B13296   0.938   5.035   6.042  0.2882  0.4567  1.8611
  125OSM   H13C13297   0.941   5.152   5.911 -0.0353  1.3449  1.3019
  125OSM    C1213298   0.857   5.352   6.039 -0.5411 -0.0216  0.0439
  125OSM   H12A13299   0.917   5.368   5.951  1.7095 -2.9757  0.8641
  125OSM   H12B13300   0.861   5.438   6.103  0.6367 -1.0554  1.4136
  125OSM    C1113301   0.715   5.354   5.983  0.0042 -0.0053  0.1365
  125OSM   H11A13302   0.703   5.276   5.905 -0.3662  0.5464 -0.3561
  125OSM   H11B13303   0.698   5.453   5.936  2.3410  0.0263 -0.7706
  125OSM      P13304   0.557   5.460   6.149 -0.1652 -0.2527 -0.1364
  125OSM    O1313305   0.656   5.558   6.193  0.0037  0.3027 -0.1109
  125OSM    O1413306   0.454   5.503   6.049 -0.2194 -0.0790 -0.0177
  125OSM    O1113307   0.489   5.402   6.272 -0.2302 -0.3067 -0.2113
  125OSM    O1213308   0.621   5.326   6.090 -0.2688 -0.4537 -0.3591
  125OSM    C1S13309   0.548   5.315   6.366 -0.2385  0.1406  0.4428
  125OSM    H1S13310   0.655   5.343   6.369 -0.7926  3.0117 -2.1494
  125OSM    H1T13311   0.526   5.214   6.324 -1.3338  0.4609  0.2160
  125OSM     NF13312   0.592   5.273   6.597  0.8367 -0.5306  0.0293
  125OSM    HNF13313   0.597   5.173   6.599 -0.9317 -0.6566 -0.4392
  125OSM    C2S13314   0.493   5.330   6.508 -0.0460 -0.1602 -0.2957
  125OSM    H2S13315   0.488   5.438   6.532  1.7662  0.0767 -0.8195
  125OSM    C3S13316   0.356   5.269   6.524  0.2643  0.1209 -0.7187
  125OSM    H3S13317   0.373   5.161   6.543 -0.5886  0.5292  3.1167
  125OSM     O313318   0.264   5.271   6.418  0.3053 -0.1689  0.5928
  125OSM    HO313319   0.302   5.323   6.346  0.2207 -2.2426 -1.0595
  125OSM    C4S13320   0.295   5.310   6.650  0.5885  0.3092  0.1411
  125OSM    H4S13321   0.342   5.264   6.737  2.4482 -0.5089 -1.2231
  125OSM    C5S13322   0.207   5.405   6.665  0.7762 -0.9488 -0.1229
  125OSM    H5S13323   0.155   5.452   6.580  2.6124  2.6654  0.5265
  125OSM    C6S13324   0.152   5.462   6.797 -0.8219 -0.3149  0.0135
  125OSM    H6S13325   0.041   5.470   6.797 -0.8932 -1.0931  0.9511
  125OSM    H6T13326   0.172   5.571   6.805  2.0787 -0.7160 -0.7452
  125OSM    C7S13327   0.196   5.378   6.924  0.0742 -1.0236  0.2730
  125OSM    H7S13328   0.305   5.400   6.928 -0.0555 -0.3662  0.3515
  125OSM    H7T13329   0.189   5.268   6.918  1.1811 -1.0639 -1.0533
  125OSM    C8S13330   0.160   5.444   7.055  0.1182 -0.1353 -0.3408
  125OSM    H8S13331   0.058   5.414   7.087  0.3764  0.1404  0.7859
  125OSM    H8T13332   0.166   5.555   7.054 -0.2487 -0.1127 -0.1227
  125OSM    C9S13333   0.258   5.391   7.160  0.0361  0.2060 -0.1102
  125OSM    H9S13334   0.363   5.390   7.123 -0.2828 -1.2270 -1.0263
  125OSM    H9T13335   0.232   5.285   7.181 -0.5737  0.5474  0.9470
  125OSM   C10S13336   0.241   5.457   7.299  0.2572  0.8249  0.6115
  125OSM   H10S13337   0.139   5.422   7.326  0.3962 -1.5774 -1.5908
  125OSM   H10T13338   0.239   5.567   7.284  0.2416  0.7413 -0.0288
  125OSM   C11S13339   0.340   5.400   7.408 -0.2405 -0.6129  0.2583
  125OSM   H11S13340   0.438   5.425   7.362  0.2933  0.0982  1.6908
  125OSM   H11T13341   0.353   5.290   7.418 -1.0599 -1.0250 -2.3918
  125OSM   C12S13342   0.323   5.464   7.545  0.5608  0.1132  0.2705
  125OSM   H12S13343   0.229   5.415   7.579  1.5370 -1.2345  1.1562
  125OSM   H12T13344   0.305   5.573   7.535 -2.2340 -0.3459 -0.5830
  125OSM   C13S13345   0.444   5.444   7.640 -0.1216  0.4389 -0.0066
  125OSM   H13S13346   0.429   5.510   7.729  0.4459 -0.3644  0.6921
  125OSM   H13T13347   0.543   5.462   7.593  0.2792 -3.0575 -0.7174
  125OSM   C14S13348   0.464   5.299   7.696  0.1567  0.1121 -0.9146
  125OSM   H14S13349   0.563   5.282   7.744  0.2122 -2.5298 -1.8056
  125OSM   H14T13350   0.457   5.228   7.611  0.0912 -0.5452 -0.3650
  125OSM   C15S13351   0.370   5.262   7.817 -0.1706 -0.0952  0.3809
  125OSM   H15S13352   0.366   5.151   7.813  0.1558 -0.0743 -3.5293
  125OSM   H15T13353   0.270   5.306   7.795  0.4389  1.1802  0.1036
  125OSM   C16S13354   0.423   5.305   7.957  0.3546 -0.2455  0.1570
  125OSM   H16S13355   0.441   5.414   7.948 -0.4087 -0.0854  0.4764
  125OSM   H16T13356   0.515   5.251   7.985  1.1109 -0.0325 -1.7973
  125OSM   C17S13357   0.317   5.297   8.067  0.1217 -0.9852  0.2584
  125OSM   H17S13358   0.280   5.192   8.072 -0.4170 -0.7952  0.3104
  125OSM   H17T13359   0.229   5.354   8.029 -0.3089 -1.0816  1.0973
  125OSM   C18S13360   0.360   5.342   8.205 -0.2522  0.1069  0.3531
  125OSM   H18S13361   0.459   5.296   8.229 -1.1199 -1.7950  0.5029
  125OSM   H18T13362   0.281   5.323   8.281 -0.8275  1.9496  0.2465
  125OSM   H18U13363   0.384   5.450   8.208 -1.9475  0.6185 -1.8857
  125OSM    C1F13364   0.708   5.335   6.630  0.0655  0.8535  0.1248
  125OSM     OF13365   0.737   5.450   6.588  0.9566  0.1185 -0.2410
  125OSM    C2F13366   0.811   5.241   6.686 -0.9288  0.7348 -0.3777
  125OSM    H2F13367   0.880   5.214   6.603 -2.3264  1.0514 -1.6779
  125OSM    H2G13368   0.773   5.142   6.719 -0.8009 -0.0980 -2.5469
  125OSM    C3F13369   0.892   5.297   6.809  0.1956  0.3416  0.6600
  125OSM    H3F13370   0.932   5.398   6.788  1.8607 -0.6418 -1.2694
  125OSM    H3G13371   0.965   5.224   6.848 -0.1312 -0.6273 -0.4701
  125OSM    C4F13372   0.799   5.309   6.938 -0.3201  0.1163  0.3890
  125OSM    H4F13373   0.752   5.211   6.964 -3.1130  1.4371  0.5850
  125OSM    H4G13374   0.718   5.379   6.909 -0.2716 -0.7845 -2.1622
  125OSM    C5F13375   0.879   5.351   7.060  0.1892  0.1243 -0.0473
  125OSM    H5F13376   0.935   5.447   7.050  0.7421 -0.2723 -0.8002
  125OSM    H5G13377   0.962   5.278   7.072  1.4063  1.6349  1.3342
  125OSM    C6F13378   0.808   5.331   7.198 -0.5645 -0.6711 -0.6827
  125OSM    H6F13379   0.748   5.238   7.187 -2.5423  0.4296  0.3086
  125OSM    H6G13380   0.743   5.419   7.216  1.1157  0.6606 -0.9357
  125OSM    C7F13381   0.906   5.287   7.318 -0.1859  0.4656  0.6009
  125OSM    H7F13382   0.991   5.357   7.304 -0.4186  0.6217 -0.0705
  125OSM    H7G13383   0.935   5.182   7.297 -1.9326 -0.3879  2.0992
  125OSM    C8F13384   0.835   5.286   7.452  0.8052 -0.5621  0.2626
  125OSM    H8F13385   0.902   5.235   7.524 -0.4709  1.1205  2.7905
  125OSM    H8G13386   0.731   5.247   7.445 -0.7644  3.3803 -1.6985
  125OSM    C9F13387   0.826   5.429   7.510 -0.4829 -0.3697 -0.0332
  125OSM    H9F13388   0.824   5.513   7.440 -0.5391  0.8399  1.3768
  125OSM   C10F13389   0.842   5.465   7.639 -0.3352  0.9135  0.7340
  125OSM   H10F13390   0.864   5.568   7.667  0.7774  1.0723 -0.6252
  125OSM   C11F13391   0.853   5.364   7.756 -0.0817 -0.2618  0.3892
  125OSM   H11F13392   0.959   5.334   7.767 -0.4783 -1.0931  2.3543
  125OSM   H11G13393   0.794   5.271   7.739 -1.1489  0.5831 -0.6569
  125OSM   C12F13394   0.790   5.411   7.889  0.2516 -0.5323 -0.3263
  125OSM   H12F13395   0.683   5.434   7.872  0.2306 -0.0698  0.3749
  125OSM   H12G13396   0.835   5.508   7.918  1.2626 -0.8162 -0.9065
  125OSM   C13F13397   0.809   5.310   8.000 -0.0615 -0.2329 -0.5550
  125OSM   H13F13398   0.913   5.271   7.998  0.1599  0.2968  0.3317
  125OSM   H13G13399   0.744   5.222   7.981 -0.8376 -0.3957  2.3554
  125OSM   C14F13400   0.784   5.363   8.140 -0.1421 -0.6175  0.2941
  125OSM   H14F13401   0.767   5.281   8.213  1.3245 -1.9281 -0.7733
  125OSM   H14G13402   0.691   5.424   8.141 -0.5575 -1.2129 -0.7441
  125OSM   C15F13403   0.902   5.451   8.186  0.7099  0.6519  0.0201
  125OSM   H15F13404   0.926   5.537   8.119 -2.3116  1.3217 -0.3320
  125OSM   H15G13405   0.986   5.380   8.204  0.7565  0.2894 -1.4834
  125OSM   C16F13406   0.868   5.513   8.321  0.5699  1.0346  0.1529
  125OSM   H16F13407   0.840   5.442   8.401 -1.2271 -0.0912 -1.3903
  125OSM   H16G13408   0.784   5.584   8.313 -0.2963  0.1023  0.7721
  125OSM   C17F13409   0.985   5.586   8.379  0.3340  0.1121  0.5040
  125OSM   H17F13410   1.004   5.675   8.315  2.1565 -0.4416  0.2298
  125OSM   H17G13411   1.074   5.520   8.387 -0.7268 -1.8892 -2.4844
  125OSM   C18F13412   0.941   5.644   8.516  0.0307 -0.5411 -0.2504
  125OSM   H18F13413   0.831   5.660   8.517 -0.0987 -1.3987  0.6173
  125OSM   H18G13414   0.995   5.740   8.527 -0.2898 -0.3750 -0.1239
  125OSM   H18H13415   0.962   5.574   8.599 -0.3139 -0.5470 -0.1671
  126OSM      N13416   5.434   4.398   6.159  0.2488  0.0812 -0.0487
  126OSM    C1513417   5.350   4.363   6.040  0.2037 -0.1608  0.1296
  126OSM   H15A13418   5.344   4.255   6.038 -0.2520 -0.1475  0.6005
  126OSM   H15B13419   5.392   4.394   5.946 -1.8694  2.1613 -0.1304
  126OSM   H15C13420   5.248   4.399   6.047  0.8911  1.9012  0.0311
  126OSM    C1413421   5.545   4.291   6.178  0.6028 -0.6059  0.0781
  126OSM   H14A13422   5.617   4.275   6.099 -0.2629  0.7815 -1.0554
  126OSM   H14B13423   5.494   4.197   6.192  0.9585 -0.6763  0.9593
  126OSM   H14C13424   5.601   4.309   6.268  2.0422  1.6688 -1.1729
  126OSM    C1313425   5.495   4.535   6.134 -0.2049 -0.1314 -0.1608
  126OSM   H13A13426   5.561   4.536   6.048 -0.5224  0.0034 -0.4021
  126OSM   H13B13427   5.546   4.568   6.224 -1.0297  0.5876  0.0528
  126OSM   H13C13428   5.421   4.612   6.117  0.6526  1.2855  1.9912
  126OSM    C1213429   5.347   4.400   6.284 -0.5776 -0.1676 -0.0648
  126OSM   H12A13430   5.248   4.357   6.279  0.5671 -3.1795  0.9762
  126OSM   H12B13431   5.323   4.505   6.299  1.7989  0.6256 -1.3325
  126OSM    C1113432   5.403   4.352   6.419 -0.1247  1.2827  0.6670
  126OSM   H11A13433   5.343   4.393   6.503 -4.3621  0.5273 -1.7087
  126OSM   H11B13434   5.505   4.393   6.436  0.8278  0.1268 -1.7840
  126OSM      P13435   5.282   4.136   6.473 -0.2291 -0.3558 -0.6442
  126OSM    O1313436   5.164   4.170   6.391 -0.7822 -0.0373  0.4153
  126OSM    O1413437   5.311   3.992   6.489  0.2700 -0.1390  0.0742
  126OSM    O1113438   5.275   4.199   6.618 -0.1595  1.1519  0.4727
  126OSM    O1213439   5.407   4.204   6.418 -0.5906 -0.6500 -0.0264
  126OSM    C1S13440   5.358   4.162   6.732 -0.6060 -0.1070  0.6788
  126OSM    H1S13441   5.464   4.169   6.699 -0.7364  1.7748  0.5614
  126OSM    H1T13442   5.344   4.057   6.767 -1.5345  0.1817  1.2076
  126OSM     NF13443   5.433   4.239   6.952 -0.6818 -1.0896 -0.4990
  126OSM    HNF13444   5.410   4.187   7.034  1.0917 -1.0439  0.0909
  126OSM    C2S13445   5.337   4.263   6.851 -0.3988  0.7285  0.1579
  126OSM    H2S13446   5.354   4.365   6.813  1.7832  1.1220  2.0066
  126OSM    C3S13447   5.187   4.247   6.901 -0.5962 -0.9712  0.6240
  126OSM    H3S13448   5.163   4.140   6.920 -0.1971 -1.1884 -0.0555
  126OSM     O313449   5.092   4.283   6.795  0.0607  0.1430  0.2319
  126OSM    HO313450   5.150   4.294   6.720  0.4602  0.6318  0.6035
  126OSM    C4S13451   5.156   4.332   7.026  0.4381  0.3198 -0.0254
  126OSM    H4S13452   5.130   4.438   7.008 -1.4149 -0.0509  0.2627
  126OSM    C5S13453   5.145   4.286   7.150  0.0706  0.1484  0.4219
  126OSM    H5S13454   5.174   4.183   7.175  2.4853  1.1790  2.2027
  126OSM    C6S13455   5.109   4.367   7.273 -0.8516 -0.0384 -0.6108
  126OSM    H6S13456   5.167   4.330   7.361 -0.4762  0.4631 -0.6412
  126OSM    H6T13457   5.003   4.342   7.295 -1.3693  2.1272 -0.4786
  126OSM    C7S13458   5.115   4.525   7.267 -0.0607 -0.5221  0.0616
  126OSM    H7S13459   5.046   4.551   7.184 -0.8179  1.1219  1.1567
  126OSM    H7T13460   5.215   4.562   7.235 -0.8020  0.1614 -1.5701
  126OSM    C8S13461   5.075   4.597   7.393 -0.0652  0.0015  0.1839
  126OSM    H8S13462   4.978   4.558   7.432 -0.8507  0.3202 -1.3685
  126OSM    H8T13463   5.058   4.701   7.358  0.6393  0.5712  1.4502
  126OSM    C9S13464   5.195   4.600   7.489 -0.0318 -0.4748 -0.6549
  126OSM    H9S13465   5.264   4.667   7.433  1.1170 -0.1988  1.0253
  126OSM    H9T13466   5.238   4.499   7.510  0.0411  0.0996  2.3448
  126OSM   C10S13467   5.153   4.667   7.621 -0.8830 -0.7154  0.3763
  126OSM   H10S13468   5.046   4.644   7.636 -0.9061 -0.1868  1.0645
  126OSM   H10T13469   5.165   4.777   7.615 -1.7741 -0.6228  0.1746
  126OSM   C11S13470   5.229   4.612   7.747 -0.3838 -1.2708  0.4377
  126OSM   H11S13471   5.181   4.668   7.830  0.6742  2.4479 -1.2698
  126OSM   H11T13472   5.337   4.635   7.747 -0.5767 -0.3210  0.7002
  126OSM   C12S13473   5.192   4.471   7.787  0.1779  0.2729  0.2393
  126OSM   H12S13474   5.241   4.447   7.884  2.1783  1.4414 -0.4139
  126OSM   H12T13475   5.224   4.402   7.706 -2.4555  1.5409 -2.0406
  126OSM   C13S13476   5.042   4.450   7.814 -0.1668 -0.1098 -0.6949
  126OSM   H13S13477   4.989   4.484   7.722 -0.8632  1.5017  0.2708
  126OSM   H13T13478   5.016   4.528   7.888 -0.3390  0.0883 -0.9648
  126OSM   C14S13479   5.017   4.303   7.861  0.0465  0.4597  0.5548
  126OSM   H14S13480   5.086   4.278   7.945  1.5881  1.5052 -0.3415
  126OSM   H14T13481   5.046   4.242   7.774  0.1731 -1.5890  1.9684
  126OSM   C15S13482   4.870   4.269   7.904 -0.6417  0.1074 -0.0446
  126OSM   H15S13483   4.863   4.158   7.916 -0.1475  0.3139  3.1716
  126OSM   H15T13484   4.805   4.284   7.816  0.8148  2.5467 -0.7693
  126OSM   C16S13485   4.815   4.325   8.036  0.4701 -0.0826 -0.0775
  126OSM   H16S13486   4.706   4.307   8.028  0.6157 -0.1903 -2.3396
  126OSM   H16T13487   4.826   4.436   8.038 -1.7088  0.1752 -0.1416
  126OSM   C17S13488   4.856   4.257   8.166  0.4349 -0.4997 -0.4793
  126OSM   H17S13489   4.965   4.270   8.178  0.6631 -2.3184 -0.3545
  126OSM   H17T13490   4.848   4.147   8.174  1.0446 -0.4508  1.1324
  126OSM   C18S13491   4.778   4.310   8.296 -0.1919 -0.0551 -0.3440
  126OSM   H18S13492   4.803   4.245   8.382  1.8933 -0.7176 -1.3827
  126OSM   H18T13493   4.670   4.298   8.274 -0.0815 -2.0237  0.0274
  126OSM   H18U13494   4.817   4.412   8.322  1.6038 -0.7467 -0.1603
  126OSM    C1F13495   5.563   4.286   6.946 -0.0275 -0.4508 -0.2452
  126OSM     OF13496   5.588   4.377   6.873 -0.3553 -0.2440  0.5918
  126OSM    C2F13497   5.666   4.241   7.050  0.4051 -0.1484  0.1720
  126OSM    H2F13498   5.685   4.133   7.039  1.0599 -0.0669  0.4644
  126OSM    H2G13499   5.631   4.250   7.154  2.1777 -1.3414  0.9195
  126OSM    C3F13500   5.801   4.319   7.039  0.1446 -0.6449 -0.6453
  126OSM    H3F13501   5.776   4.415   7.090  0.1060  0.7730 -3.1877
  126OSM    H3G13502   5.831   4.347   6.936 -1.0820 -0.0718 -0.8637
  126OSM    C4F13503   5.918   4.247   7.104 -0.1334 -0.1965 -1.0537
  126OSM    H4F13504   6.008   4.305   7.073  0.5424  0.1619  1.3920
  126OSM    H4G13505   5.929   4.145   7.060  3.2748  0.0145 -0.9657
  126OSM    C5F13506   5.913   4.248   7.260 -0.2752  0.1710 -0.8006
  126OSM    H5F13507   5.826   4.208   7.316  1.4428 -1.5318  0.7955
  126OSM    H5G13508   5.925   4.354   7.292  0.4858  0.4348 -1.9348
  126OSM    C6F13509   6.023   4.164   7.337 -0.1191 -0.7365 -0.0351
  126OSM    H6F13510   6.117   4.213   7.304 -0.6587 -0.3893 -1.0825
  126OSM    H6G13511   6.021   4.057   7.311  1.9944 -1.0621  0.9523
  126OSM    C7F13512   5.998   4.190   7.497 -0.9476  0.1030 -0.1596
  126OSM    H7F13513   5.928   4.117   7.543 -2.0797  0.5155 -1.1817
  126OSM    H7G13514   5.950   4.289   7.502  0.2030  0.7988 -1.8199
  126OSM    C8F13515   6.130   4.206   7.576  0.3919  0.1325  0.3247
  126OSM    H8F13516   6.097   4.260   7.668  0.0018  2.8790 -1.3268
  126OSM    H8G13517   6.198   4.275   7.521 -0.1151  1.4510  1.2980
  126OSM    C9F13518   6.195   4.071   7.592  0.5078  1.1600 -0.5039
  126OSM    H9F13519   6.247   4.033   7.503  1.7675  0.6299  0.4497
  126OSM   C10F13520   6.207   4.002   7.707 -0.6560 -0.0948  0.5861
  126OSM   H10F13521   6.255   3.904   7.698  0.7796  0.6118  0.2519
  126OSM   C11F13522   6.166   4.039   7.848 -0.0802 -0.0175  0.6051
  126OSM   H11F13523   6.151   4.147   7.869 -2.5657 -0.1267 -0.2562
  126OSM   H11G13524   6.251   4.015   7.915  0.2567  1.6079  0.7945
  126OSM   C12F13525   6.045   3.966   7.896 -0.1644  0.0059  0.3104
  126OSM   H12F13526   6.052   3.856   7.882  2.3018  0.4241 -2.6606
  126OSM   H12G13527   5.956   4.005   7.843  0.2664 -1.8851 -1.9810
  126OSM   C13F13528   6.033   3.999   8.044 -0.5099 -0.9619  0.4105
  126OSM   H13F13529   6.064   4.105   8.056  0.1149 -1.0914 -0.0328
  126OSM   H13G13530   6.100   3.930   8.098  2.7585  3.0886  2.0351
  126OSM   C14F13531   5.890   3.987   8.096  0.0049  0.1720  0.0446
  126OSM   H14F13532   5.883   3.887   8.144  2.6135 -1.6418 -3.0316
  126OSM   H14G13533   5.825   3.990   8.006 -1.1283  3.6015  0.8360
  126OSM   C15F13534   5.840   4.104   8.188 -0.5219  0.4842  0.4101
  126OSM   H15F13535   5.840   4.196   8.126 -0.3789  0.8060  0.8835
  126OSM   H15G13536   5.896   4.109   8.283  1.3920  0.1603 -0.6421
  126OSM   C16F13537   5.695   4.084   8.243  0.1654  0.6431 -0.2219
  126OSM   H16F13538   5.708   4.016   8.330 -0.7487  0.7753  0.0252
  126OSM   H16G13539   5.641   4.029   8.163 -0.0837  0.6233 -0.0392
  126OSM   C17F13540   5.623   4.212   8.260 -0.0699  0.0114  0.6157
  126OSM   H17F13541   5.517   4.197   8.288 -0.5558 -0.3059 -1.2624
  126OSM   H17G13542   5.625   4.272   8.166  0.3357  0.5893  0.9817
  126OSM   C18F13543   5.678   4.313   8.374  0.0990  0.0852  0.0137
  126OSM   H18F13544   5.778   4.349   8.343  0.5990 -1.1724  0.1445
  126OSM   H18G13545   5.700   4.242   8.455  2.4410 -2.3349 -2.5227
  126OSM   H18H13546   5.599   4.388   8.395  0.5550  0.0799  1.8586
  127OSM      N13547   1.511   4.198   6.381  0.6225  0.2242 -0.9400
  127OSM    C1513548   1.454   4.314   6.298  0.4800 -0.2354  0.6821
  127OSM   H15A13549   1.447   4.284   6.195  2.6343  0.9514  0.1219
  127OSM   H15B13550   1.517   4.401   6.303  1.8804 -1.0880 -1.1034
  127OSM   H15C13551   1.356   4.343   6.332  1.2149  3.1841  0.1802
  127OSM    C1413552   1.649   4.177   6.345  0.1822 -0.2912  0.4998
  127OSM   H14A13553   1.713   4.262   6.328 -1.1559  0.7108  0.3081
  127OSM   H14B13554   1.647   4.122   6.253 -1.3053  1.1177 -0.3615
  127OSM   H14C13555   1.688   4.109   6.419  0.0938  0.8188  1.6096
  127OSM    C1313556   1.503   4.234   6.528 -0.7640  0.2611  0.0937
  127OSM   H13A13557   1.566   4.317   6.558 -0.4110 -0.1110  0.3869
  127OSM   H13B13558   1.534   4.144   6.579  0.4140  0.6097  0.0363
  127OSM   H13C13559   1.406   4.268   6.562 -0.3156 -0.1665  1.9065
  127OSM    C1213560   1.421   4.075   6.371 -0.7013  0.2353 -0.3726
  127OSM   H12A13561   1.328   4.099   6.422 -0.8446 -2.5603  0.8611
  127OSM   H12B13562   1.456   3.986   6.420 -1.7023 -0.2416 -0.4830
  127OSM    C1113563   1.388   4.019   6.229  0.6757  0.1047 -0.2279
  127OSM   H11A13564   1.372   4.090   6.145 -2.4990 -1.3399 -0.9996
  127OSM   H11B13565   1.293   3.961   6.228  0.4293  0.4728 -2.2527
  127OSM      P13566   1.492   3.775   6.236 -0.0282 -0.2887  0.1295
  127OSM    O1313567   1.395   3.704   6.139  0.2610 -0.3362 -0.1403
  127OSM    O1413568   1.627   3.727   6.243 -0.7121 -0.4844 -0.4136
  127OSM    O1113569   1.432   3.769   6.385  0.2172  0.0737  0.8643
  127OSM    O1213570   1.490   3.926   6.205  0.2909  0.1667 -0.3068
  127OSM    C1S13571   1.508   3.763   6.504 -0.0004  0.2415 -0.3434
  127OSM    H1S13572   1.571   3.855   6.511 -2.6114  2.1719 -0.5238
  127OSM    H1T13573   1.571   3.673   6.517  0.3323  0.3125 -1.3747
  127OSM     NF13574   1.489   3.791   6.752  0.6455 -0.4830  0.3819
  127OSM    HNF13575   1.482   3.735   6.834  0.9559  1.8265  2.0784
  127OSM    C2S13576   1.412   3.766   6.628  0.8401 -0.3271 -0.3189
  127OSM    H2S13577   1.340   3.850   6.618 -1.5896 -2.3073 -0.3316
  127OSM    C3S13578   1.326   3.639   6.637 -0.2858  0.3339  0.3713
  127OSM    H3S13579   1.392   3.550   6.649 -1.6703 -0.6930  0.7311
  127OSM     O313580   1.253   3.614   6.516 -0.7592  0.9134 -0.1469
  127OSM    HO313581   1.294   3.674   6.454 -2.1395  1.6519 -0.3899
  127OSM    C4S13582   1.235   3.648   6.753  0.7045  0.7944  0.3003
  127OSM    H4S13583   1.280   3.625   6.851  0.2446  0.6776  0.4863
  127OSM    C5S13584   1.107   3.686   6.749  0.0629 -0.0485 -0.2319
  127OSM    H5S13585   1.066   3.695   6.648  0.0385 -0.4038 -0.2537
  127OSM    C6S13586   1.014   3.709   6.861 -0.0040  0.1261 -0.1300
  127OSM    H6S13587   0.916   3.658   6.847 -0.7024  1.3739  0.0326
  127OSM    H6T13588   0.978   3.813   6.875  0.6945  0.0750  2.7084
  127OSM    C7S13589   1.076   3.661   6.993  0.0404 -0.0211  0.1138
  127OSM    H7S13590   1.176   3.701   7.020 -0.4937  0.0077  2.2646
  127OSM    H7T13591   1.096   3.551   6.990 -0.1733 -0.1251  1.6140
  127OSM    C8S13592   0.988   3.692   7.116  0.0469 -0.6754 -0.5808
  127OSM    H8S13593   0.895   3.631   7.110  0.0302 -0.5734 -1.3991
  127OSM    H8T13594   0.964   3.800   7.119  1.0437 -0.4642  1.5638
  127OSM    C9S13595   1.054   3.643   7.250  0.1383  0.5403  0.3412
  127OSM    H9S13596   1.128   3.722   7.275  0.9327  1.2857 -3.5840
  127OSM    H9T13597   1.099   3.545   7.223 -0.2882  0.3065  0.4848
  127OSM   C10S13598   0.953   3.616   7.365  0.5564 -0.0837  0.7707
  127OSM   H10S13599   0.870   3.552   7.328  0.2458  1.6369 -1.7701
  127OSM   H10T13600   0.906   3.713   7.389  0.3522 -0.6583  2.8866
  127OSM   C11S13601   1.019   3.571   7.495 -0.3903  0.2906 -0.2103
  127OSM   H11S13602   1.100   3.642   7.521 -0.2055 -0.0002  0.0119
  127OSM   H11T13603   1.063   3.470   7.490  1.3655  0.9991  0.3916
  127OSM   C12S13604   0.927   3.597   7.611  0.4954  0.1964 -0.4395
  127OSM   H12S13605   0.840   3.527   7.607 -0.6360  1.6171 -2.2485
  127OSM   H12T13606   0.890   3.701   7.607  1.8309  0.6542 -2.2108
  127OSM   C13S13607   0.996   3.567   7.748 -0.4981 -0.2803  0.0176
  127OSM   H13S13608   1.066   3.651   7.763 -2.1120  1.0189  0.5649
  127OSM   H13T13609   1.053   3.471   7.746  2.5908  1.4304 -1.9126
  127OSM   C14S13610   0.908   3.578   7.875  0.2321 -0.6329  0.0270
  127OSM   H14S13611   0.819   3.512   7.866 -0.3270 -0.0750  1.2483
  127OSM   H14T13612   0.856   3.677   7.870  1.1607  0.0201  2.0619
  127OSM   C15S13613   0.975   3.560   8.008  0.3447 -0.7045  0.5639
  127OSM   H15S13614   1.048   3.644   8.014  0.1705 -0.2680 -2.0119
  127OSM   H15T13615   1.028   3.463   8.016  2.5567  0.4198  0.3660
  127OSM   C16S13616   0.865   3.589   8.116  0.2456  0.6662  0.0818
  127OSM   H16S13617   0.792   3.505   8.110  1.2401 -0.3487  1.7863
  127OSM   H16T13618   0.808   3.684   8.112 -1.4880 -0.3362 -0.2818
  127OSM   C17S13619   0.917   3.588   8.267 -0.2572 -0.7378 -0.4555
  127OSM   H17S13620   0.987   3.674   8.281 -1.8562  0.5607 -0.1214
  127OSM   H17T13621   0.980   3.498   8.280 -2.6919 -2.1410  2.8523
  127OSM   C18S13622   0.809   3.589   8.374  0.0679  0.1891  0.3695
  127OSM   H18S13623   0.847   3.595   8.478  0.3676 -0.4377  0.2989
  127OSM   H18T13624   0.743   3.500   8.366 -0.1167  0.3642 -0.0953
  127OSM   H18U13625   0.751   3.682   8.357 -0.2994 -0.5009 -2.6092
  127OSM    C1F13626   1.562   3.907   6.769  0.0458 -0.3076 -0.0741
  127OSM     OF13627   1.558   4.003   6.693  0.1602  0.1217 -0.1065
  127OSM    C2F13628   1.644   3.914   6.898 -0.2539  0.6270  1.0605
  127OSM    H2F13629   1.739   3.862   6.872 -0.2702  1.4898 -0.9698
  127OSM    H2G13630   1.594   3.850   6.974 -0.7009  1.2165  1.2668
  127OSM    C3F13631   1.673   4.057   6.948  0.9077  0.0250  0.0603
  127OSM    H3F13632   1.576   4.105   6.976  0.6128 -1.0738  1.0165
  127OSM    H3G13633   1.715   4.122   6.869 -0.1872  0.3060 -0.3176
  127OSM    C4F13634   1.762   4.064   7.068  0.7392 -0.2238  0.4284
  127OSM    H4F13635   1.751   4.168   7.106  1.2565 -0.1654  0.4274
  127OSM    H4G13636   1.867   4.049   7.034  0.6205  2.0538 -1.1958
  127OSM    C5F13637   1.720   3.975   7.186  0.3788  0.3338 -0.4533
  127OSM    H5F13638   1.769   3.876   7.175  0.7635  0.5266 -0.4644
  127OSM    H5G13639   1.610   3.963   7.197  0.3122  0.3246 -1.1136
  127OSM    C6F13640   1.749   4.053   7.318  0.3805  0.8212 -0.0326
  127OSM    H6F13641   1.683   4.140   7.297 -1.0782 -0.7412 -2.2863
  127OSM    H6G13642   1.855   4.085   7.310  0.7219  1.8106  4.8801
  127OSM    C7F13643   1.727   3.977   7.445  0.0307  0.3170 -0.6409
  127OSM    H7F13644   1.770   3.879   7.416  2.3989  0.5134  1.8799
  127OSM    H7G13645   1.618   3.957   7.462  0.2364 -1.2086 -0.9580
  127OSM    C8F13646   1.810   4.037   7.566 -1.0253 -0.0859 -0.2616
  127OSM    H8F13647   1.913   4.067   7.538 -0.7755 -1.0233 -0.3717
  127OSM    H8G13648   1.820   3.950   7.634  0.2782  0.8809  0.8348
  127OSM    C9F13649   1.743   4.159   7.635 -0.1103 -0.9065  0.1466
  127OSM    H9F13650   1.734   4.243   7.565 -0.2176 -1.2740 -0.2805
  127OSM   C10F13651   1.693   4.181   7.762  0.5144 -0.6100  0.3452
  127OSM   H10F13652   1.640   4.276   7.774  0.7112 -0.3456 -0.7551
  127OSM   C11F13653   1.683   4.091   7.882  0.0999 -0.5248  0.8404
  127OSM   H11F13654   1.696   3.987   7.845 -1.1814 -0.3664 -0.1032
  127OSM   H11G13655   1.581   4.105   7.923  0.2063  0.3219  0.8214
  127OSM   C12F13656   1.785   4.125   7.998  0.8062 -0.7727  0.9755
  127OSM   H12F13657   1.800   4.234   8.016 -2.8232  0.6670 -2.8915
  127OSM   H12G13658   1.882   4.092   7.954  0.3088  0.6509 -1.4016
  127OSM   C13F13659   1.770   4.042   8.128 -0.4833  0.0037  0.2283
  127OSM   H13F13660   1.868   4.034   8.179 -1.0095  2.7216  1.9031
  127OSM   H13G13661   1.738   3.943   8.089 -1.2128  0.4507 -0.3449
  127OSM   C14F13662   1.668   4.091   8.236  0.2279  0.0806 -0.0083
  127OSM   H14F13663   1.588   4.125   8.166  1.5031  2.2376 -0.5035
  127OSM   H14G13664   1.700   4.183   8.289  0.0440 -0.7628  1.6502
  127OSM   C15F13665   1.628   3.985   8.338  0.0115 -0.1298  0.2931
  127OSM   H15F13666   1.569   3.903   8.292  1.1040 -2.7370  3.1811
  127OSM   H15G13667   1.570   4.020   8.425  0.0742  0.9137 -0.0767
  127OSM   C16F13668   1.760   3.931   8.406 -0.5042 -0.0146 -0.0103
  127OSM   H16F13669   1.827   4.012   8.443  1.3587 -0.8737 -1.3367
  127OSM   H16G13670   1.824   3.878   8.332 -2.7937  0.5329 -2.5308
  127OSM   C17F13671   1.717   3.831   8.520 -0.3512  0.0922  0.4579
  127OSM   H17F13672   1.664   3.752   8.462 -4.8728  3.7711 -1.0140
  127OSM   H17G13673   1.641   3.880   8.584 -0.3845 -0.9694  1.2643
  127OSM   C18F13674   1.842   3.784   8.598 -0.0009  0.3975 -0.3779
  127OSM   H18F13675   1.823   3.712   8.681 -1.9935 -1.0847 -2.0426
  127OSM   H18G13676   1.906   3.872   8.623  0.1465  0.2587 -0.2628
  127OSM   H18H13677   1.904   3.729   8.524 -0.3641  1.8493 -1.8063
  128OSM      N13678   3.321   5.653   5.685 -0.0864  0.2119 -0.4174
  128OSM    C1513679   3.179   5.605   5.659 -0.3832  0.5824  0.6954
  128OSM   H15A13680   3.169   5.551   5.566 -0.5412  0.1691  0.9495
  128OSM   H15B13681   3.116   5.693   5.662 -0.5750  0.5653 -1.3739
  128OSM   H15C13682   3.156   5.527   5.730  0.6289 -1.1757 -0.8382
  128OSM    C1413683   3.407   5.539   5.654  0.3702 -0.1817  0.1170
  128OSM   H14A13684   3.512   5.566   5.655  0.4687 -0.5634  0.1280
  128OSM   H14B13685   3.393   5.502   5.553  1.6603  1.3155 -0.6627
  128OSM   H14C13686   3.396   5.463   5.729  0.3697  2.2740  2.7573
  128OSM    C1313687   3.339   5.760   5.577 -0.5248  1.0037 -0.0914
  128OSM   H13A13688   3.441   5.793   5.574  0.1321  0.2245  5.0964
  128OSM   H13B13689   3.259   5.831   5.589 -2.5302 -0.9060 -1.2483
  128OSM   H13C13690   3.319   5.712   5.481 -2.1449  0.1090  0.6444
  128OSM    C1213691   3.338   5.714   5.827  0.1186  0.4190  0.0592
  128OSM   H12A13692   3.285   5.808   5.831 -1.3319 -0.1366 -3.1797
  128OSM   H12B13693   3.442   5.741   5.844  0.5054 -0.9300 -0.0066
  128OSM    C1113694   3.305   5.629   5.949 -0.3479 -0.0931  0.0645
  128OSM   H11A13695   3.200   5.592   5.942  0.1855 -1.4954 -0.8938
  128OSM   H11B13696   3.319   5.701   6.033 -0.4521  1.6081 -1.3235
  128OSM      P13697   3.550   5.535   6.000  0.2651  0.4950  0.1446
  128OSM    O1313698   3.613   5.409   6.024 -0.3882 -0.0176  0.4921
  128OSM    O1413699   3.619   5.626   5.911  0.3968 -0.2201 -0.1270
  128OSM    O1113700   3.537   5.592   6.141  0.2055  0.3592  0.3409
  128OSM    O1213701   3.399   5.520   5.955  0.1566 -0.3327 -0.5284
  128OSM    C1S13702   3.463   5.553   6.250 -0.0150 -0.0861 -0.0386
  128OSM    H1S13703   3.474   5.443   6.261  3.9198  0.2897  1.1850
  128OSM    H1T13704   3.353   5.566   6.238  0.0737  1.7113  0.6754
  128OSM     NF13705   3.462   5.550   6.497 -0.4478 -0.4059 -0.6624
  128OSM    HNF13706   3.387   5.592   6.547 -1.0267 -1.9161 -0.1992
  128OSM    C2S13707   3.520   5.613   6.380  0.1900 -1.0292  0.3972
  128OSM    H2S13708   3.629   5.593   6.368  0.9242  1.2006  2.5062
  128OSM    C3S13709   3.510   5.773   6.382 -0.0322  0.4229  1.0829
  128OSM    H3S13710   3.404   5.792   6.408 -0.0051 -0.8158  2.2156
  128OSM     O313711   3.548   5.828   6.258 -0.4013  0.2487 -0.3695
  128OSM    HO313712   3.549   5.754   6.196 -0.8878  2.6172 -3.4678
  128OSM    C4S13713   3.592   5.817   6.499 -0.1493  0.2811 -0.6198
  128OSM    H4S13714   3.541   5.802   6.595  1.1049  1.8991  0.3495
  128OSM    C5S13715   3.717   5.870   6.498 -0.1869 -1.1361 -0.3519
  128OSM    H5S13716   3.767   5.879   6.400  1.4214 -0.0341  0.5309
  128OSM    C6S13717   3.794   5.907   6.621 -0.1349  0.1338 -0.7214
  128OSM    H6S13718   3.824   6.013   6.605  1.3239  0.0825  1.2977
  128OSM    H6T13719   3.887   5.848   6.616 -0.5746 -0.9175  1.9780
  128OSM    C7S13720   3.743   5.872   6.766 -0.3551 -0.7995  0.1056
  128OSM    H7S13721   3.736   5.763   6.787  0.0260 -0.7724  0.3904
  128OSM    H7T13722   3.642   5.917   6.779  1.0465  2.1499  1.7367
  128OSM    C8S13723   3.826   5.927   6.875 -0.4924  0.0982 -0.5307
  128OSM    H8S13724   3.838   6.037   6.872 -0.8891  0.1452 -0.4899
  128OSM    H8T13725   3.930   5.887   6.871  0.0225  1.3123  0.2325
  128OSM    C9S13726   3.763   5.876   7.012 -0.7376  0.4607 -0.0891
  128OSM    H9S13727   3.737   5.770   6.992 -1.8591  1.1609 -2.7912
  128OSM    H9T13728   3.661   5.919   7.017 -1.5212 -1.2345 -0.6300
  128OSM   C10S13729   3.855   5.905   7.135  0.2272  0.3349  0.0531
  128OSM   H10S13730   3.902   6.005   7.127  2.8872 -0.7296  1.4103
  128OSM   H10T13731   3.942   5.836   7.130  0.4837  0.7204 -1.1910
  128OSM   C11S13732   3.788   5.904   7.267 -0.0707 -0.3765  0.6998
  128OSM   H11S13733   3.740   5.808   7.293  0.9645 -0.7861  1.1620
  128OSM   H11T13734   3.701   5.973   7.260  1.3354  1.6795  2.0497
  128OSM   C12S13735   3.881   5.933   7.380 -0.7610  0.0755 -0.5672
  128OSM   H12S13736   3.905   6.041   7.380  0.2003 -0.0677  1.8472
  128OSM   H12T13737   3.979   5.882   7.363 -1.1079 -1.1979  1.0474
  128OSM   C13S13738   3.830   5.892   7.515 -0.7995 -0.0631  0.0405
  128OSM   H13S13739   3.798   5.786   7.514 -0.5821 -0.1890 -2.9021
  128OSM   H13T13740   3.743   5.955   7.542  1.0135  2.2449  0.9166
  128OSM   C14S13741   3.936   5.906   7.626  0.1626 -0.3385 -0.9484
  128OSM   H14S13742   3.983   6.003   7.599 -3.6056  1.6078 -1.2051
  128OSM   H14T13743   4.006   5.822   7.608 -0.3088 -0.3883 -2.7818
  128OSM   C15S13744   3.880   5.906   7.765  0.0770 -0.2400 -0.0720
  128OSM   H15S13745   3.800   5.829   7.769  0.7519 -0.9983 -0.7710
  128OSM   H15T13746   3.847   6.012   7.771 -0.3824  0.1622 -5.1413
  128OSM   C16S13747   3.978   5.885   7.878 -0.1938 -0.2982  0.0582
  128OSM   H16S13748   3.934   5.933   7.967 -1.5341 -2.3132  0.5427
  128OSM   H16T13749   4.076   5.929   7.848 -0.1961 -1.5293 -1.9273
  128OSM   C17S13750   4.020   5.739   7.912 -0.4840  0.4081 -0.3003
  128OSM   H17S13751   4.072   5.697   7.823  2.1662 -2.2776  2.3189
  128OSM   H17T13752   3.939   5.673   7.950  2.2953 -1.9640  1.9409
  128OSM   C18S13753   4.122   5.735   8.021 -0.3311  0.2116 -0.5479
  128OSM   H18S13754   4.070   5.788   8.103 -1.7410 -2.3836  0.3460
  128OSM   H18T13755   4.203   5.801   7.983 -0.4234  0.6948  0.0852
  128OSM   H18U13756   4.153   5.632   8.051  1.5803  0.8165 -0.2830
  128OSM    C1F13757   3.497   5.422   6.511 -0.3677  0.1341  0.1727
  128OSM     OF13758   3.591   5.377   6.447 -0.4937 -0.2767  0.4334
  128OSM    C2F13759   3.413   5.351   6.615  0.7866  0.2756  0.2240
  128OSM    H2F13760   3.311   5.345   6.572  0.5741  0.2897  0.7192
  128OSM    H2G13761   3.410   5.409   6.710 -0.4357 -2.6282  2.0832
  128OSM    C3F13762   3.465   5.206   6.656 -0.1037  0.4737 -0.2721
  128OSM    H3F13763   3.568   5.215   6.696 -0.2478  2.4482 -0.2143
  128OSM    H3G13764   3.460   5.135   6.571 -1.6337 -0.8607  0.8708
  128OSM    C4F13765   3.372   5.127   6.760 -0.7046 -0.2303 -0.7721
  128OSM    H4F13766   3.408   5.023   6.777 -0.0074  0.0833 -0.2668
  128OSM    H4G13767   3.265   5.128   6.729 -0.7563  0.6551 -0.5751
  128OSM    C5F13768   3.391   5.202   6.892  0.3822  0.2934 -0.2844
  128OSM    H5F13769   3.367   5.307   6.864 -1.4674 -0.4674 -1.7645
  128OSM    H5G13770   3.492   5.189   6.936  0.6619  1.0162 -0.6940
  128OSM    C6F13771   3.285   5.185   7.004 -0.3073  0.3852  0.3159
  128OSM    H6F13772   3.295   5.079   7.036 -0.1010  0.8012  1.7005
  128OSM    H6G13773   3.183   5.198   6.962 -0.1523 -2.0227 -1.0183
  128OSM    C7F13774   3.320   5.268   7.125  0.1686  1.3770 -0.4110
  128OSM    H7F13775   3.290   5.374   7.106 -1.9226  1.4320  2.5082
  128OSM    H7G13776   3.429   5.267   7.147  0.0461 -0.2859  0.1996
  128OSM    C8F13777   3.243   5.214   7.251  0.1168  0.1918  0.3283
  128OSM    H8F13778   3.261   5.282   7.337  1.2716  0.9193 -0.4593
  128OSM    H8G13779   3.292   5.120   7.283 -0.9996 -1.1078 -1.5597
  128OSM    C9F13780   3.092   5.192   7.233 -0.3632  0.7600  0.2402
  128OSM    H9F13781   3.068   5.128   7.146  1.8563 -0.3054  0.3559
  128OSM   C10F13782   2.988   5.239   7.312  1.2910  0.0259  1.0595
  128OSM   H10F13783   2.887   5.207   7.281 -0.0505  2.6725  2.3136
  128OSM   C11F13784   2.970   5.317   7.434 -0.1121 -0.0652  0.6290
  128OSM   H11F13785   2.884   5.384   7.414  0.1151 -0.1114 -0.5856
  128OSM   H11G13786   3.062   5.378   7.442  1.0758 -2.0112  3.8041
  128OSM   C12F13787   2.926   5.235   7.553 -0.2371  0.5282 -0.0574
  128OSM   H12F13788   3.010   5.181   7.602  0.2672  1.1582 -0.2231
  128OSM   H12G13789   2.858   5.151   7.527  0.2744  0.7604 -2.2814
  128OSM   C13F13790   2.848   5.311   7.666 -0.4279  0.4820 -0.2474
  128OSM   H13F13791   2.756   5.353   7.621 -0.6392  2.4679  1.8403
  128OSM   H13G13792   2.911   5.396   7.702  0.5302 -1.2397  2.5053
  128OSM   C14F13793   2.822   5.222   7.791  0.0669 -0.4303  0.0923
  128OSM   H14F13794   2.918   5.188   7.837 -0.1983 -2.6179 -0.8429
  128OSM   H14G13795   2.760   5.135   7.760 -0.4052 -0.0953  0.0881
  128OSM   C15F13796   2.734   5.293   7.889 -0.6538 -0.6728  0.2735
  128OSM   H15F13797   2.627   5.295   7.861 -0.7385  0.5018  0.5984
  128OSM   H15G13798   2.777   5.396   7.896  1.4693 -1.4638 -0.3630
  128OSM   C16F13799   2.740   5.229   8.030  0.8746  1.0004  0.4831
  128OSM   H16F13800   2.846   5.230   8.064  0.3682 -1.0716  2.3602
  128OSM   H16G13801   2.707   5.123   8.022  1.5105  0.9131 -1.4135
  128OSM   C17F13802   2.662   5.306   8.140  0.5903 -0.7636  0.5874
  128OSM   H17F13803   2.555   5.305   8.112  0.3266  0.8422  1.3788
  128OSM   H17G13804   2.716   5.403   8.147  1.4444 -1.2490  0.9117
  128OSM   C18F13805   2.672   5.237   8.273  0.5454 -0.1006 -0.7686
  128OSM   H18F13806   2.628   5.135   8.277 -1.3132  0.6992  1.5209
  128OSM   H18G13807   2.612   5.293   8.348 -0.3613 -0.1913 -1.4112
  128OSM   H18H13808   2.778   5.234   8.307  0.9132  0.4655 -1.8297
  129OSM      N13809   6.241   3.871   6.036 -0.5345  0.9345  0.1210
  129OSM    C1513810   6.320   3.938   5.927 -0.3414 -0.4467 -0.5699
  129OSM   H15A13811   6.286   4.040   5.918  1.8355  0.5700  1.3456
  129OSM   H15B13812   6.321   3.894   5.829 -0.1621  1.3534 -1.4253
  129OSM   H15C13813   6.422   3.957   5.958 -1.0376  1.7185  0.6501
  129OSM    C1413814   6.301   3.738   6.056  0.4819 -0.8873 -0.1825
  129OSM   H14A13815   6.395   3.741   6.110  1.1053  0.1081 -1.2785
  129OSM   H14B13816   6.320   3.684   5.965 -1.9777 -1.2870 -0.5068
  129OSM   H14C13817   6.229   3.685   6.117 -1.8562  0.1887 -1.8657
  129OSM    C1313818   6.256   3.947   6.156 -0.2273 -0.9453 -0.4210
  129OSM   H13A13819   6.359   3.979   6.161 -0.0160 -1.6688  0.1229
  129OSM   H13B13820   6.216   3.895   6.243  0.0170 -1.9210 -0.8781
  129OSM   H13C13821   6.210   4.045   6.159  2.9465  0.6359  1.0818
  129OSM    C1213822   6.096   3.854   5.986  0.5769  0.5455  0.1419
  129OSM   H12A13823   6.031   3.802   6.054 -0.0298  0.5014 -0.4596
  129OSM   H12B13824   6.088   3.784   5.903 -1.2680  1.2923 -0.3456
  129OSM    C1113825   6.024   3.983   5.945  0.1442 -0.5505  0.4647
  129OSM   H11A13826   5.943   3.945   5.879  1.4361  0.1994 -1.6348
  129OSM   H11B13827   6.089   4.053   5.887 -0.4807 -0.9650 -0.7647
  129OSM      P13828   5.909   4.184   6.068  0.0955 -0.2644  0.3502
  129OSM    O1313829   5.974   4.275   5.972  0.3934 -0.1487 -0.1687
  129OSM    O1413830   5.767   4.162   6.042 -0.4487  0.0462  0.3716
  129OSM    O1113831   5.920   4.255   6.204 -0.4201 -0.1956 -0.5574
  129OSM    O1213832   5.991   4.051   6.068 -0.0829 -0.3131 -0.0436
  129OSM    C1S13833   5.925   4.177   6.326 -0.8395 -0.5950 -0.0792
  129OSM    H1S13834   6.012   4.108   6.323  0.2248  0.6840  0.1837
  129OSM    H1T13835   5.832   4.117   6.333 -0.7638 -0.8111 -0.8704
  129OSM     NF13836   5.968   4.158   6.564  0.5336  0.2904  0.1452
  129OSM    HNF13837   5.893   4.142   6.628  2.4176  0.5588  2.5628
  129OSM    C2S13838   5.953   4.261   6.457  0.1507  0.1189 -0.9743
  129OSM    H2S13839   6.046   4.316   6.431  1.1567 -1.1616 -0.2479
  129OSM    C3S13840   5.832   4.362   6.490  0.1455  0.5657 -0.1276
  129OSM    H3S13841   5.740   4.301   6.491  0.9279 -0.6473  0.6698
  129OSM     O313842   5.810   4.447   6.377  0.6173  0.4539  0.6592
  129OSM    HO313843   5.854   4.405   6.303  1.5955  0.8233  1.0065
  129OSM    C4S13844   5.841   4.442   6.616 -0.4329 -0.4611 -0.2401
  129OSM    H4S13845   5.774   4.424   6.701  1.8025 -2.1576  1.2949
  129OSM    C5S13846   5.906   4.556   6.636  0.2858 -0.2632  0.3291
  129OSM    H5S13847   5.964   4.598   6.553 -0.6867  2.4077  0.9034
  129OSM    C6S13848   5.918   4.629   6.764  0.1135 -0.6796  0.1430
  129OSM    H6S13849   6.007   4.694   6.766 -1.1136  1.1722  3.6706
  129OSM    H6T13850   5.919   4.558   6.849  2.3993  0.7129  1.3803
  129OSM    C7S13851   5.802   4.726   6.795  0.3577  0.5270 -0.1718
  129OSM    H7S13852   5.705   4.673   6.784  1.3463 -1.6117  0.7315
  129OSM    H7T13853   5.804   4.820   6.737  2.4567  0.8222  0.3063
  129OSM    C8S13854   5.806   4.771   6.944  0.2853 -0.1820  0.3254
  129OSM    H8S13855   5.822   4.682   7.009  0.8286  0.6800  1.3887
  129OSM    H8T13856   5.707   4.812   6.972  0.5817  0.4402  0.4560
  129OSM    C9S13857   5.922   4.872   6.976  0.3552  0.6071  0.3332
  129OSM    H9S13858   5.941   4.939   6.889  1.7377 -0.1092  0.0562
  129OSM    H9T13859   6.009   4.803   6.978  0.8128  1.1502 -0.2893
  129OSM   C10S13860   5.906   4.956   7.095 -0.2668 -0.0660  0.2583
  129OSM   H10S13861   5.800   4.988   7.091 -0.9337 -2.2431 -2.2563
  129OSM   H10T13862   5.977   5.041   7.084 -1.2673  0.8612  0.7864
  129OSM   C11S13863   5.926   4.881   7.225 -0.1396  0.2553 -0.3196
  129OSM   H11S13864   6.011   4.913   7.289 -1.1443  0.8775  0.7459
  129OSM   H11T13865   5.953   4.775   7.205  0.3053  0.3233 -0.0975
  129OSM   C12S13866   5.803   4.896   7.321  0.5676 -0.2328  0.4646
  129OSM   H12S13867   5.715   4.857   7.265 -0.0324  0.5281  0.8647
  129OSM   H12T13868   5.784   5.002   7.348  2.6957  0.4320 -0.4294
  129OSM   C13S13869   5.822   4.823   7.453  0.0971  0.6486  1.3225
  129OSM   H13S13870   5.924   4.851   7.485  2.8678 -4.3447 -1.8491
  129OSM   H13T13871   5.834   4.715   7.427 -0.0396  1.0436 -0.4659
  129OSM   C14S13872   5.703   4.842   7.554 -0.0823 -0.4609  0.7102
  129OSM   H14S13873   5.724   4.797   7.653 -0.2998 -0.3242  0.8188
  129OSM   H14T13874   5.605   4.802   7.520  0.8309 -1.2495 -1.1780
  129OSM   C15S13875   5.681   4.988   7.592  0.3044 -0.0221  0.1749
  129OSM   H15S13876   5.611   5.046   7.529 -0.6305 -2.0287 -0.7353
  129OSM   H15T13877   5.778   5.041   7.583 -0.5118  1.2249 -2.1437
  129OSM   C16S13878   5.627   5.003   7.736  0.1550  0.4845  0.3894
  129OSM   H16S13879   5.632   5.111   7.761 -0.3301  0.1934  1.7919
  129OSM   H16T13880   5.689   4.950   7.811  1.0319  1.6644  0.5295
  129OSM   C17S13881   5.483   4.946   7.752  1.0921 -0.6589 -0.6259
  129OSM   H17S13882   5.490   4.838   7.727  1.6276 -1.3174  2.0597
  129OSM   H17T13883   5.425   5.002   7.675  0.8823 -1.3707 -0.9903
  129OSM   C18S13884   5.423   4.970   7.896 -0.4584 -0.5899 -0.2026
  129OSM   H18S13885   5.339   4.898   7.900 -0.5331 -0.4558  0.8093
  129OSM   H18T13886   5.390   5.076   7.901 -1.0939 -0.8222  0.5612
  129OSM   H18U13887   5.500   4.943   7.971 -0.8837 -2.4754 -0.3892
  129OSM    C1F13888   6.081   4.092   6.572 -0.3048  0.4572  0.0029
  129OSM     OF13889   6.170   4.122   6.500  0.5857 -0.5134 -0.3014
  129OSM    C2F13890   6.093   3.970   6.664  0.7166 -0.7559 -0.2208
  129OSM    H2F13891   6.188   3.919   6.638  2.9413  1.3619  2.9484
  129OSM    H2G13892   6.008   3.899   6.653  0.5819 -0.5443 -0.5438
  129OSM    C3F13893   6.105   4.012   6.809 -0.0503 -0.4647  0.3529
  129OSM    H3F13894   6.026   4.083   6.842  0.1534 -0.2319  0.3453
  129OSM    H3G13895   6.194   4.079   6.816 -1.2833  1.6938 -2.4243
  129OSM    C4F13896   6.118   3.882   6.896  0.3006 -0.3902 -0.4275
  129OSM    H4F13897   6.202   3.821   6.857  0.9649 -0.5306  1.1801
  129OSM    H4G13898   6.027   3.818   6.894 -0.9934  1.2514  1.3514
  129OSM    C5F13899   6.138   3.918   7.048  0.3684 -0.6311  0.3064
  129OSM    H5F13900   6.047   3.968   7.088  1.0410 -0.3998  1.6115
  129OSM    H5G13901   6.217   3.996   7.059 -0.2650 -0.1138  1.2534
  129OSM    C6F13902   6.156   3.790   7.136  0.7605  1.0412 -0.2727
  129OSM    H6F13903   6.104   3.714   7.074  0.1905  3.0027 -2.3278
  129OSM    H6G13904   6.106   3.801   7.235  0.4875 -0.9087 -0.1559
  129OSM    C7F13905   6.309   3.771   7.165  0.1042  0.5477  0.0276
  129OSM    H7F13906   6.370   3.827   7.090 -0.1425  0.1963 -0.4387
  129OSM    H7G13907   6.329   3.665   7.139  1.8100  0.9548 -0.4433
  129OSM    C8F13908   6.346   3.800   7.310  0.3902  0.2477  0.6966
  129OSM    H8F13909   6.282   3.729   7.366 -0.9987  0.4626 -0.5399
  129OSM    H8G13910   6.314   3.902   7.342  1.2820  0.3586  1.2700
  129OSM    C9F13911   6.487   3.775   7.327  0.1245 -0.7340 -0.4694
  129OSM    H9F13912   6.541   3.755   7.233  1.2198  2.3736 -0.6276
  129OSM   C10F13913   6.555   3.791   7.447  0.1619 -0.1871  0.0416
  129OSM   H10F13914   6.663   3.771   7.446 -0.1690 -2.2132 -1.1462
  129OSM   C11F13915   6.502   3.829   7.582  0.1622  0.1186 -0.4716
  129OSM   H11F13916   6.397   3.793   7.589 -0.1316  0.9658 -0.3885
  129OSM   H11G13917   6.490   3.938   7.602  1.3998 -0.2046  2.6081
  129OSM   C12F13918   6.581   3.771   7.705  0.5356 -0.2389 -0.2858
  129OSM   H12F13919   6.685   3.808   7.700  0.7748 -0.7415  0.7201
  129OSM   H12G13920   6.599   3.663   7.688 -0.6574 -0.5725  0.4478
  129OSM   C13F13921   6.518   3.812   7.842  0.1296 -0.2236 -0.2066
  129OSM   H13F13922   6.417   3.765   7.851 -1.0954  2.0312 -1.2520
  129OSM   H13G13923   6.502   3.922   7.831  0.3605  0.1535  2.4585
  129OSM   C14F13924   6.605   3.768   7.958  0.9372  0.5308 -0.0464
  129OSM   H14F13925   6.699   3.827   7.955  0.9644  0.4304 -1.7345
  129OSM   H14G13926   6.626   3.662   7.933  1.1600  0.6437 -0.3322
  129OSM   C15F13927   6.527   3.781   8.089  0.0146 -0.1020  0.4224
  129OSM   H15F13928   6.422   3.807   8.062 -1.4758 -3.1700  2.7215
  129OSM   H15G13929   6.572   3.872   8.133  0.5155  0.7131 -1.6470
  129OSM   C16F13930   6.538   3.654   8.180  0.4106 -0.7114  0.1816
  129OSM   H16F13931   6.495   3.564   8.131 -0.5644 -0.3235  0.2833
  129OSM   H16G13932   6.480   3.681   8.272 -0.3060  0.0119 -0.4579
  129OSM   C17F13933   6.689   3.621   8.207  1.1711 -0.1227  0.4219
  129OSM   H17F13934   6.747   3.711   8.237  2.0046  0.6449 -3.0414
  129OSM   H17G13935   6.742   3.603   8.111  0.8101  0.0267  0.1930
  129OSM   C18F13936   6.734   3.515   8.300 -0.4055  0.0179 -0.5133
  129OSM   H18F13937   6.707   3.534   8.406 -3.8770 -0.7050 -1.1422
  129OSM   H18G13938   6.844   3.505   8.297 -0.4419 -0.4180 -0.4744
  129OSM   H18H13939   6.683   3.422   8.265  1.7225  0.0813 -4.3836
  130OSM      N13940   3.902   4.497   5.719  0.3553 -0.8263 -0.4554
  130OSM    C1513941   3.768   4.545   5.778 -0.2557  0.1253  0.0516
  130OSM   H15A13942   3.786   4.620   5.852  1.0419 -1.9965  2.0099
  130OSM   H15B13943   3.730   4.469   5.845  0.8763  0.0882  0.6637
  130OSM   H15C13944   3.691   4.573   5.707 -1.9411 -1.7318  1.0500
  130OSM    C1413945   3.873   4.376   5.626  0.8899  0.4254  0.1203
  130OSM   H14A13946   3.847   4.291   5.687 -2.9285  1.6650  0.4944
  130OSM   H14B13947   3.961   4.350   5.569  1.9502  0.8352  1.5140
  130OSM   H14C13948   3.798   4.405   5.554 -1.6055 -1.0717  1.9425
  130OSM    C1313949   3.951   4.612   5.641  0.3905 -1.3579  0.0130
  130OSM   H13A13950   3.869   4.637   5.576 -0.8055  0.8858  2.2429
  130OSM   H13B13951   4.042   4.593   5.586  0.6638  1.2552 -0.5588
  130OSM   H13C13952   3.967   4.696   5.707 -0.6121 -0.3877 -0.9463
  130OSM    C1213953   4.001   4.447   5.823 -0.0783  0.8145 -0.5835
  130OSM   H12A13954   4.091   4.418   5.771 -0.1399  0.2740 -0.3942
  130OSM   H12B13955   3.969   4.355   5.871  2.7139  1.5219  3.1350
  130OSM    C1113956   4.024   4.543   5.949 -0.3535  0.2892 -0.7021
  130OSM   H11A13957   4.088   4.497   6.027  0.0454 -0.6511 -1.5426
  130OSM   H11B13958   3.924   4.550   5.996 -0.7546 -2.5176 -0.9528
  130OSM      P13959   4.060   4.785   5.993 -0.2441  0.0704  0.6862
  130OSM    O1313960   4.148   4.899   5.967 -0.7640 -0.4892  0.2223
  130OSM    O1413961   3.915   4.814   5.989 -0.2182  0.6741  0.4465
  130OSM    O1113962   4.091   4.717   6.137 -0.3838  0.1118  0.0100
  130OSM    O1213963   4.085   4.668   5.903  0.2090 -0.0448 -0.4369
  130OSM    C1S13964   4.147   4.795   6.246 -0.6237 -0.1255 -0.7423
  130OSM    H1S13965   4.199   4.886   6.209  3.2625 -1.6556  0.4383
  130OSM    H1T13966   4.214   4.731   6.308 -0.9973 -1.9212 -2.1049
  130OSM     NF13967   4.095   4.906   6.463 -0.0177  0.2694  0.1859
  130OSM    HNF13968   4.110   4.860   6.550  0.0940  0.4942  0.2884
  130OSM    C2S13969   4.036   4.836   6.354 -0.2011  1.1849 -0.7380
  130OSM    H2S13970   3.966   4.906   6.303  0.0078  0.0469 -2.7002
  130OSM    C3S13971   3.965   4.697   6.399  0.5121 -0.6012  0.5692
  130OSM    H3S13972   4.044   4.624   6.428 -1.9471 -4.0552 -0.6427
  130OSM     O313973   3.900   4.619   6.296  0.4489  0.6050 -0.2312
  130OSM    HO313974   3.941   4.649   6.214  0.1613 -1.0470 -1.0272
  130OSM    C4S13975   3.869   4.721   6.510  0.4517 -0.6225 -0.0518
  130OSM    H4S13976   3.910   4.691   6.608  0.7595  2.0040  0.6812
  130OSM    C5S13977   3.750   4.791   6.503 -0.7313 -0.1237  0.1027
  130OSM    H5S13978   3.727   4.844   6.409  0.5804  1.0391  0.4232
  130OSM    C6S13979   3.667   4.808   6.626 -0.1393  0.3289  0.2581
  130OSM    H6S13980   3.581   4.738   6.618 -0.2003  0.2528  1.3303
  130OSM    H6T13981   3.641   4.916   6.628 -1.7222 -0.0203  0.2541
  130OSM    C7S13982   3.732   4.799   6.771 -0.5294 -0.1046  0.6249
  130OSM    H7S13983   3.816   4.871   6.757  1.7180 -2.4823  1.2664
  130OSM    H7T13984   3.764   4.694   6.787 -0.4726 -0.2036 -0.1148
  130OSM    C8S13985   3.637   4.836   6.884  0.4853  0.6683  0.2052
  130OSM    H8S13986   3.551   4.768   6.867  1.8801 -1.0058 -0.4512
  130OSM    H8T13987   3.588   4.935   6.875  0.2896  0.5127 -0.5013
  130OSM    C9S13988   3.685   4.820   7.028  0.0109 -0.0964 -0.0576
  130OSM    H9S13989   3.765   4.889   7.061  2.4817 -3.8236  2.5112
  130OSM    H9T13990   3.726   4.719   7.047 -0.3725 -0.0081  1.3497
  130OSM   C10S13991   3.575   4.843   7.125 -0.3089 -0.3934 -0.6684
  130OSM   H10S13992   3.494   4.767   7.115 -1.2304  0.0452  2.3724
  130OSM   H10T13993   3.527   4.941   7.103  1.9702  0.6983 -1.1421
  130OSM   C11S13994   3.632   4.840   7.269 -0.3109 -0.1256 -0.8742
  130OSM   H11S13995   3.698   4.930   7.269  0.2935 -0.5507 -1.9966
  130OSM   H11T13996   3.695   4.752   7.292  0.6730  1.2903  2.5826
  130OSM   C12S13997   3.513   4.840   7.366 -0.6342 -0.1281 -0.5793
  130OSM   H12S13998   3.457   4.749   7.337  1.4263 -0.6266 -3.4300
  130OSM   H12T13999   3.451   4.932   7.371 -1.8105 -0.8631 -1.3726
  130OSM   C13S14000   3.558   4.825   7.510  0.1528  0.5495 -0.0684
  130OSM   H13S14001   3.562   4.720   7.544  0.4637  0.5210 -0.1913
  130OSM   H13T14002   3.464   4.846   7.566  0.9340 -0.4036  1.7019
  130OSM   C14S14003   3.666   4.924   7.562 -0.1354 -0.0805 -0.7888
  130OSM   H14S14004   3.652   5.024   7.516 -2.2189 -0.0361 -0.1673
  130OSM   H14T14005   3.762   4.878   7.529  0.3971  0.1273  0.4268
  130OSM   C15S14006   3.675   4.937   7.715 -0.1106  0.5487  0.0966
  130OSM   H15S14007   3.583   4.990   7.749  1.0393  1.5945  1.7216
  130OSM   H15T14008   3.765   4.991   7.751 -0.3529  0.4170  0.9151
  130OSM   C16S14009   3.689   4.793   7.783 -0.2441 -0.3696  0.3484
  130OSM   H16S14010   3.769   4.728   7.740 -0.0346 -0.5909  1.0635
  130OSM   H16T14011   3.591   4.742   7.768  0.1245 -1.0211  0.1008
  130OSM   C17S14012   3.717   4.791   7.940 -0.4483 -0.6016  0.5009
  130OSM   H17S14013   3.805   4.858   7.952 -1.0171  0.0274  1.3286
  130OSM   H17T14014   3.729   4.683   7.963 -0.0480 -0.3270  1.6676
  130OSM   C18S14015   3.608   4.840   8.032  0.4839  0.4792  0.1289
  130OSM   H18S14016   3.562   4.937   8.005  1.5161  0.8578 -0.3190
  130OSM   H18T14017   3.633   4.843   8.140 -0.0472  2.1379  0.2369
  130OSM   H18U14018   3.526   4.766   8.022  2.8626 -2.7589  2.5524
  130OSM    C1F14019   4.143   5.031   6.449 -0.5006  0.1749  0.4721
  130OSM     OF14020   4.132   5.095   6.343  0.2907  0.0880 -0.4300
  130OSM    C2F14021   4.226   5.079   6.567 -1.0330  0.0058  0.2329
  130OSM    H2F14022   4.273   4.984   6.599 -4.3469 -2.3369 -1.3180
  130OSM    H2G14023   4.152   5.104   6.646 -3.1242  0.1147 -1.6558
  130OSM    C3F14024   4.336   5.190   6.528 -0.0724  0.3851 -0.2183
  130OSM    H3F14025   4.300   5.286   6.484  1.8242  0.6877 -1.2620
  130OSM    H3G14026   4.402   5.149   6.448 -2.2149 -0.0037 -1.8691
  130OSM    C4F14027   4.417   5.226   6.655 -0.2594 -0.0640 -0.0191
  130OSM    H4F14028   4.509   5.282   6.626  0.1010  0.9242  2.7491
  130OSM    H4G14029   4.437   5.130   6.706 -1.9046 -1.3531 -1.6422
  130OSM    C5F14030   4.347   5.315   6.754  0.6510  0.0608  0.0395
  130OSM    H5F14031   4.257   5.258   6.786  0.0882  2.1688  2.6041
  130OSM    H5G14032   4.308   5.408   6.707  1.1193 -0.8946 -2.4093
  130OSM    C6F14033   4.427   5.353   6.878 -0.2465  0.2160 -0.0301
  130OSM    H6F14034   4.509   5.426   6.862  0.4012 -0.3689  0.5150
  130OSM    H6G14035   4.466   5.257   6.918 -0.6348  0.2609  0.4706
  130OSM    C7F14036   4.330   5.391   6.982 -0.3358 -0.3471  0.3276
  130OSM    H7F14037   4.266   5.301   6.994 -1.3704  0.0776 -1.6746
  130OSM    H7G14038   4.259   5.468   6.945 -0.6689 -1.3427 -1.2079
  130OSM    C8F14039   4.385   5.423   7.122 -0.4810 -0.8948 -0.6189
  130OSM    H8F14040   4.470   5.494   7.112  0.4673 -1.8374  0.5272
  130OSM    H8G14041   4.429   5.332   7.167  0.0254 -0.6767 -0.6706
  130OSM    C9F14042   4.289   5.489   7.219 -0.6667 -0.0951 -0.5407
  130OSM    H9F14043   4.208   5.544   7.170  0.7691  3.1113  0.4014
  130OSM   C10F14044   4.295   5.473   7.355  0.0081  0.4482  0.2242
  130OSM   H10F14045   4.218   5.514   7.422 -1.0948 -2.5442  0.9415
  130OSM   C11F14046   4.406   5.408   7.427  0.3520  0.7939 -0.1586
  130OSM   H11F14047   4.505   5.452   7.402  1.2455  0.3437  2.3347
  130OSM   H11G14048   4.423   5.301   7.401  3.1555  0.7734  1.3157
  130OSM   C12F14049   4.402   5.403   7.580 -0.1310  0.3899  0.0192
  130OSM   H12F14050   4.455   5.312   7.614 -1.4082  0.4695  2.4112
  130OSM   H12G14051   4.297   5.397   7.616  0.0775  0.5318  0.6516
  130OSM   C13F14052   4.483   5.516   7.645 -0.5035 -0.2517 -0.4153
  130OSM   H13F14053   4.584   5.519   7.597 -0.2982  2.2619  0.0644
  130OSM   H13G14054   4.482   5.493   7.753 -4.1030 -2.0847 -0.6814
  130OSM   C14F14055   4.396   5.641   7.641 -0.3606 -0.6479 -0.4711
  130OSM   H14F14056   4.296   5.621   7.686 -0.9559  0.7097 -1.1454
  130OSM   H14G14057   4.371   5.665   7.535 -3.0461  0.8918  0.4063
  130OSM   C15F14058   4.456   5.758   7.721 -0.5207 -0.5405  0.9994
  130OSM   H15F14059   4.499   5.720   7.816 -0.0916 -0.0744  0.9903
  130OSM   H15G14060   4.395   5.850   7.727  0.4832  0.2691 -0.5957
  130OSM   C16F14061   4.581   5.805   7.644 -0.5225 -0.1543  0.1660
  130OSM   H16F14062   4.550   5.823   7.538 -2.8584 -3.5195  0.1060
  130OSM   H16G14063   4.650   5.718   7.638  0.9280  1.0045 -0.6363
  130OSM   C17F14064   4.646   5.931   7.703 -0.8140  0.1799 -0.9504
  130OSM   H17F14065   4.586   6.024   7.700  2.9597  2.9465  0.3729
  130OSM   H17G14066   4.733   5.957   7.639  0.7491  0.2672  1.1141
  130OSM   C18F14067   4.703   5.922   7.851  0.8680 -0.4830 -0.0565
  130OSM   H18F14068   4.745   6.021   7.878  0.9605 -0.0757 -1.6305
  130OSM   H18G14069   4.772   5.839   7.877  0.9607  0.4138  2.9967
  130OSM   H18H14070   4.618   5.909   7.923  0.2566  0.9938 -0.4828
  131OSM      N14071   1.158   6.618   5.726 -0.2141 -0.0453  0.1192
  131OSM    C1514072   1.024   6.604   5.654 -0.2084 -0.0899  0.6622
  131OSM   H15A14073   0.953   6.676   5.691  1.3557  2.6269 -1.2994
  131OSM   H15B14074   0.984   6.507   5.679 -0.2319  0.1671  1.6646
  131OSM   H15C14075   1.037   6.612   5.547 -2.3520 -2.4543  0.1376
  131OSM    C1414076   1.265   6.534   5.658  0.4567  0.4341  0.0375
  131OSM   H14A14077   1.229   6.433   5.641 -0.8963  1.0804 -1.2112
  131OSM   H14B14078   1.356   6.525   5.716  1.6864  0.4775 -1.7964
  131OSM   H14C14079   1.293   6.586   5.568 -2.7052  3.3349  0.5221
  131OSM    C1314080   1.201   6.760   5.720 -0.0991 -0.3583  0.8628
  131OSM   H13A14081   1.236   6.782   5.621  0.2938 -3.2020  0.2827
  131OSM   H13B14082   1.282   6.773   5.790 -0.1164  0.3624  0.7558
  131OSM   H13C14083   1.125   6.833   5.743  0.0990  1.3112 -3.0872
  131OSM    C1214084   1.125   6.580   5.869 -0.0222  0.0708 -0.5363
  131OSM   H12A14085   1.078   6.483   5.880 -0.6727  0.1138 -2.4847
  131OSM   H12B14086   1.050   6.648   5.905  2.6324  1.5211  2.8406
  131OSM    C1114087   1.242   6.589   5.969 -0.6096 -0.2392 -0.6386
  131OSM   H11A14088   1.194   6.595   6.069  0.1072 -1.4886 -0.1992
  131OSM   H11B14089   1.311   6.676   5.957  0.7194 -1.2222 -0.3925
  131OSM      P14090   1.264   6.331   6.013 -0.4101 -0.2820 -0.2524
  131OSM    O1314091   1.131   6.307   5.965 -0.3667  0.5280 -0.0085
  131OSM    O1414092   1.370   6.227   5.991  0.4462  0.0395 -0.1027
  131OSM    O1114093   1.266   6.351   6.168 -0.4169 -0.2829 -0.0942
  131OSM    O1214094   1.327   6.473   5.956  0.6162  0.4298  0.3848
  131OSM    C1S14095   1.356   6.279   6.261  0.3955 -0.0760 -0.0501
  131OSM    H1S14096   1.458   6.322   6.258  0.9769 -1.4375 -0.6053
  131OSM    H1T14097   1.362   6.169   6.248  0.1892 -0.4228  2.3777
  131OSM     NF14098   1.400   6.236   6.498 -0.4640 -0.0218  0.4406
  131OSM    HNF14099   1.397   6.139   6.520 -3.6257 -0.0417  0.4338
  131OSM    C2S14100   1.300   6.287   6.411 -0.2621  0.1762 -0.3180
  131OSM    H2S14101   1.282   6.396   6.428  1.7801  0.6732 -1.0457
  131OSM    C3S14102   1.167   6.211   6.424 -0.7951 -0.3671 -0.3428
  131OSM    H3S14103   1.200   6.112   6.384  0.4725  0.3990 -1.2520
  131OSM     O314104   1.068   6.257   6.333  0.2517 -0.0961  0.4751
  131OSM    HO314105   1.126   6.293   6.264 -0.3345 -0.6456 -0.3196
  131OSM    C4S14106   1.115   6.211   6.563 -0.2366 -0.4175  0.0729
  131OSM    H4S14107   1.161   6.138   6.630  0.5735  1.1250  1.2643
  131OSM    C5S14108   1.016   6.274   6.624  0.4107  0.1540  0.2754
  131OSM    H5S14109   0.946   6.338   6.567  0.1665 -0.7517 -0.4779
  131OSM    C6S14110   0.968   6.249   6.767  0.2937 -0.1439  0.5810
  131OSM    H6S14111   0.873   6.191   6.766 -1.2412  2.2121 -0.4988
  131OSM    H6T14112   0.932   6.343   6.814 -1.0004  0.4091 -1.3497
  131OSM    C7S14113   1.063   6.182   6.865  0.3567  0.5080  0.0300
  131OSM    H7S14114   1.163   6.228   6.874  0.3457  0.1585  3.3712
  131OSM    H7T14115   1.091   6.078   6.837  0.1477 -0.0035  1.5728
  131OSM    C8S14116   1.008   6.180   7.003 -0.0773 -1.0949 -0.4679
  131OSM    H8S14117   0.911   6.127   7.012  0.8315 -2.5333  1.8892
  131OSM    H8T14118   0.989   6.285   7.033  0.5904 -1.4485  1.3587
  131OSM    C9S14119   1.113   6.124   7.106  0.3993 -0.1893 -0.5565
  131OSM    H9S14120   1.216   6.163   7.094  1.1989 -0.7634  3.3089
  131OSM    H9T14121   1.096   6.015   7.105 -0.3906 -0.1712  2.1745
  131OSM   C10S14122   1.065   6.149   7.255  0.3667 -0.0369  0.0984
  131OSM   H10S14123   0.965   6.102   7.264  0.3896 -0.6114 -2.0388
  131OSM   H10T14124   1.071   6.255   7.287 -2.3629  0.4383 -0.7578
  131OSM   C11S14125   1.158   6.073   7.349 -0.2770  0.0242 -0.0472
  131OSM   H11S14126   1.260   6.117   7.344  0.2148 -0.7729  2.0228
  131OSM   H11T14127   1.166   5.965   7.326 -2.0267 -0.2147  0.4020
  131OSM   C12S14128   1.116   6.086   7.491  1.6153 -0.0201  0.4250
  131OSM   H12S14129   1.011   6.049   7.493  1.3947  0.5973  0.8225
  131OSM   H12T14130   1.114   6.192   7.526 -0.7518 -0.1133  0.7977
  131OSM   C13S14131   1.196   6.003   7.594  0.1266 -0.1598 -0.1792
  131OSM   H13S14132   1.292   6.053   7.617  0.5903 -1.0536 -0.1458
  131OSM   H13T14133   1.218   5.905   7.546  0.0606 -1.0104  1.4742
  131OSM   C14S14134   1.116   5.976   7.725  0.7881 -0.0459 -0.0152
  131OSM   H14S14135   1.023   5.922   7.698  2.7575 -3.5274 -0.3771
  131OSM   H14T14136   1.089   6.075   7.767  0.4270  0.8126 -2.1697
  131OSM   C15S14137   1.197   5.885   7.819 -0.7080 -0.5740 -0.0901
  131OSM   H15S14138   1.292   5.937   7.842  1.0163 -2.6604 -2.0423
  131OSM   H15T14139   1.214   5.783   7.778  1.9914 -0.2309 -0.0067
  131OSM   C16S14140   1.117   5.860   7.947 -1.0454 -0.4625  0.5544
  131OSM   H16S14141   1.032   5.802   7.907 -1.1925 -1.6254  2.4236
  131OSM   H16T14142   1.086   5.955   7.995  1.4685 -0.8361  3.2099
  131OSM   C17S14143   1.186   5.781   8.058  0.4900  0.2784 -0.2107
  131OSM   H17S14144   1.242   5.689   8.030  1.2222 -0.1401  2.3249
  131OSM   H17T14145   1.107   5.755   8.131 -0.2854 -0.4647 -1.2826
  131OSM   C18S14146   1.296   5.872   8.118  0.4246 -0.6920  0.1047
  131OSM   H18S14147   1.262   5.961   8.175  0.7036 -1.1146  0.9354
  131OSM   H18T14148   1.369   5.907   8.041  1.2338  0.2037  1.2457
  131OSM   H18U14149   1.356   5.812   8.189  1.8543  2.7834  2.0870
  131OSM    C1F14150   1.502   6.305   6.545 -0.7341 -0.0436  0.2775
  131OSM     OF14151   1.536   6.413   6.499 -0.1118 -0.1585  0.4816
  131OSM    C2F14152   1.587   6.249   6.654  0.3561 -0.6080 -0.2399
  131OSM    H2F14153   1.638   6.331   6.708  0.9795 -1.3364  0.3102
  131OSM    H2G14154   1.665   6.176   6.622  2.8578  0.2301  3.3019
  131OSM    C3F14155   1.503   6.176   6.753  0.0279  0.7326 -0.0404
  131OSM    H3F14156   1.481   6.075   6.712 -0.9674  0.1084  1.8771
  131OSM    H3G14157   1.413   6.233   6.787  0.2310  0.3301  1.2404
  131OSM    C4F14158   1.575   6.142   6.877  0.4525  0.1694  0.4283
  131OSM    H4F14159   1.648   6.223   6.895  1.0952  0.2641 -2.1444
  131OSM    H4G14160   1.646   6.058   6.858  2.8167  1.4655  2.8646
  131OSM    C5F14161   1.471   6.116   6.994 -0.6679  0.0388 -1.0083
  131OSM    H5F14162   1.392   6.193   6.983  0.4289  1.4312  0.2327
  131OSM    H5G14163   1.521   6.154   7.086  0.4746  0.1779 -1.6643
  131OSM    C6F14164   1.418   5.973   7.000 -0.2447 -0.0416  0.4962
  131OSM    H6F14165   1.384   5.932   6.902 -1.8824 -1.7602  1.7266
  131OSM    H6G14166   1.329   5.959   7.065  0.9327  1.1628  2.4670
  131OSM    C7F14167   1.518   5.863   7.055  0.3002 -0.5697 -0.3638
  131OSM    H7F14168   1.595   5.841   6.979 -0.6952 -1.2128 -1.2210
  131OSM    H7G14169   1.450   5.775   7.065 -1.8471  1.0539  0.1517
  131OSM    C8F14170   1.587   5.905   7.181 -0.2421 -0.0083 -0.7701
  131OSM    H8F14171   1.666   5.977   7.152  0.4330 -1.1349 -1.8084
  131OSM    H8G14172   1.644   5.817   7.220  0.6314  0.5134 -0.8472
  131OSM    C9F14173   1.507   5.960   7.290  0.4845  0.0550  0.0384
  131OSM    H9F14174   1.421   6.019   7.254 -0.2787 -0.1759  1.4183
  131OSM   C10F14175   1.521   5.948   7.425 -0.4455  0.6623  0.0253
  131OSM   H10F14176   1.454   6.009   7.488 -0.4401  0.2745  0.4122
  131OSM   C11F14177   1.626   5.864   7.500  0.7364  0.1398  0.1175
  131OSM   H11F14178   1.699   5.801   7.444  0.6526 -0.7877  1.0133
  131OSM   H11G14179   1.580   5.793   7.572  0.3893  0.1966 -0.0519
  131OSM   C12F14180   1.717   5.958   7.569  0.1791 -0.1838  0.0655
  131OSM   H12F14181   1.781   5.896   7.636 -0.2833 -2.1942 -1.2757
  131OSM   H12G14182   1.663   6.030   7.635  0.3640 -0.2873  0.3350
  131OSM   C13F14183   1.796   6.041   7.472  0.1803 -0.0828  0.0505
  131OSM   H13F14184   1.725   6.101   7.413 -0.9860 -1.8313 -0.4056
  131OSM   H13G14185   1.852   5.975   7.402  1.7610  0.8541  0.3620
  131OSM   C14F14186   1.897   6.137   7.541 -0.6772  0.8984 -0.2343
  131OSM   H14F14187   1.841   6.199   7.615 -0.7131 -0.3170  0.7941
  131OSM   H14G14188   1.932   6.203   7.459  1.0044  0.9139  0.4623
  131OSM   C15F14189   2.015   6.070   7.600 -0.0989 -0.0048 -0.1822
  131OSM   H15F14190   2.056   5.982   7.545  0.2944  0.1103 -0.0736
  131OSM   H15G14191   1.977   6.023   7.693 -0.1719  0.1583 -0.1304
  131OSM   C16F14192   2.122   6.168   7.641 -0.4483 -0.0770  0.4022
  131OSM   H16F14193   2.090   6.230   7.728  1.5093  2.3325 -0.4655
  131OSM   H16G14194   2.142   6.232   7.553  0.5334 -1.7516 -0.6402
  131OSM   C17F14195   2.257   6.104   7.682 -0.7967  0.0552 -0.4411
  131OSM   H17F14196   2.332   6.181   7.711 -1.0896 -0.0107  0.5417
  131OSM   H17G14197   2.302   6.053   7.594 -2.5203 -1.3950 -0.5431
  131OSM   C18F14198   2.239   5.999   7.795  0.4182  0.0588 -0.4170
  131OSM   H18F14199   2.208   5.896   7.769  0.1036  0.4948 -1.8914
  131OSM   H18G14200   2.161   6.038   7.863 -1.7336 -2.1484 -1.5031
  131OSM   H18H14201   2.337   5.989   7.847 -0.0681 -0.6372  0.3769
  132OSM      N14202   1.780   3.547   5.947 -0.7022 -0.4605  0.2348
  132OSM    C1514203   1.843   3.430   5.882  0.4347  0.1254  0.1690
  132OSM   H15A14204   1.939   3.403   5.923  0.5101  1.4259  0.9199
  132OSM   H15B14205   1.853   3.428   5.775  0.2509 -2.2329  0.1395
  132OSM   H15C14206   1.788   3.340   5.906  2.8433 -1.3148  0.5848
  132OSM    C1414207   1.865   3.663   5.905  0.1274 -0.3410  0.1800
  132OSM   H14A14208   1.863   3.673   5.798  2.7308  1.3778  0.1934
  132OSM   H14B14209   1.967   3.650   5.939  0.7436  1.1724 -1.0066
  132OSM   H14C14210   1.820   3.754   5.941 -0.6918 -0.8594  0.4752
  132OSM    C1314211   1.641   3.572   5.887 -1.1114  0.1698  0.8381
  132OSM   H13A14212   1.575   3.488   5.904  0.0038 -0.8466  0.3628
  132OSM   H13B14213   1.663   3.570   5.781  2.0275  0.4452  1.4008
  132OSM   H13C14214   1.599   3.664   5.923 -3.3407  0.2546 -1.6532
  132OSM    C1214215   1.767   3.534   6.096  0.3688 -0.3610  0.0948
  132OSM   H12A14216   1.746   3.632   6.135  0.0172 -0.2440 -0.3898
  132OSM   H12B14217   1.861   3.503   6.141 -0.1142  0.1525  1.5111
  132OSM    C1114218   1.662   3.437   6.156  0.9740  0.4504 -0.3092
  132OSM   H11A14219   1.556   3.462   6.133  0.3564 -1.2640  0.5011
  132OSM   H11B14220   1.675   3.451   6.265 -3.6335 -0.5790  0.5761
  132OSM      P14221   1.587   3.215   6.050 -0.2859 -0.1906 -0.3863
  132OSM    O1314222   1.544   3.275   5.926 -0.0909 -0.1382 -0.0664
  132OSM    O1414223   1.626   3.074   6.031 -0.4135 -0.1194 -0.0913
  132OSM    O1114224   1.459   3.227   6.162 -0.2184 -0.5104  0.4789
  132OSM    O1214225   1.690   3.303   6.123 -0.2011 -1.0860  0.3833
  132OSM    C1S14226   1.473   3.139   6.274  0.3953  0.3475 -0.4736
  132OSM    H1S14227   1.580   3.136   6.301  0.1687 -3.5731  0.5818
  132OSM    H1T14228   1.432   3.039   6.248 -1.1334  0.6378  0.6414
  132OSM     NF14229   1.420   3.087   6.498  0.1970 -0.0054  0.3393
  132OSM    HNF14230   1.351   3.018   6.517  0.6969 -0.0653  2.1591
  132OSM    C2S14231   1.386   3.188   6.397 -0.6015 -0.4951  0.2508
  132OSM    H2S14232   1.422   3.290   6.420  1.2347 -1.0612  0.0319
  132OSM    C3S14233   1.236   3.200   6.352 -0.6922  0.1587  0.5472
  132OSM    H3S14234   1.202   3.097   6.327  2.1507 -1.0584  1.2473
  132OSM     O314235   1.205   3.266   6.228 -0.2159 -0.1395 -0.0639
  132OSM    HO314236   1.290   3.278   6.186  0.5596  0.2828  1.5320
  132OSM    C4S14237   1.158   3.270   6.470 -0.4351  0.2074  0.1653
  132OSM    H4S14238   1.202   3.358   6.519 -0.5402  0.1788  0.3112
  132OSM    C5S14239   1.056   3.212   6.539  0.2413 -0.0268 -0.1652
  132OSM    H5S14240   1.009   3.119   6.504  0.0378  0.9141 -2.6030
  132OSM    C6S14241   0.997   3.287   6.656 -0.2576 -0.1031 -0.8309
  132OSM    H6S14242   0.895   3.316   6.625 -1.6653 -2.2112  1.4585
  132OSM    H6T14243   1.054   3.376   6.690  1.1688 -0.7818 -1.3429
  132OSM    C7S14244   0.990   3.202   6.787 -0.5913 -0.2071  0.3544
  132OSM    H7S14245   1.093   3.159   6.787 -1.2364 -1.8862 -1.4380
  132OSM    H7T14246   0.920   3.121   6.757  1.2559 -1.0010 -2.1962
  132OSM    C8S14247   0.949   3.295   6.905  0.0495 -0.1729  0.1472
  132OSM    H8S14248   0.858   3.353   6.879  0.9468  0.8653 -0.7482
  132OSM    H8T14249   1.041   3.355   6.919 -0.6180  1.1055 -0.7156
  132OSM    C9S14250   0.909   3.208   7.021 -0.5755 -0.5874  0.3177
  132OSM    H9S14251   0.994   3.139   7.042  0.4051  0.9070  1.4433
  132OSM    H9T14252   0.826   3.138   6.999 -0.1300 -0.8909 -0.4612
  132OSM   C10S14253   0.882   3.284   7.149  0.7269 -0.0329  0.1406
  132OSM   H10S14254   0.795   3.354   7.144  0.9712  0.1823 -1.5368
  132OSM   H10T14255   0.965   3.347   7.185  0.3440  0.1596  0.7074
  132OSM   C11S14256   0.841   3.196   7.270  0.0428 -0.1017  0.7234
  132OSM   H11S14257   0.925   3.125   7.283  0.3125 -0.3681 -1.9769
  132OSM   H11T14258   0.748   3.137   7.250 -1.1549  1.3609  1.7331
  132OSM   C12S14259   0.802   3.266   7.405  0.1408  0.1902 -0.6479
  132OSM   H12S14260   0.702   3.312   7.394 -1.0057 -2.2245 -0.9090
  132OSM   H12T14261   0.882   3.339   7.429  0.7486 -0.6679  0.0071
  132OSM   C13S14262   0.813   3.178   7.531  0.2159 -0.1217  0.5421
  132OSM   H13S14263   0.910   3.126   7.545  0.3283  0.5642  2.6364
  132OSM   H13T14264   0.744   3.092   7.521 -1.9675  1.7742 -2.2138
  132OSM   C14S14265   0.785   3.249   7.660  0.1617  0.2648  0.9267
  132OSM   H14S14266   0.690   3.305   7.649  0.6705  1.1427  0.9353
  132OSM   H14T14267   0.864   3.325   7.679  0.8224 -0.2811  0.4431
  132OSM   C15S14268   0.774   3.151   7.774 -0.3693  0.3252  0.0043
  132OSM   H15S14269   0.857   3.079   7.760 -2.4851 -1.7895 -2.4364
  132OSM   H15T14270   0.673   3.105   7.779 -0.0838 -0.2332  0.9997
  132OSM   C16S14271   0.803   3.214   7.914  0.0016  0.1055  0.3837
  132OSM   H16S14272   0.733   3.299   7.930 -0.0872  0.0267  0.4161
  132OSM   H16T14273   0.909   3.246   7.914  0.2941 -0.7876  1.8395
  132OSM   C17S14274   0.783   3.112   8.024 -0.4812  1.0868  0.3138
  132OSM   H17S14275   0.865   3.038   8.019 -0.1196  1.4691  0.4820
  132OSM   H17T14276   0.684   3.063   8.033  0.1753 -0.2062  0.8046
  132OSM   C18S14277   0.794   3.189   8.158 -0.0570  0.2191 -0.1824
  132OSM   H18S14278   0.711   3.261   8.173  0.3837  0.3628  1.8527
  132OSM   H18T14279   0.879   3.257   8.177  0.5656 -1.0248  1.8457
  132OSM   H18U14280   0.782   3.124   8.248  0.9089  1.4710  0.8862
  132OSM    C1F14281   1.523   3.109   6.577 -0.1527  0.4997  0.0246
  132OSM     OF14282   1.603   3.204   6.566  0.6616  0.4673  0.0061
  132OSM    C2F14283   1.545   3.010   6.682 -0.0803 -0.4539  0.1741
  132OSM    H2F14284   1.641   2.957   6.664  0.2181 -0.9883  2.9016
  132OSM    H2G14285   1.471   2.928   6.694 -0.9762  0.5170  1.6356
  132OSM    C3F14286   1.549   3.079   6.829  0.1872  0.3456  0.3592
  132OSM    H3F14287   1.645   3.134   6.834 -1.3520  3.3057 -0.2397
  132OSM    H3G14288   1.554   2.988   6.891  2.6219 -0.0884 -0.3729
  132OSM    C4F14289   1.419   3.150   6.877 -0.3902  0.0460 -0.5198
  132OSM    H4F14290   1.333   3.082   6.853 -1.1591  0.2706  1.4121
  132OSM    H4G14291   1.404   3.243   6.819 -1.0224 -0.5635 -1.3791
  132OSM    C5F14292   1.419   3.179   7.036 -0.1794 -0.2821  0.3434
  132OSM    H5F14293   1.496   3.258   7.051 -0.1940  0.1599 -1.5945
  132OSM    H5G14294   1.455   3.090   7.092  0.6890 -0.4451 -0.4420
  132OSM    C6F14295   1.283   3.219   7.096 -0.5243 -0.5135  0.2820
  132OSM    H6F14296   1.222   3.126   7.093 -0.5898 -0.4823  0.6591
  132OSM    H6G14297   1.249   3.294   7.021  2.3695  0.4538 -0.1874
  132OSM    C7F14298   1.280   3.277   7.238  0.1589  0.0420 -0.0272
  132OSM    H7F14299   1.175   3.307   7.259  0.1941 -0.0797  0.3309
  132OSM    H7G14300   1.345   3.367   7.231 -0.1306  0.3675  1.3290
  132OSM    C8F14301   1.327   3.181   7.345 -0.4098 -0.8201 -0.5077
  132OSM    H8F14302   1.429   3.154   7.310  0.5035 -0.5382  1.7436
  132OSM    H8G14303   1.255   3.097   7.344 -3.5906  1.6021  2.4745
  132OSM    C9F14304   1.329   3.246   7.478  0.7562  0.1432  0.4013
  132OSM    H9F14305   1.345   3.354   7.480  1.3203  0.1321 -1.6012
  132OSM   C10F14306   1.303   3.175   7.595 -0.7951 -0.6028  0.0860
  132OSM   H10F14307   1.315   3.244   7.680  1.7443  0.5424 -1.0625
  132OSM   C11F14308   1.268   3.028   7.618 -0.3004 -0.2763 -0.8485
  132OSM   H11F14309   1.359   2.965   7.629  0.7869  1.3633  0.1241
  132OSM   H11G14310   1.217   2.990   7.527  1.4549  0.7009 -2.3280
  132OSM   C12F14311   1.202   2.997   7.752 -0.2221  0.2094 -0.0259
  132OSM   H12F14312   1.181   2.888   7.758 -1.6480  0.5156  0.8225
  132OSM   H12G14313   1.102   3.045   7.762 -0.8990 -1.3229  0.9268
  132OSM   C13F14314   1.295   3.032   7.874 -0.5998  0.1059  0.2046
  132OSM   H13F14315   1.326   3.138   7.864  0.2963 -0.0525  1.0191
  132OSM   H13G14316   1.384   2.965   7.874  0.0854  0.9817 -0.6977
  132OSM   C14F14317   1.238   3.020   8.015 -0.1748  0.7206 -0.5605
  132OSM   H14F14318   1.141   3.075   8.014  0.4110  1.8857  1.5391
  132OSM   H14G14319   1.307   3.070   8.086 -0.4926  0.4076 -0.0247
  132OSM   C15F14320   1.218   2.887   8.078 -0.3072  0.3073  0.0533
  132OSM   H15F14321   1.322   2.855   8.098 -0.0450  0.9235 -0.2982
  132OSM   H15G14322   1.177   2.806   8.014  0.1570  0.0700  0.0577
  132OSM   C16F14323   1.139   2.898   8.209  0.6762 -0.6925  0.1052
  132OSM   H16F14324   1.032   2.912   8.184  0.8054 -0.0238 -0.1122
  132OSM   H16G14325   1.171   2.981   8.277 -1.3977  0.1364  0.1491
  132OSM   C17F14326   1.149   2.766   8.286 -0.1561 -0.3457 -0.3244
  132OSM   H17F14327   1.255   2.737   8.302 -0.7704 -1.8079  1.5059
  132OSM   H17G14328   1.098   2.681   8.236 -0.2414 -0.6264  0.2337
  132OSM   C18F14329   1.086   2.779   8.427 -0.1561  1.0624  0.0338
  132OSM   H18F14330   1.123   2.862   8.491  1.0926  0.0606  0.6452
  132OSM   H18G14331   1.097   2.690   8.492 -0.3289  2.2670  1.7726
  132OSM   H18H14332   0.978   2.802   8.411 -0.6631 -0.1258  1.5342
  133OSM      N14333   1.271   3.029   5.833 -0.0651  0.2000 -0.2658
  133OSM    C1514334   1.277   3.173   5.796  0.2342  0.3287  0.0733
  133OSM   H15A14335   1.180   3.219   5.794  0.6769  2.0348  4.7980
  133OSM   H15B14336   1.318   3.189   5.698 -1.2737 -0.6601 -0.7591
  133OSM   H15C14337   1.325   3.247   5.858  1.3836  1.1029 -1.6735
  133OSM    C1414338   1.175   2.949   5.738 -0.3291  0.0865 -0.0377
  133OSM   H14A14339   1.215   2.964   5.638  1.5133 -2.2893  0.2540
  133OSM   H14B14340   1.073   2.983   5.745 -0.0324  0.7722  1.3226
  133OSM   H14C14341   1.182   2.846   5.770  1.6453  0.0745 -0.3395
  133OSM    C1314342   1.411   2.969   5.820  0.4592  0.2357 -0.4349
  133OSM   H13A14343   1.441   2.972   5.717  2.1649 -0.4485  0.0060
  133OSM   H13B14344   1.413   2.865   5.851 -2.1532 -0.8206 -3.3361
  133OSM   H13C14345   1.490   3.022   5.870 -0.6908 -0.2057  2.0168
  133OSM    C1214346   1.218   3.014   5.974  0.2579 -0.2362 -0.6010
  133OSM   H12A14347   1.122   3.062   5.986 -0.1681 -1.4787  1.4286
  133OSM   H12B14348   1.285   3.076   6.033 -1.5345  1.9446 -0.7363
  133OSM    C1114349   1.218   2.872   6.045  0.1186  0.2761  0.2359
  133OSM   H11A14350   1.200   2.885   6.154  0.1987 -2.4795  0.6567
  133OSM   H11B14351   1.320   2.828   6.035  1.2493  2.6907  0.4179
  133OSM      P14352   0.968   2.807   6.021  0.2191 -0.4021  0.3978
  133OSM    O1314353   0.922   2.910   5.923 -0.6129  0.3575 -0.5100
  133OSM    O1414354   0.902   2.675   6.018 -0.4682  0.4779 -0.0586
  133OSM    O1114355   0.963   2.869   6.173 -0.5053 -0.0009  0.6707
  133OSM    O1214356   1.124   2.779   5.992  0.2522  0.1817 -0.4231
  133OSM    C1S14357   0.977   2.782   6.284 -0.4828 -0.6028  0.4473
  133OSM    H1S14358   1.085   2.762   6.302 -0.4364  0.6791  1.7287
  133OSM    H1T14359   0.917   2.688   6.280  0.2591 -1.2675  2.9977
  133OSM     NF14360   0.987   2.799   6.539  0.2831  0.7461  0.3427
  133OSM    HNF14361   0.919   2.760   6.600 -1.8657  2.1757 -1.0270
  133OSM    C2S14362   0.922   2.847   6.415  0.4178 -0.2650  0.2718
  133OSM    H2S14363   0.962   2.948   6.393 -0.0305 -0.1566 -0.0670
  133OSM    C3S14364   0.765   2.849   6.417  0.6078  0.0310 -0.2017
  133OSM    H3S14365   0.736   2.742   6.429  0.1220 -0.0978 -2.2562
  133OSM     O314366   0.697   2.867   6.287 -0.2983  0.1991  0.3973
  133OSM    HO314367   0.751   2.865   6.208 -0.6819  0.3093  0.1305
  133OSM    C4S14368   0.709   2.938   6.526 -0.1413  0.0708 -0.2203
  133OSM    H4S14369   0.676   2.888   6.618 -2.2537 -3.0316 -2.4118
  133OSM    C5S14370   0.679   3.067   6.513  0.8486 -0.4192  0.1399
  133OSM    H5S14371   0.688   3.120   6.416  2.0651 -0.0503  0.4397
  133OSM    C6S14372   0.631   3.153   6.632  0.3170 -0.5295 -0.4816
  133OSM    H6S14373   0.563   3.233   6.595 -0.2480 -0.9903 -0.4528
  133OSM    H6T14374   0.707   3.213   6.687  0.1554  0.8653 -1.7159
  133OSM    C7S14375   0.552   3.084   6.742  0.0701 -0.3825 -0.2365
  133OSM    H7S14376   0.610   3.018   6.810 -0.6884 -0.9171 -0.0952
  133OSM    H7T14377   0.474   3.016   6.701 -2.3083  0.3801  2.6778
  133OSM    C8S14378   0.480   3.195   6.822  0.2350  0.5743  0.8435
  133OSM    H8S14379   0.413   3.246   6.749  2.2108  0.4368 -1.1769
  133OSM    H8T14380   0.557   3.267   6.858  4.3754 -1.5823 -2.6927
  133OSM    C9S14381   0.401   3.153   6.947 -0.0947  0.8980  0.0476
  133OSM    H9S14382   0.349   3.056   6.933  2.0389 -0.2295 -0.5100
  133OSM    H9T14383   0.320   3.229   6.947 -0.7752  0.2066 -1.3276
  133OSM   C10S14384   0.476   3.161   7.085  0.3805 -0.2050 -0.9218
  133OSM   H10S14385   0.516   3.264   7.097 -0.2755 -0.1759  1.7076
  133OSM   H10T14386   0.556   3.084   7.088 -0.5746 -1.2395 -1.3733
  133OSM   C11S14387   0.381   3.132   7.209  0.3746 -0.2399  0.9499
  133OSM   H11S14388   0.368   3.023   7.194  1.0303  0.0558 -3.1090
  133OSM   H11T14389   0.286   3.186   7.188 -0.6687 -2.4716 -0.5179
  133OSM   C12S14390   0.452   3.167   7.336  0.2857 -0.1036 -0.1377
  133OSM   H12S14391   0.498   3.268   7.337 -2.9224  1.5074  2.0993
  133OSM   H12T14392   0.539   3.099   7.345  1.1998  1.1947  1.1145
  133OSM   C13S14393   0.362   3.149   7.458 -0.0322 -0.0577  0.0475
  133OSM   H13S14394   0.290   3.069   7.431 -1.1059  1.3416 -1.4512
  133OSM   H13T14395   0.303   3.242   7.474  2.5513  1.9629 -1.4977
  133OSM   C14S14396   0.447   3.121   7.583 -0.3616 -0.2162 -0.2818
  133OSM   H14S14397   0.527   3.198   7.593 -0.7390 -0.0765  2.4263
  133OSM   H14T14398   0.499   3.023   7.579  1.8765  0.9488 -2.5712
  133OSM   C15S14399   0.350   3.119   7.705 -0.2857 -0.3165 -0.0814
  133OSM   H15S14400   0.280   3.033   7.702  0.5826 -1.0010 -1.7275
  133OSM   H15T14401   0.292   3.214   7.709  1.9254  1.0656  1.1556
  133OSM   C16S14402   0.424   3.103   7.843  0.5204 -0.6462  0.1709
  133OSM   H16S14403   0.467   3.197   7.884 -2.3192  0.0572  1.8650
  133OSM   H16T14404   0.499   3.024   7.825  0.8478 -0.3648  0.2781
  133OSM   C17S14405   0.326   3.052   7.949  0.1858  0.3101  0.0222
  133OSM   H17S14406   0.297   2.949   7.923  0.3427  0.3836 -0.4499
  133OSM   H17T14407   0.235   3.114   7.961 -1.4123 -2.1972  1.7385
  133OSM   C18S14408   0.390   3.039   8.095 -0.3235 -0.7355  0.2010
  133OSM   H18S14409   0.483   2.978   8.097  0.1280 -0.1482 -1.1685
  133OSM   H18T14410   0.318   2.990   8.163  1.2136 -1.9119  1.0373
  133OSM   H18U14411   0.428   3.138   8.130 -1.6382  0.3096 -1.1893
  133OSM    C1F14412   1.116   2.810   6.576  0.1932 -0.1855 -0.2756
  133OSM     OF14413   1.195   2.892   6.526  0.0872  0.0086 -0.3471
  133OSM    C2F14414   1.154   2.727   6.694 -0.3937 -0.2743  0.3484
  133OSM    H2F14415   1.227   2.649   6.665 -0.3910 -0.2778  0.3647
  133OSM    H2G14416   1.066   2.667   6.728  0.1051  0.3696  2.9900
  133OSM    C3F14417   1.213   2.797   6.814  0.0246 -0.3874 -0.5591
  133OSM    H3F14418   1.146   2.879   6.850  0.5192 -0.9271  1.7560
  133OSM    H3G14419   1.315   2.835   6.794  0.6073 -0.0994  2.4779
  133OSM    C4F14420   1.259   2.700   6.928 -0.1404 -0.3566  0.2770
  133OSM    H4F14421   1.343   2.640   6.887  1.7514  1.1911  1.6682
  133OSM    H4G14422   1.176   2.631   6.956 -1.2036  1.4537  1.8910
  133OSM    C5F14423   1.323   2.773   7.039  0.3831 -0.0654 -0.1854
  133OSM    H5F14424   1.283   2.872   7.068  3.2729  0.9102  0.7961
  133OSM    H5G14425   1.424   2.813   7.014 -0.6647  2.3403 -0.8289
  133OSM    C6F14426   1.325   2.699   7.169 -0.2833  0.8197 -0.7958
  133OSM    H6F14427   1.364   2.596   7.162 -0.4712  0.8402 -3.0024
  133OSM    H6G14428   1.223   2.696   7.214  0.0710  2.9480  0.2958
  133OSM    C7F14429   1.414   2.764   7.284  0.1437  0.3137 -0.1426
  133OSM    H7F14430   1.368   2.864   7.305  0.2097  1.1305 -3.3873
  133OSM    H7G14431   1.514   2.780   7.239  0.2376 -2.6029 -1.1635
  133OSM    C8F14432   1.405   2.679   7.413 -0.0809 -0.0763 -0.2151
  133OSM    H8F14433   1.477   2.727   7.483 -0.4261  1.0418 -0.6040
  133OSM    H8G14434   1.442   2.577   7.388 -1.8000 -0.5086 -1.1634
  133OSM    C9F14435   1.268   2.681   7.483  0.5221  0.3747  0.4996
  133OSM    H9F14436   1.185   2.711   7.417  0.1120  1.1871  1.3577
  133OSM   C10F14437   1.238   2.635   7.604  0.3688  0.4839 -0.4767
  133OSM   H10F14438   1.134   2.644   7.640  0.4144 -0.9625  0.0817
  133OSM   C11F14439   1.331   2.568   7.706  0.0213  0.3487  0.1841
  133OSM   H11F14440   1.416   2.521   7.653  0.2171 -1.1124  1.6875
  133OSM   H11G14441   1.289   2.478   7.756  1.8439  0.1282  1.4117
  133OSM   C12F14442   1.387   2.667   7.809 -0.0332  0.2474  0.6900
  133OSM   H12F14443   1.304   2.706   7.871 -1.4648  0.9215 -1.5502
  133OSM   H12G14444   1.422   2.751   7.745 -1.0146 -0.5399 -0.9496
  133OSM   C13F14445   1.504   2.607   7.895  0.9242  0.3335 -0.0667
  133OSM   H13F14446   1.567   2.542   7.832 -1.1516 -0.0017 -1.9088
  133OSM   H13G14447   1.468   2.531   7.967  0.9045 -0.7414 -1.1846
  133OSM   C14F14448   1.577   2.714   7.976 -0.0989  0.4100  0.1088
  133OSM   H14F14449   1.507   2.782   8.029  0.5586  1.5143 -0.4083
  133OSM   H14G14450   1.635   2.783   7.911 -0.5192 -0.3115 -1.0818
  133OSM   C15F14451   1.684   2.650   8.072 -0.0885  0.2774  0.4589
  133OSM   H15F14452   1.738   2.585   7.999 -0.9561 -1.3546  1.2100
  133OSM   H15G14453   1.632   2.584   8.145 -0.0323  0.2379  0.4626
  133OSM   C16F14454   1.768   2.749   8.151 -0.1728  0.0214  0.3114
  133OSM   H16F14455   1.709   2.803   8.228  0.1368 -1.7813  1.9155
  133OSM   H16G14456   1.800   2.827   8.079 -1.5874  1.0003  0.6894
  133OSM   C17F14457   1.883   2.687   8.219 -0.6585  0.9821  0.3233
  133OSM   H17F14458   1.947   2.635   8.144 -0.7910  3.4049 -1.6039
  133OSM   H17G14459   1.855   2.611   8.295 -2.0152 -0.2360 -1.3133
  133OSM   C18F14460   1.977   2.791   8.272 -0.2570  0.4560 -0.0181
  133OSM   H18F14461   1.933   2.852   8.354 -0.2914  2.4851 -1.4429
  133OSM   H18G14462   2.021   2.856   8.193 -0.1829 -0.5804 -0.8397
  133OSM   H18H14463   2.065   2.745   8.321  0.2602  0.4177 -0.9693
  134OSM      N14464   2.996   6.324   6.197  0.3376 -0.3739  0.5572
  134OSM    C1514465   2.974   6.177   6.164  0.5256 -0.4018  0.4535
  134OSM   H15A14466   3.034   6.116   6.230  0.1684 -0.4696  0.7184
  134OSM   H15B14467   2.991   6.150   6.061 -1.8554 -0.3583 -0.0103
  134OSM   H15C14468   2.871   6.149   6.182  0.1858  0.1762 -0.5250
  134OSM    C1414469   3.134   6.356   6.157  0.0621  0.9255 -0.8953
  134OSM   H14A14470   3.168   6.459   6.159  3.6052 -0.0993  2.2503
  134OSM   H14B14471   3.154   6.314   6.059  0.6218 -0.8440 -0.0531
  134OSM   H14C14472   3.196   6.302   6.226  1.6100  3.6119 -0.0410
  134OSM    C1314473   2.911   6.415   6.120  0.0623  0.5639 -0.3553
  134OSM   H13A14474   2.923   6.410   6.012 -1.0983 -1.8859 -0.4368
  134OSM   H13B14475   2.928   6.518   6.149  0.3681  0.0332  1.4529
  134OSM   H13C14476   2.812   6.388   6.152  0.7233 -0.1423  1.1677
  134OSM    C1214477   2.993   6.345   6.348  1.2122  0.5224 -0.0065
  134OSM   H12A14478   3.074   6.288   6.392  0.9521  1.6155  1.9806
  134OSM   H12B14479   2.899   6.303   6.379  1.1800  0.4726 -0.1666
  134OSM    C1114480   3.002   6.489   6.396  0.4638 -0.7032  0.2893
  134OSM   H11A14481   3.098   6.533   6.362 -0.3203  1.3096  0.5042
  134OSM   H11B14482   3.008   6.484   6.507  2.6176 -2.6546  0.1484
  134OSM      P14483   2.885   6.729   6.357 -0.2440  0.2788  0.3635
  134OSM    O1314484   2.945   6.776   6.229 -0.3027  0.5251 -0.2466
  134OSM    O1414485   2.747   6.778   6.385 -0.0012  0.5304  0.0295
  134OSM    O1114486   2.977   6.754   6.476 -0.0574  0.0264  0.1171
  134OSM    O1214487   2.886   6.570   6.353 -0.3552 -0.4062 -0.7682
  134OSM    C1S14488   2.927   6.768   6.614  0.2436  0.1056  0.6243
  134OSM    H1S14489   2.832   6.712   6.631  1.3647 -2.6997 -1.6573
  134OSM    H1T14490   2.905   6.874   6.636  1.2651  0.9474 -2.0411
  134OSM     NF14491   2.974   6.740   6.858  0.2259  0.0481  0.1810
  134OSM    HNF14492   2.997   6.828   6.899  0.6108 -0.5090  1.1822
  134OSM    C2S14493   3.029   6.718   6.723  0.6424  0.1594  1.0725
  134OSM    H2S14494   3.038   6.609   6.706 -1.8455 -0.0131  0.4453
  134OSM    C3S14495   3.165   6.786   6.710  0.0354 -0.2380 -0.3893
  134OSM    H3S14496   3.149   6.895   6.695 -0.2054 -0.2557 -0.2635
  134OSM     O314497   3.249   6.750   6.601 -0.2947  0.8593  0.0372
  134OSM    HO314498   3.190   6.710   6.537  0.9179  1.0185 -1.2480
  134OSM    C4S14499   3.247   6.754   6.838 -0.3497 -0.2470 -0.2597
  134OSM    H4S14500   3.284   6.652   6.851  2.8664  0.9523  1.0111
  134OSM    C5S14501   3.298   6.849   6.922 -0.6660  0.0385 -0.3116
  134OSM    H5S14502   3.281   6.955   6.900 -2.3598  0.3913  2.2954
  134OSM    C6S14503   3.379   6.825   7.042 -0.8785  0.5995 -0.1379
  134OSM    H6S14504   3.483   6.859   7.027 -0.1296 -2.0634 -1.6125
  134OSM    H6T14505   3.380   6.716   7.064  0.9860  0.4366 -0.9060
  134OSM    C7S14506   3.334   6.921   7.151 -0.2098 -0.1241 -0.3692
  134OSM    H7S14507   3.224   6.934   7.161 -0.1320 -0.7072  1.9333
  134OSM    H7T14508   3.371   7.023   7.127  1.7056 -0.6643  0.1222
  134OSM    C8S14509   3.389   6.882   7.286 -0.8525 -0.2252 -0.6068
  134OSM    H8S14510   3.496   6.910   7.285 -1.0659  0.7782  0.8269
  134OSM    H8T14511   3.373   6.775   7.311 -0.4902  0.4458  3.0656
  134OSM    C9S14512   3.330   6.962   7.400  0.5009  0.5655 -0.6884
  134OSM    H9S14513   3.222   6.941   7.406  0.7367 -0.6941 -0.5360
  134OSM    H9T14514   3.346   7.071   7.386 -0.5960  0.5984 -1.8153
  134OSM   C10S14515   3.403   6.925   7.533 -0.3841 -0.0898 -0.5523
  134OSM   H10S14516   3.508   6.962   7.537 -0.6328  0.6951  3.5550
  134OSM   H10T14517   3.411   6.815   7.543  4.7527  0.1141  0.2491
  134OSM   C11S14518   3.324   6.991   7.648 -0.1118  0.0009  0.5536
  134OSM   H11S14519   3.217   6.971   7.624 -0.8180  3.0605  0.6520
  134OSM   H11T14520   3.329   7.102   7.637  3.2351  0.1731  2.4972
  134OSM   C12S14521   3.364   6.957   7.796 -0.7551 -0.5696 -0.3292
  134OSM   H12S14522   3.307   7.028   7.861 -0.4379 -1.0447  0.4845
  134OSM   H12T14523   3.469   6.991   7.802 -0.7609 -0.4640 -0.8483
  134OSM   C13S14524   3.358   6.813   7.847  0.0599 -0.5791 -0.6691
  134OSM   H13S14525   3.384   6.742   7.765 -1.1489 -0.3569 -1.2663
  134OSM   H13T14526   3.252   6.792   7.872  0.5418  0.8453  3.1530
  134OSM   C14S14527   3.447   6.807   7.967 -0.1408  0.4553  0.0133
  134OSM   H14S14528   3.397   6.879   8.035 -1.2968 -0.5944  0.3193
  134OSM   H14T14529   3.547   6.848   7.943 -1.0989  1.7881 -1.9792
  134OSM   C15S14530   3.445   6.676   8.040  0.4046  1.3036  0.0423
  134OSM   H15S14531   3.504   6.598   7.986  0.6878  0.1192  1.9768
  134OSM   H15T14532   3.339   6.643   8.039  0.4345  1.2077 -0.2030
  134OSM   C16S14533   3.508   6.685   8.183  0.0407 -0.1498 -0.0948
  134OSM   H16S14534   3.473   6.770   8.245 -0.2550 -0.8916  0.7797
  134OSM   H16T14535   3.617   6.687   8.161 -0.1975  0.8259 -1.2854
  134OSM   C17S14536   3.482   6.564   8.273  1.1371  0.1125 -0.1020
  134OSM   H17S14537   3.559   6.562   8.353  0.0646  2.0549  1.0406
  134OSM   H17T14538   3.486   6.475   8.205  0.0085  0.8054 -1.1284
  134OSM   C18S14539   3.347   6.565   8.342  0.3860 -0.5293  0.0662
  134OSM   H18S14540   3.340   6.632   8.431 -1.1958 -1.5329  0.7571
  134OSM   H18T14541   3.325   6.462   8.377  2.2248 -0.5946  1.1254
  134OSM   H18U14542   3.268   6.599   8.271 -0.7157  0.1575  1.5606
  134OSM    C1F14543   2.884   6.657   6.916 -0.8350  0.1827  0.7129
  134OSM     OF14544   2.834   6.564   6.848 -0.7196  0.3061 -0.2541
  134OSM    C2F14545   2.839   6.690   7.051  0.3600  0.0510 -0.4408
  134OSM    H2F14546   2.729   6.707   7.049  0.4540  0.6543 -2.0182
  134OSM    H2G14547   2.888   6.780   7.092 -0.6229  0.4503 -0.0946
  134OSM    C3F14548   2.857   6.567   7.151  0.6359  0.6301 -0.0501
  134OSM    H3F14549   2.961   6.528   7.141 -0.1999 -1.2680 -2.0351
  134OSM    H3G14550   2.786   6.489   7.117  2.5034 -1.2396  0.1164
  134OSM    C4F14551   2.834   6.605   7.304  0.0462 -0.5828 -0.4121
  134OSM    H4F14552   2.838   6.509   7.359  0.3068 -1.1763 -1.4276
  134OSM    H4G14553   2.735   6.644   7.334  0.3933  0.6135 -0.7560
  134OSM    C5F14554   2.940   6.701   7.357 -0.2630  0.4533 -0.0055
  134OSM    H5F14555   2.929   6.796   7.300  3.1951 -0.4305 -2.4399
  134OSM    H5G14556   3.042   6.659   7.341 -0.0456  0.7379  0.5865
  134OSM    C6F14557   2.943   6.733   7.506  0.0843  0.1072 -0.7388
  134OSM    H6F14558   2.845   6.775   7.535  0.3063 -0.4963  1.0119
  134OSM    H6G14559   3.021   6.805   7.542 -0.2751  0.5040 -0.7415
  134OSM    C7F14560   2.975   6.598   7.583 -0.4517  0.5689 -0.1242
  134OSM    H7F14561   3.029   6.527   7.516 -3.0194 -1.0901 -0.5685
  134OSM    H7G14562   2.875   6.554   7.601 -0.1565 -0.6779 -1.3632
  134OSM    C8F14563   3.057   6.615   7.717  0.0628 -0.4529  0.4092
  134OSM    H8F14564   3.144   6.679   7.694 -1.2564  0.7732 -1.4847
  134OSM    H8G14565   3.087   6.514   7.754  1.4323 -0.8104 -1.5438
  134OSM    C9F14566   2.982   6.697   7.811 -0.1104  0.1940  0.0324
  134OSM    H9F14567   2.927   6.780   7.764  0.6872 -0.4874 -2.2003
  134OSM   C10F14568   2.951   6.664   7.932 -0.1581 -0.0044 -0.5943
  134OSM   H10F14569   2.885   6.731   7.988 -0.3365  1.2977 -2.2988
  134OSM   C11F14570   2.993   6.534   8.003  0.1129 -0.1399  0.0888
  134OSM   H11F14571   3.087   6.556   8.059  0.3377 -0.9551  0.0498
  134OSM   H11G14572   3.004   6.445   7.938 -0.4210  0.0634 -0.2871
  134OSM   C12F14573   2.908   6.484   8.114  0.5751 -0.3216 -0.4690
  134OSM   H12F14574   2.809   6.442   8.084  0.5729 -1.4078  0.9919
  134OSM   H12G14575   2.898   6.566   8.188  2.1482 -0.1698 -0.4048
  134OSM   C13F14576   2.983   6.367   8.182 -0.3106 -0.6212  0.1396
  134OSM   H13F14577   3.076   6.395   8.236 -1.0249  1.4846  0.3605
  134OSM   H13G14578   3.001   6.289   8.105 -1.0685 -1.2854  0.6173
  134OSM   C14F14579   2.901   6.292   8.290 -0.0367 -0.6574 -0.2520
  134OSM   H14F14580   2.888   6.358   8.378 -0.1224 -0.3647 -0.4789
  134OSM   H14G14581   2.956   6.199   8.315  1.6636 -0.3536 -2.5043
  134OSM   C15F14582   2.754   6.246   8.254  0.0049  0.5382  1.0839
  134OSM   H15F14583   2.761   6.226   8.144  0.3785  0.6656  1.0840
  134OSM   H15G14584   2.678   6.327   8.261 -1.3821 -0.3086 -2.2370
  134OSM   C16F14585   2.705   6.125   8.335  0.4938 -0.3123  0.1879
  134OSM   H16F14586   2.719   6.144   8.443  0.6932  0.6030  0.0041
  134OSM   H16G14587   2.767   6.044   8.290 -1.0267 -0.8006 -1.1367
  134OSM   C17F14588   2.555   6.102   8.315 -0.0182  0.2779  0.6622
  134OSM   H17F14589   2.508   6.203   8.311  0.5410  0.5317 -2.6186
  134OSM   H17G14590   2.498   6.045   8.391 -0.1871  0.8181  0.9467
  134OSM   C18F14591   2.537   6.034   8.183  0.0197 -0.2344 -0.1222
  134OSM   H18F14592   2.431   6.031   8.150  0.0524 -0.3665 -0.2156
  134OSM   H18G14593   2.563   5.927   8.198 -0.2175 -0.0771  1.5992
  134OSM   H18H14594   2.596   6.079   8.100 -2.3320  0.6099 -1.4177
  135OSM      N14595   2.438   6.590   6.407  0.3167  0.3411 -0.4966
  135OSM    C1514596   2.354   6.486   6.468  0.0454 -0.4468  0.1604
  135OSM   H15A14597   2.403   6.392   6.446 -2.4646 -1.5538 -1.1598
  135OSM   H15B14598   2.260   6.490   6.415 -0.6564  1.3456  1.4379
  135OSM   H15C14599   2.341   6.498   6.574 -2.0145  2.5040 -0.3047
  135OSM    C1414600   2.351   6.711   6.398  0.3302  0.1243  0.2910
  135OSM   H14A14601   2.422   6.793   6.403 -0.5430  0.8240  2.0586
  135OSM   H14B14602   2.289   6.731   6.484  0.5902 -0.6553  0.6677
  135OSM   H14C14603   2.290   6.708   6.310  2.9116 -1.0781 -1.5923
  135OSM    C1314604   2.550   6.612   6.501 -0.9425  0.4949 -0.4616
  135OSM   H13A14605   2.614   6.685   6.455 -0.3029 -0.2587 -0.7855
  135OSM   H13B14606   2.592   6.513   6.514 -2.5386 -0.5390 -2.4181
  135OSM   H13C14607   2.511   6.645   6.596  0.1815 -3.6611  1.7146
  135OSM    C1214608   2.495   6.549   6.268  0.2492 -0.5874 -0.4783
  135OSM   H12A14609   2.555   6.628   6.227  1.0495  0.7607  2.9409
  135OSM   H12B14610   2.407   6.539   6.206 -0.4948 -0.0404  0.4571
  135OSM    C1114611   2.585   6.423   6.261  0.0133 -0.3056  0.2531
  135OSM   H11A14612   2.680   6.445   6.315 -0.3040  0.3534  0.5521
  135OSM   H11B14613   2.602   6.410   6.152 -0.4225 -0.9654  0.2588
  135OSM      P14614   2.623   6.174   6.347 -0.5983  0.1382  0.0651
  135OSM    O1314615   2.544   6.072   6.420  0.8092  0.1322  0.0966
  135OSM    O1414616   2.691   6.139   6.217  0.1627 -0.6982  0.0066
  135OSM    O1114617   2.739   6.231   6.437  0.2364  0.3407 -0.0214
  135OSM    O1214618   2.531   6.301   6.323  0.6559  0.5031 -0.3459
  135OSM    C1S14619   2.690   6.308   6.548 -0.0698 -0.3614 -1.1882
  135OSM    H1S14620   2.587   6.348   6.544  0.4334  0.9426 -1.5640
  135OSM    H1T14621   2.762   6.392   6.536  0.2479 -0.2880  0.9279
  135OSM     NF14622   2.651   6.340   6.791 -0.4447  0.1064 -0.0338
  135OSM    HNF14623   2.706   6.408   6.838  0.8949 -1.8195  1.3417
  135OSM    C2S14624   2.725   6.253   6.691 -0.3457 -0.2930 -0.3310
  135OSM    H2S14625   2.675   6.154   6.701 -0.1485 -0.3739 -0.1350
  135OSM    C3S14626   2.873   6.250   6.712  0.3898  0.2506 -0.2079
  135OSM    H3S14627   2.924   6.347   6.690  1.8911  0.1023  2.3285
  135OSM     O314628   2.928   6.161   6.612  0.1868  0.0026 -0.0541
  135OSM    HO314629   2.868   6.178   6.539  0.1642 -0.5634 -0.1700
  135OSM    C4S14630   2.897   6.220   6.856 -0.6202  0.3544 -0.9593
  135OSM    H4S14631   2.886   6.308   6.920  0.2705  1.4208 -2.2306
  135OSM    C5S14632   2.915   6.093   6.897 -0.1569  0.4662 -0.0501
  135OSM    H5S14633   2.905   6.015   6.820  0.1854  2.1530 -1.8639
  135OSM    C6S14634   2.928   6.066   7.042 -0.0690 -0.2152  0.3603
  135OSM    H6S14635   3.030   6.089   7.079  0.4642 -0.1186 -1.1305
  135OSM    H6T14636   2.940   5.956   7.048  0.8549 -0.2555 -1.4791
  135OSM    C7S14637   2.835   6.135   7.144 -0.1014  0.5298 -0.0240
  135OSM    H7S14638   2.729   6.134   7.110 -0.5704 -0.8018  1.4059
  135OSM    H7T14639   2.851   6.245   7.143 -0.5492  0.6007 -0.8372
  135OSM    C8S14640   2.846   6.097   7.290  0.1170 -0.0408 -0.0358
  135OSM    H8S14641   2.808   5.994   7.301  0.8125 -0.1842  1.2122
  135OSM    H8T14642   2.787   6.169   7.352  0.5486  2.3247 -2.2041
  135OSM    C9S14643   2.999   6.098   7.349  0.0626 -0.5139 -0.0272
  135OSM    H9S14644   3.033   6.203   7.336  0.3390 -0.3709  1.5837
  135OSM    H9T14645   3.062   6.030   7.288  0.9544  2.3208 -2.5437
  135OSM   C10S14646   3.019   6.061   7.495 -0.0433 -0.1275 -0.4218
  135OSM   H10S14647   3.126   6.051   7.520 -0.5396 -0.4444  1.7393
  135OSM   H10T14648   2.980   5.957   7.502  1.8537 -0.7739  1.8799
  135OSM   C11S14649   2.958   6.144   7.599 -0.0810 -0.9632 -1.0107
  135OSM   H11S14650   2.848   6.142   7.584 -0.5185 -1.4796  1.6957
  135OSM   H11T14651   3.000   6.246   7.585 -2.7774  0.0628 -2.5564
  135OSM   C12S14652   2.988   6.085   7.736  0.1543  0.2349  0.3100
  135OSM   H12S14653   2.963   6.159   7.816 -0.5720  0.0917  0.2204
  135OSM   H12T14654   3.099   6.078   7.739  0.2341  1.3134  0.3270
  135OSM   C13S14655   2.920   5.956   7.782  0.3502  0.2586 -0.5108
  135OSM   H13S14656   2.940   5.871   7.713 -2.8204 -0.3084 -0.8951
  135OSM   H13T14657   2.812   5.982   7.778 -0.3085 -2.2632 -0.2220
  135OSM   C14S14658   2.967   5.908   7.925  0.7108  0.8019  0.0975
  135OSM   H14S14659   2.929   5.986   7.993 -0.6998  1.5465 -1.4706
  135OSM   H14T14660   3.078   5.903   7.935  0.8126  0.6137 -0.9455
  135OSM   C15S14661   2.889   5.782   7.982  0.5045  0.2203  0.4407
  135OSM   H15S14662   2.899   5.708   7.900 -3.3726  1.0563 -0.9738
  135OSM   H15T14663   2.782   5.803   8.004  0.0391  0.7220 -2.0409
  135OSM   C16S14664   2.964   5.726   8.099  0.4178  1.1264 -0.0383
  135OSM   H16S14665   2.945   5.775   8.196  0.1500  1.7291 -0.3915
  135OSM   H16T14666   3.074   5.720   8.084  0.3380 -0.5991 -0.1502
  135OSM   C17S14667   2.915   5.573   8.123  0.6731  0.2063 -0.2963
  135OSM   H17S14668   2.952   5.514   8.037 -0.5273 -1.0546  0.0137
  135OSM   H17T14669   2.804   5.581   8.130  0.8226  1.6303  1.0453
  135OSM   C18S14670   2.961   5.520   8.261  0.0307 -0.2119  0.2375
  135OSM   H18S14671   3.069   5.501   8.278 -0.0753 -0.9193  0.1527
  135OSM   H18T14672   2.915   5.425   8.296  1.2500 -0.2397  1.8980
  135OSM   H18U14673   2.925   5.596   8.333 -0.0070 -1.3376  1.4356
  135OSM    C1F14674   2.517   6.354   6.797 -0.4865 -0.3339 -0.1517
  135OSM     OF14675   2.448   6.305   6.710 -0.4350 -0.4028 -0.2146
  135OSM    C2F14676   2.460   6.446   6.904  0.7743 -0.4204  0.0872
  135OSM    H2F14677   2.540   6.516   6.935  0.3057  2.0588 -3.6647
  135OSM    H2G14678   2.429   6.378   6.987 -0.2883 -0.7391 -0.5631
  135OSM    C3F14679   2.353   6.550   6.859  0.1324  0.3782  0.6580
  135OSM    H3F14680   2.257   6.509   6.821 -0.6829  1.3362  1.6459
  135OSM    H3G14681   2.388   6.617   6.778  1.7671 -1.4939 -0.2840
  135OSM    C4F14682   2.302   6.643   6.973 -0.4955  0.4421  0.2741
  135OSM    H4F14683   2.388   6.672   7.038 -1.0640 -1.3940  1.9435
  135OSM    H4G14684   2.227   6.591   7.036 -0.0151  0.6730  1.0520
  135OSM    C5F14685   2.235   6.769   6.920 -0.7479  0.3826 -0.0095
  135OSM    H5F14686   2.149   6.750   6.852 -1.2552  2.2745  0.0348
  135OSM    H5G14687   2.306   6.843   6.877  0.0112  0.7519  1.7960
  135OSM    C6F14688   2.168   6.859   7.031 -0.8733  0.1163 -0.3298
  135OSM    H6F14689   2.149   6.957   6.982  0.1811  0.9187  0.7816
  135OSM    H6G14690   2.250   6.890   7.100  1.2328 -0.2763 -2.5447
  135OSM    C7F14691   2.048   6.798   7.094 -0.6043  0.2756 -0.1342
  135OSM    H7F14692   2.070   6.691   7.113  2.0447  0.9166  0.9697
  135OSM    H7G14693   1.954   6.795   7.035 -1.0141  2.0247  0.3661
  135OSM    C8F14694   2.018   6.861   7.236 -0.5777  0.1820 -0.6207
  135OSM    H8F14695   2.097   6.817   7.300 -1.0016  0.2540 -0.0324
  135OSM    H8G14696   1.915   6.831   7.267  0.0402 -0.2574  1.1332
  135OSM    C9F14697   2.016   7.009   7.252  0.2718 -0.4389 -0.7425
  135OSM    H9F14698   1.967   7.060   7.168 -1.0554  1.9795  1.3642
  135OSM   C10F14699   2.058   7.080   7.365  0.0944 -0.1569 -0.1246
  135OSM   H10F14700   2.082   7.187   7.351  2.4188 -0.8561 -2.1714
  135OSM   C11F14701   2.110   7.026   7.492 -0.7712  0.3285  0.0069
  135OSM   H11F14702   2.213   7.056   7.520 -0.1544 -0.9973 -0.7239
  135OSM   H11G14703   2.101   6.915   7.489 -3.0663  0.4381  1.0065
  135OSM   C12F14704   2.021   7.061   7.610 -0.0192  0.2688 -1.0701
  135OSM   H12F14705   1.915   7.028   7.610  0.7059 -2.2530 -0.4813
  135OSM   H12G14706   2.014   7.172   7.614 -1.8056  0.2306 -2.3017
  135OSM   C13F14707   2.086   7.016   7.747 -0.3322 -0.3212  0.1830
  135OSM   H13F14708   2.112   6.909   7.731 -1.3931 -0.6169  0.3616
  135OSM   H13G14709   2.024   7.017   7.839  1.8890 -0.3465  1.7615
  135OSM   C14F14710   2.219   7.081   7.778  0.7716  0.1093  0.5971
  135OSM   H14F14711   2.291   7.064   7.695 -1.4329  0.7775 -1.5619
  135OSM   H14G14712   2.260   7.023   7.864  0.5343 -0.4082  0.3628
  135OSM   C15F14713   2.210   7.231   7.807 -0.1325  0.4661 -0.7493
  135OSM   H15F14714   2.150   7.250   7.899  1.3508  1.0867  0.1266
  135OSM   H15G14715   2.162   7.290   7.726 -0.5559  0.9421 -0.1746
  135OSM   C16F14716   2.340   7.291   7.850 -0.0636  0.3870 -0.1476
  135OSM   H16F14717   2.336   7.402   7.856 -0.8686  0.3220  0.7284
  135OSM   H16G14718   2.404   7.255   7.767 -1.1168 -0.3432 -0.6788
  135OSM   C17F14719   2.406   7.238   7.982 -0.2897  0.1564  0.2369
  135OSM   H17F14720   2.514   7.222   7.965  0.4382  2.0549  2.4873
  135OSM   H17G14721   2.366   7.139   8.011  1.2585 -0.4361  0.4382
  135OSM   C18F14722   2.392   7.335   8.096  0.0011  0.0138 -0.2884
  135OSM   H18F14723   2.461   7.310   8.178 -0.0072 -3.6300 -1.2240
  135OSM   H18G14724   2.283   7.340   8.121 -0.7752 -2.6396 -2.5151
  135OSM   H18H14725   2.417   7.437   8.059  0.6674 -0.4173 -1.0616
  136OSM      N14726   1.378   5.849   5.876  0.3867  0.4174 -0.6313
  136OSM    C1514727   1.407   5.947   5.766 -0.1982 -0.8387  0.1109
  136OSM   H15A14728   1.314   5.963   5.713 -0.3840 -1.1841  0.3291
  136OSM   H15B14729   1.482   5.911   5.697 -0.7144  1.3830 -1.7517
  136OSM   H15C14730   1.441   6.042   5.803  0.1453 -0.8328 -0.2191
  136OSM    C1414731   1.327   5.721   5.820 -0.5140  0.0607  0.0824
  136OSM   H14A14732   1.226   5.734   5.784 -0.8881  0.2174  1.1265
  136OSM   H14B14733   1.311   5.650   5.901 -2.5072  0.2909 -0.0565
  136OSM   H14C14734   1.390   5.680   5.743  0.0241 -0.3373  0.7236
  136OSM    C1314735   1.508   5.814   5.935 -0.3181 -1.0484  0.0275
  136OSM   H13A14736   1.566   5.900   5.966 -0.8869  0.9148 -3.7829
  136OSM   H13B14737   1.576   5.778   5.858 -0.7779  1.0767 -1.4500
  136OSM   H13C14738   1.486   5.735   6.006 -3.0201 -0.7684 -0.4069
  136OSM    C1214739   1.283   5.906   5.977  0.3118 -0.2235  0.1440
  136OSM   H12A14740   1.333   5.996   6.010 -0.7595  0.8553 -1.0631
  136OSM   H12B14741   1.275   5.838   6.060  0.9387  0.1328  0.5005
  136OSM    C1114742   1.146   5.951   5.918 -0.1731  0.4908  0.1038
  136OSM   H11A14743   1.170   6.015   5.830 -1.2842 -1.1741 -1.4931
  136OSM   H11B14744   1.106   6.008   6.005 -0.4618 -0.5769  0.6874
  136OSM      P14745   0.971   5.764   5.982 -0.0541 -0.6415  0.0166
  136OSM    O1314746   0.837   5.762   5.920  0.0855 -0.1743 -0.1493
  136OSM    O1414747   1.037   5.631   6.008 -0.1976 -0.3236 -0.9654
  136OSM    O1114748   0.958   5.850   6.112 -0.0416  0.3168 -0.1139
  136OSM    O1214749   1.064   5.835   5.876  0.4688 -0.1898 -0.2816
  136OSM    C1S14750   0.929   5.808   6.248  0.6516 -0.3223 -0.1765
  136OSM    H1S14751   1.021   5.756   6.284  0.1432 -0.1785  1.3787
  136OSM    H1T14752   0.842   5.740   6.261  0.6790 -0.0368  1.8939
  136OSM     NF14753   0.895   5.879   6.477  0.1239  0.1140  0.6710
  136OSM    HNF14754   0.803   5.867   6.513 -0.3758 -0.6775 -0.7761
  136OSM    C2S14755   0.904   5.931   6.340  0.0229 -0.0906  1.1177
  136OSM    H2S14756   0.988   6.003   6.333 -0.0489 -0.1635 -0.8968
  136OSM    C3S14757   0.787   6.015   6.287  0.1054 -0.9265  0.1150
  136OSM    H3S14758   0.698   5.950   6.271 -0.5598 -0.3876  1.4414
  136OSM     O314759   0.807   6.089   6.166  0.1334  0.0598 -0.5189
  136OSM    HO314760   0.872   6.033   6.124 -1.0738 -1.4277 -0.4718
  136OSM    C4S14761   0.751   6.115   6.393 -0.0877  0.1726 -0.4725
  136OSM    H4S14762   0.834   6.163   6.447 -1.0828  1.7716 -0.3238
  136OSM    C5S14763   0.637   6.129   6.453 -0.0238 -0.1274  0.0640
  136OSM    H5S14764   0.554   6.060   6.431  1.7148 -2.3023 -0.0225
  136OSM    C6S14765   0.618   6.217   6.572  0.7958  0.0131 -0.6998
  136OSM    H6S14766   0.521   6.270   6.558  2.1700  2.8323 -0.3085
  136OSM    H6T14767   0.695   6.295   6.589 -0.8838  1.9041 -1.3063
  136OSM    C7S14768   0.591   6.129   6.698  0.3139 -0.4912  0.4725
  136OSM    H7S14769   0.678   6.060   6.703 -0.6851 -2.0496 -2.0024
  136OSM    H7T14770   0.503   6.063   6.680 -1.5405  1.6404  1.2348
  136OSM    C8S14771   0.563   6.222   6.818  1.2597 -0.1362  0.5787
  136OSM    H8S14772   0.466   6.270   6.792  0.6812 -1.5651 -0.0133
  136OSM    H8T14773   0.636   6.305   6.811 -0.5929  1.5378  0.0244
  136OSM    C9S14774   0.571   6.149   6.953 -0.0604  0.2119  0.0346
  136OSM    H9S14775   0.672   6.104   6.960 -0.6108 -1.1645 -0.4899
  136OSM    H9T14776   0.489   6.075   6.939  0.4751 -0.4930  0.5869
  136OSM   C10S14777   0.553   6.242   7.077 -0.2130  0.1588 -0.2389
  136OSM   H10S14778   0.450   6.284   7.072 -0.3691 -0.0458  0.9269
  136OSM   H10T14779   0.634   6.317   7.068  1.5770 -1.7621 -0.7420
  136OSM   C11S14780   0.558   6.179   7.215 -0.9836 -0.0624 -0.0299
  136OSM   H11S14781   0.662   6.151   7.241 -0.5783  0.1521 -1.3479
  136OSM   H11T14782   0.501   6.086   7.191  0.4568 -0.3789 -2.7193
  136OSM   C12S14783   0.502   6.265   7.327  0.8358  0.2515 -0.2960
  136OSM   H12S14784   0.392   6.277   7.317  0.6955 -0.4953  0.2731
  136OSM   H12T14785   0.552   6.364   7.316 -1.0674  1.3589  0.4892
  136OSM   C13S14786   0.551   6.210   7.466  0.2249  0.1564  0.0051
  136OSM   H13S14787   0.662   6.214   7.469  0.2219  0.7847 -0.4957
  136OSM   H13T14788   0.506   6.111   7.486 -0.3164  0.2796 -0.5565
  136OSM   C14S14789   0.496   6.298   7.574 -0.3145  0.7854 -0.2599
  136OSM   H14S14790   0.387   6.312   7.553 -0.0061 -0.2176 -2.9230
  136OSM   H14T14791   0.545   6.397   7.576  0.2744  0.5004  2.0652
  136OSM   C15S14792   0.524   6.228   7.703  0.3410 -0.4095  0.6582
  136OSM   H15S14793   0.630   6.204   7.724 -0.0207 -0.4140  2.6845
  136OSM   H15T14794   0.472   6.130   7.701  1.7746 -1.1767  0.0926
  136OSM   C16S14795   0.491   6.308   7.831  0.8237 -0.3903  0.1565
  136OSM   H16S14796   0.390   6.347   7.809 -0.2643 -2.4334  1.2597
  136OSM   H16T14797   0.558   6.397   7.838  2.3487 -1.3940 -0.9026
  136OSM   C17S14798   0.491   6.223   7.964 -0.0042 -0.0033  0.1508
  136OSM   H17S14799   0.595   6.187   7.975  0.5728  1.1376 -1.2337
  136OSM   H17T14800   0.426   6.133   7.952 -0.1528  0.2503 -1.0351
  136OSM   C18S14801   0.436   6.300   8.089  0.5216  0.5463  0.3918
  136OSM   H18S14802   0.415   6.253   8.188  0.8658 -1.3748 -0.4125
  136OSM   H18T14803   0.341   6.352   8.067  0.8863  0.6005 -1.1602
  136OSM   H18U14804   0.504   6.386   8.106 -1.6843  2.1633  1.5164
  136OSM    C1F14805   1.002   5.829   6.543  0.4266  0.2473  0.3265
  136OSM     OF14806   1.112   5.841   6.490  0.0769  0.6274 -0.2610
  136OSM    C2F14807   0.972   5.780   6.678  0.2454  0.0932 -0.2540
  136OSM    H2F14808   0.906   5.691   6.668 -0.1827  0.3724  0.0393
  136OSM    H2G14809   0.909   5.852   6.735 -0.3623 -1.2598  0.8406
  136OSM    C3F14810   1.088   5.739   6.770  0.6238 -0.5847  0.0829
  136OSM    H3F14811   1.151   5.830   6.779 -1.5392  1.1036 -1.0486
  136OSM    H3G14812   1.143   5.653   6.726  2.0609 -0.1647  0.9548
  136OSM    C4F14813   1.043   5.703   6.912  0.4189  0.6424  0.1663
  136OSM    H4F14814   0.977   5.615   6.923  0.5457  0.6286  0.8675
  136OSM    H4G14815   0.988   5.790   6.955  1.4495  2.4540 -1.9725
  136OSM    C5F14816   1.158   5.675   7.010  0.0317 -0.3630 -0.3265
  136OSM    H5F14817   1.235   5.755   7.005 -2.2926  2.1016  0.5904
  136OSM    H5G14818   1.208   5.579   6.985 -1.2179 -0.9878 -0.5094
  136OSM    C6F14819   1.112   5.677   7.160 -0.2829  1.0379 -0.0750
  136OSM    H6F14820   1.049   5.588   7.182 -3.1792  2.8960 -0.2796
  136OSM    H6G14821   1.052   5.770   7.172 -3.3639 -0.8440  0.2161
  136OSM    C7F14822   1.223   5.688   7.261 -0.5029 -0.1591 -0.0366
  136OSM    H7F14823   1.274   5.787   7.260  1.6171 -1.1956 -0.3324
  136OSM    H7G14824   1.300   5.617   7.224 -0.6375  0.9429 -2.6065
  136OSM    C8F14825   1.169   5.659   7.404  0.3565 -0.6826 -0.4284
  136OSM    H8F14826   1.105   5.568   7.404 -0.5914 -0.0337 -0.2465
  136OSM    H8G14827   1.101   5.745   7.424 -0.2534 -0.4974 -2.9174
  136OSM    C9F14828   1.287   5.662   7.504  0.0511  0.0154  0.1697
  136OSM    H9F14829   1.367   5.734   7.482 -0.5697  0.3121 -1.2320
  136OSM   C10F14830   1.306   5.570   7.600  0.6354 -0.1525 -0.5839
  136OSM   H10F14831   1.399   5.575   7.658  0.0350 -1.1020  0.5071
  136OSM   C11F14832   1.213   5.455   7.633  1.2958 -0.0225 -0.3524
  136OSM   H11F14833   1.132   5.448   7.556  0.9688 -2.4181  0.1277
  136OSM   H11G14834   1.151   5.469   7.724 -0.3620 -2.2577 -1.0371
  136OSM   C12F14835   1.276   5.314   7.638  0.3812 -0.2643 -0.3709
  136OSM   H12F14836   1.189   5.246   7.649  0.5213 -0.3650  0.1343
  136OSM   H12G14837   1.343   5.307   7.726  0.0967  0.4552 -0.0851
  136OSM   C13F14838   1.348   5.275   7.502 -0.6677 -0.0802 -0.2724
  136OSM   H13F14839   1.395   5.176   7.520  2.7217  0.8530 -2.8317
  136OSM   H13G14840   1.439   5.339   7.489  0.3461 -1.2708  0.6620
  136OSM   C14F14841   1.259   5.272   7.383 -0.1721 -0.2896  0.5616
  136OSM   H14F14842   1.239   5.375   7.345 -0.9422 -0.8565 -0.6159
  136OSM   H14G14843   1.159   5.236   7.412 -0.7237 -0.3096 -1.2308
  136OSM   C15F14844   1.315   5.189   7.265 -0.4501 -0.5018 -0.0421
  136OSM   H15F14845   1.327   5.085   7.302 -1.6083 -0.3392  0.8680
  136OSM   H15G14846   1.413   5.236   7.244 -0.3452  0.2174  1.8330
  136OSM   C16F14847   1.217   5.187   7.146 -0.5519  0.9676 -0.6323
  136OSM   H16F14848   1.181   5.291   7.134 -0.3050  1.1724  0.3202
  136OSM   H16G14849   1.134   5.132   7.195  0.2810  1.2115  1.1060
  136OSM   C17F14850   1.267   5.130   7.010  1.3062  0.2262  0.1886
  136OSM   H17F14851   1.201   5.146   6.923 -0.2368 -1.7187  0.9299
  136OSM   H17G14852   1.298   5.026   7.035 -1.1744 -0.0270  2.6285
  136OSM   C18F14853   1.391   5.215   6.971  0.1198  1.2396 -0.4330
  136OSM   H18F14854   1.355   5.319   6.956 -0.4138  1.1838  0.3778
  136OSM   H18G14855   1.430   5.175   6.876  0.2285  2.2653 -0.8330
  136OSM   H18H14856   1.469   5.205   7.050  0.3150 -0.5452 -0.8321
  137OSM      N14857   4.391   0.071   6.053  0.1170  0.0191 -0.0338
  137OSM    C1514858   4.361   0.212   6.089  0.2805 -0.1041 -0.1553
  137OSM   H15A14859   4.450   0.273   6.081  0.0342  0.3687  0.6327
  137OSM   H15B14860   4.343   0.216   6.195  2.6567  0.9146  0.2654
  137OSM   H15C14861   4.278   0.247   6.030  1.9286 -0.0687 -2.6237
  137OSM    C1414862   4.433   0.079   5.913 -0.4315  0.0295  0.5970
  137OSM   H14A14863   4.365   0.145   5.861 -0.6067 -0.2635  0.4534
  137OSM   H14B14864   4.433  -0.019   5.869 -0.7985  1.1658 -2.1617
  137OSM   H14C14865   4.535   0.112   5.902  0.1864 -1.9538  0.1049
  137OSM    C1314866   4.506   0.025   6.128 -0.5813 -0.1103 -0.6859
  137OSM   H13A14867   4.595   0.079   6.100 -0.5536 -0.5867 -1.5339
  137OSM   H13B14868   4.526  -0.077   6.099  1.4230 -0.1573  0.6889
  137OSM   H13C14869   4.492   0.038   6.234 -0.7171 -2.4483 -0.3675
  137OSM    C1214870   4.266  -0.012   6.081 -0.3956  0.3432 -0.2096
  137OSM   H12A14871   4.187   0.029   6.020  0.7911  0.8174 -1.4892
  137OSM   H12B14872   4.243  -0.004   6.186  0.6451 -0.9851  0.1417
  137OSM    C1114873   4.267  -0.165   6.042 -0.1807 -0.1488  0.0557
  137OSM   H11A14874   4.271  -0.176   5.931 -2.9969 -0.5017 -0.0785
  137OSM   H11B14875   4.174  -0.214   6.076 -0.7214  0.7871 -0.0403
  137OSM      P14876   4.400  -0.289   6.244  0.5543 -0.4013  0.3429
  137OSM    O1314877   4.537  -0.344   6.262  0.3115 -0.0702 -0.2402
  137OSM    O1414878   4.367  -0.179   6.340 -0.2133 -0.6442  0.2119
  137OSM    O1114879   4.288  -0.400   6.250  0.2422  0.4335 -0.1331
  137OSM    O1214880   4.380  -0.231   6.091 -0.3072  0.2238 -0.0241
  137OSM    C1S14881   4.314  -0.523   6.320 -0.2759  0.6847 -0.1993
  137OSM    H1S14882   4.423  -0.545   6.323 -0.3423  0.1269 -1.1671
  137OSM    H1T14883   4.263  -0.615   6.282 -1.6317  1.2594  0.1760
  137OSM     NF14884   4.349  -0.629   6.552 -0.4763 -0.7075 -0.1821
  137OSM    HNF14885   4.304  -0.718   6.554 -2.3384  0.1919  1.1114
  137OSM    C2S14886   4.280  -0.523   6.475 -0.4447  0.1168 -0.2219
  137OSM    H2S14887   4.312  -0.429   6.523 -1.8842  0.1521  0.7194
  137OSM    C3S14888   4.130  -0.527   6.495  0.5452 -0.9969 -0.4400
  137OSM    H3S14889   4.096  -0.629   6.468 -0.0895 -0.9043 -0.0136
  137OSM     O314890   4.052  -0.431   6.428  0.4336  0.2166 -0.1006
  137OSM    HO314891   4.110  -0.393   6.361  1.3940 -1.9297 -0.5808
  137OSM    C4S14892   4.110  -0.505   6.642 -0.1909 -0.2110 -0.2268
  137OSM    H4S14893   4.101  -0.600   6.698  2.3265  0.1935  0.9683
  137OSM    C5S14894   4.095  -0.395   6.715  0.1505  0.0943  0.5151
  137OSM    H5S14895   4.110  -0.298   6.665  2.1853  0.5841  1.9527
  137OSM    C6S14896   4.089  -0.389   6.869 -0.3595  0.5053  0.0753
  137OSM    H6S14897   3.982  -0.393   6.899 -0.0947 -3.0628  1.0168
  137OSM    H6T14898   4.130  -0.291   6.902 -0.5965  0.8462 -0.6179
  137OSM    C7S14899   4.159  -0.500   6.947 -0.4855 -0.2724  0.0945
  137OSM    H7S14900   4.265  -0.491   6.913 -1.1233 -0.7425 -2.2522
  137OSM    H7T14901   4.124  -0.605   6.936 -2.0906  0.3489 -1.2609
  137OSM    C8S14902   4.156  -0.471   7.100  0.8638  0.2399  0.2279
  137OSM    H8S14903   4.206  -0.375   7.123  0.5553  0.6255 -0.6866
  137OSM    H8T14904   4.211  -0.547   7.161 -0.1355 -0.2564  0.5329
  137OSM    C9S14905   4.012  -0.465   7.145 -0.7468  0.1634 -0.3665
  137OSM    H9S14906   3.956  -0.530   7.073 -1.3923  0.8057 -0.4559
  137OSM    H9T14907   3.961  -0.366   7.143 -2.8880 -0.8729 -1.2949
  137OSM   C10S14908   3.986  -0.523   7.292 -0.1720 -0.3405  0.5994
  137OSM   H10S14909   4.002  -0.633   7.287  1.3680 -0.1486  0.9672
  137OSM   H10T14910   3.876  -0.531   7.306 -0.4486  0.3448 -1.0072
  137OSM   C11S14911   4.068  -0.469   7.401 -0.1092  0.3979 -0.4653
  137OSM   H11S14912   4.045  -0.361   7.414 -0.4130  0.0557  2.4388
  137OSM   H11T14913   4.175  -0.483   7.373  0.0781  0.6741  0.1058
  137OSM   C12S14914   4.045  -0.532   7.535  0.3071 -0.1210 -0.0056
  137OSM   H12S14915   4.052  -0.643   7.528 -1.7327 -0.1803 -2.1922
  137OSM   H12T14916   3.941  -0.500   7.558  1.2216  2.3114  1.0028
  137OSM   C13S14917   4.148  -0.482   7.636  0.0375  0.0637 -0.1243
  137OSM   H13S14918   4.118  -0.378   7.661  0.2423  0.3274 -0.9637
  137OSM   H13T14919   4.252  -0.468   7.599  1.1624 -2.1692  1.8606
  137OSM   C14S14920   4.164  -0.579   7.754 -0.2782  0.4352 -0.1867
  137OSM   H14S14921   4.177  -0.686   7.724  1.0518  0.3845  0.5243
  137OSM   H14T14922   4.076  -0.570   7.821 -0.8628 -1.9477 -0.5303
  137OSM   C15S14923   4.282  -0.538   7.832 -0.5698  0.3433  0.3981
  137OSM   H15S14924   4.268  -0.430   7.854 -0.1642  0.7022 -0.9863
  137OSM   H15T14925   4.371  -0.541   7.764  0.1121 -0.3806  1.2985
  137OSM   C16S14926   4.310  -0.620   7.953  0.8379 -0.1418  0.0002
  137OSM   H16S14927   4.411  -0.597   7.991 -0.5237  1.3469  3.1441
  137OSM   H16T14928   4.324  -0.728   7.928  1.0260 -0.0987 -0.0799
  137OSM   C17S14929   4.201  -0.598   8.062 -0.1366  0.0468  0.3320
  137OSM   H17S14930   4.103  -0.628   8.020 -1.0824  2.1273  0.8939
  137OSM   H17T14931   4.199  -0.488   8.082 -0.2702  0.2842 -0.9254
  137OSM   C18S14932   4.234  -0.686   8.184 -0.2073  0.1036  0.7233
  137OSM   H18S14933   4.332  -0.654   8.226 -1.5597  1.7685  2.8246
  137OSM   H18T14934   4.240  -0.793   8.155  0.4142  0.0570  1.0083
  137OSM   H18U14935   4.155  -0.676   8.261 -1.9607  0.3573 -1.0224
  137OSM    C1F14936   4.479  -0.636   6.585  0.2300  0.2417  0.1233
  137OSM     OF14937   4.548  -0.536   6.566  0.5971 -0.3255  0.5135
  137OSM    C2F14938   4.537  -0.769   6.635 -0.5444  0.2570 -0.8050
  137OSM    H2F14939   4.609  -0.807   6.559  1.2484  0.4847  0.7027
  137OSM    H2G14940   4.454  -0.841   6.655 -0.2245 -0.1851 -1.0548
  137OSM    C3F14941   4.622  -0.758   6.766 -0.4413 -0.0130  0.4144
  137OSM    H3F14942   4.689  -0.671   6.751 -0.2888 -0.3365 -0.9145
  137OSM    H3G14943   4.692  -0.844   6.766 -0.8306 -0.3652 -1.0096
  137OSM    C4F14944   4.546  -0.732   6.895  0.1293 -0.0393  0.7989
  137OSM    H4F14945   4.527  -0.828   6.947  1.2210 -1.0540 -0.6066
  137OSM    H4G14946   4.447  -0.685   6.873 -1.5267 -2.0718  3.3162
  137OSM    C5F14947   4.640  -0.633   6.971 -0.5590 -0.3836  0.8452
  137OSM    H5F14948   4.613  -0.536   6.923  0.0481 -0.1501  0.9674
  137OSM    H5G14949   4.738  -0.686   6.964 -1.1898 -1.4003 -1.0268
  137OSM    C6F14950   4.610  -0.620   7.113  0.2827 -0.8194 -0.0042
  137OSM    H6F14951   4.505  -0.585   7.128  0.0780 -1.1634 -0.5857
  137OSM    H6G14952   4.672  -0.536   7.151  0.6120 -0.1893 -1.8346
  137OSM    C7F14953   4.642  -0.739   7.196 -0.0487 -0.1948  0.7905
  137OSM    H7F14954   4.747  -0.773   7.184  0.0973  0.5968 -0.3851
  137OSM    H7G14955   4.586  -0.832   7.173 -0.8217  0.3740  0.3264
  137OSM    C8F14956   4.629  -0.719   7.351 -0.1081 -0.0080  0.0201
  137OSM    H8F14957   4.711  -0.661   7.396  0.3128  0.8411 -1.7514
  137OSM    H8G14958   4.649  -0.822   7.387  2.6380  0.0652 -1.0736
  137OSM    C9F14959   4.498  -0.654   7.379  0.0271 -0.1967  1.0329
  137OSM    H9F14960   4.497  -0.545   7.392 -0.3450 -0.1270  0.4153
  137OSM   C10F14961   4.373  -0.710   7.378 -0.1702  0.8964  0.0842
  137OSM   H10F14962   4.293  -0.637   7.397 -1.1251 -0.7036  2.7704
  137OSM   C11F14963   4.327  -0.857   7.359 -0.3980  0.4752 -0.0193
  137OSM   H11F14964   4.283  -0.890   7.455  0.8933 -1.5237 -0.0535
  137OSM   H11G14965   4.407  -0.930   7.334 -1.5501 -0.5140 -0.9760
  137OSM   C12F14966   4.219  -0.870   7.240  0.2012 -0.5565  0.6059
  137OSM   H12F14967   4.143  -0.791   7.253  0.8283  0.2434 -0.4114
  137OSM   H12G14968   4.167  -0.967   7.255 -0.0090 -0.5160  0.1379
  137OSM   C13F14969   4.277  -0.855   7.099  0.9285 -0.0971 -0.2184
  137OSM   H13F14970   4.377  -0.903   7.094  0.5970 -0.9054  0.5470
  137OSM   H13G14971   4.291  -0.746   7.082 -0.8964  0.0856 -0.7557
  137OSM   C14F14972   4.175  -0.904   6.991 -0.2994  0.1893 -0.2476
  137OSM   H14F14973   4.101  -0.822   6.973  0.2029  0.5494 -0.7199
  137OSM   H14G14974   4.126  -0.995   7.028  2.7091 -1.6142 -0.3658
  137OSM   C15F14975   4.244  -0.932   6.864 -0.5282  0.2996 -0.0021
  137OSM   H15F14976   4.311  -0.852   6.827 -0.0562 -0.9915 -2.1273
  137OSM   H15G14977   4.169  -0.947   6.783 -2.0947 -0.9562  1.6017
  137OSM   C16F14978   4.326  -1.069   6.864  0.2914  0.4353 -0.1217
  137OSM   H16F14979   4.245  -1.145   6.867 -0.5249  1.2928 -0.0439
  137OSM   H16G14980   4.380  -1.086   6.960  1.5855 -1.3903 -1.1162
  137OSM   C17F14981   4.415  -1.108   6.747  0.0034 -0.3859  0.5639
  137OSM   H17F14982   4.441  -1.216   6.750 -0.5689 -0.5594 -0.3776
  137OSM   H17G14983   4.512  -1.054   6.755 -0.0779 -0.3637  1.5722
  137OSM   C18F14984   4.355  -1.089   6.608 -0.6541 -0.1655  0.0846
  137OSM   H18F14985   4.285  -1.173   6.589  0.1966 -0.5930 -1.2175
  137OSM   H18G14986   4.429  -1.102   6.527  1.4155  0.7731  1.7230
  137OSM   H18H14987   4.302  -0.992   6.596 -3.0943 -1.5814 -1.2435
  138OSM      N14988   4.958   1.038   6.224  0.3137  0.4667 -1.0461
  138OSM    C1514989   5.053   1.145   6.208 -0.0497 -0.0390 -0.0749
  138OSM   H15A14990   5.135   1.129   6.139  1.6521  1.5400  1.4565
  138OSM   H15B14991   5.104   1.173   6.299  0.6611  2.1508 -1.0633
  138OSM   H15C14992   5.011   1.236   6.167  1.9335  1.2801  0.6475
  138OSM    C1414993   4.895   1.026   6.090 -0.4204  1.1031  0.0988
  138OSM   H14A14994   4.833   1.109   6.059 -2.2923  0.0579  0.9086
  138OSM   H14B14995   4.837   0.936   6.080 -0.2847  0.9707  0.4989
  138OSM   H14C14996   4.973   1.025   6.015  1.2279 -0.4472  1.7527
  138OSM    C1314997   5.030   0.912   6.252  0.2871  0.2264 -0.2937
  138OSM   H13A14998   5.118   0.900   6.191 -0.0666 -0.3725 -0.6897
  138OSM   H13B14999   4.968   0.827   6.230  1.3801 -0.6245 -0.1387
  138OSM   H13C15000   5.065   0.914   6.354 -2.3658  1.6314  0.7040
  138OSM    C1215001   4.845   1.075   6.326  0.0432 -0.1828 -0.9985
  138OSM   H12A15002   4.826   1.179   6.306 -0.0237  0.1785  0.7305
  138OSM   H12B15003   4.887   1.079   6.426 -1.3543 -2.0077 -0.2574
  138OSM    C1115004   4.722   0.988   6.346  0.0445 -0.8552  0.1326
  138OSM   H11A15005   4.658   1.020   6.431  0.9579 -1.3442  1.0207
  138OSM   H11B15006   4.764   0.891   6.379 -1.4555 -0.9239  2.0383
  138OSM      P15007   4.589   0.835   6.179 -0.0290 -0.1639 -0.5981
  138OSM    O1315008   4.446   0.839   6.133  0.4370  0.3754 -0.1790
  138OSM    O1415009   4.688   0.785   6.086 -0.4560 -0.3731  0.3571
  138OSM    O1115010   4.603   0.738   6.300  0.2187 -0.2553 -0.0529
  138OSM    O1215011   4.636   0.978   6.234  1.0242 -0.5140  0.2270
  138OSM    C1S15012   4.493   0.736   6.396 -0.7360  0.9587  0.4274
  138OSM    H1S15013   4.399   0.732   6.336 -1.1078  2.6481  0.8516
  138OSM    H1T15014   4.480   0.834   6.446 -0.4262  1.5983 -0.7125
  138OSM     NF15015   4.403   0.638   6.599  0.3592  0.0070 -0.3994
  138OSM    HNF15016   4.411   0.699   6.678 -0.9926  0.7054 -0.7682
  138OSM    C2S15017   4.512   0.630   6.503  0.0233 -0.1159 -0.2639
  138OSM    H2S15018   4.515   0.526   6.462  0.7693 -0.2430  0.0934
  138OSM    C3S15019   4.648   0.653   6.571 -0.5752  0.0564 -0.5815
  138OSM    H3S15020   4.655   0.753   6.618  0.9305 -1.5176  2.9545
  138OSM     O315021   4.751   0.630   6.480 -0.2300  0.2405 -0.0581
  138OSM    HO315022   4.708   0.642   6.395  0.5032  1.5004 -0.2677
  138OSM    C4S15023   4.670   0.556   6.688 -0.2922 -0.4023 -0.0284
  138OSM    H4S15024   4.688   0.613   6.780  1.9351  1.3385 -1.4266
  138OSM    C5S15025   4.685   0.419   6.686  0.2978 -0.3733 -0.4034
  138OSM    H5S15026   4.681   0.368   6.588 -1.3198  1.1196 -1.1879
  138OSM    C6S15027   4.726   0.334   6.801  0.5239  0.1400  0.3278
  138OSM    H6S15028   4.820   0.280   6.776  0.2701 -0.0859 -0.1456
  138OSM    H6T15029   4.642   0.262   6.811  0.5937 -0.0265 -0.2626
  138OSM    C7S15030   4.732   0.397   6.939 -0.1646 -0.6387  0.0710
  138OSM    H7S15031   4.628   0.430   6.956  0.3049  2.4610 -2.1272
  138OSM    H7T15032   4.799   0.486   6.930 -0.6561 -0.3857 -1.4896
  138OSM    C8S15033   4.763   0.309   7.060 -0.1884 -0.0975 -0.3027
  138OSM    H8S15034   4.870   0.295   7.086 -0.7209  0.1257  2.3217
  138OSM    H8T15035   4.715   0.210   7.048  0.6511 -0.2826 -2.4830
  138OSM    C9S15036   4.695   0.362   7.191 -0.0418 -0.5502  0.0864
  138OSM    H9S15037   4.603   0.301   7.200 -0.2875 -0.0578  0.9820
  138OSM    H9T15038   4.658   0.465   7.173 -1.1659 -0.7911  0.9208
  138OSM   C10S15039   4.773   0.344   7.324  0.1610 -0.4542 -0.0997
  138OSM   H10S15040   4.861   0.413   7.329  0.3026 -0.5316 -1.3533
  138OSM   H10T15041   4.818   0.243   7.328  0.4829 -0.2861  1.3596
  138OSM   C11S15042   4.691   0.347   7.442  0.3748 -0.1548 -0.9046
  138OSM   H11S15043   4.624   0.258   7.436  1.2669 -0.9181  0.0399
  138OSM   H11T15044   4.639   0.446   7.444  2.4626  0.9842 -0.9072
  138OSM   C12S15045   4.772   0.337   7.574 -0.9286  0.0529 -0.5405
  138OSM   H12S15046   4.855   0.269   7.546  1.2548  1.7571  1.4572
  138OSM   H12T15047   4.718   0.275   7.648 -0.2180 -0.0374 -0.0861
  138OSM   C13S15048   4.833   0.466   7.634  0.5481 -0.3580  0.5786
  138OSM   H13S15049   4.751   0.530   7.675 -0.1763 -0.8415 -0.0831
  138OSM   H13T15050   4.890   0.515   7.553  1.9567 -0.1976  1.6337
  138OSM   C14S15051   4.942   0.445   7.741  0.4230 -0.6176  0.6418
  138OSM   H14S15052   4.987   0.546   7.749 -1.4126  0.4420 -1.2385
  138OSM   H14T15053   5.029   0.384   7.709 -1.7741 -4.3809  1.1829
  138OSM   C15S15054   4.894   0.407   7.881 -0.0863  0.8111 -0.1712
  138OSM   H15S15055   4.826   0.320   7.871 -0.3455  1.2292 -3.3229
  138OSM   H15T15056   4.830   0.484   7.928  0.8544  0.7847  1.1989
  138OSM   C16S15057   5.018   0.385   7.961  0.9221 -0.2126 -0.1547
  138OSM   H16S15058   5.097   0.456   7.932 -1.2911  1.8217 -1.5704
  138OSM   H16T15059   5.067   0.288   7.939 -1.5664 -1.2225 -1.6626
  138OSM   C17S15060   4.984   0.382   8.115 -0.3036 -0.3447  0.4279
  138OSM   H17S15061   5.076   0.344   8.165  0.4849  1.3830  0.3525
  138OSM   H17T15062   4.901   0.311   8.132 -1.4788  1.3389  2.0922
  138OSM   C18S15063   4.948   0.509   8.187 -0.4548  0.1628 -0.1825
  138OSM   H18S15064   4.844   0.540   8.163 -0.7047 -1.2245 -1.0365
  138OSM   H18T15065   5.024   0.588   8.170 -1.5564  1.5588  1.0764
  138OSM   H18U15066   4.949   0.483   8.295  0.5146 -0.5220 -0.3394
  138OSM    C1F15067   4.280   0.604   6.568  0.3562 -0.0502  0.1192
  138OSM     OF15068   4.249   0.557   6.454  0.0010  0.5467 -0.6260
  138OSM    C2F15069   4.174   0.631   6.670 -0.5700  0.2586 -0.1416
  138OSM    H2F15070   4.077   0.668   6.631 -0.8174  0.9220  1.0802
  138OSM    H2G15071   4.221   0.703   6.741  1.8226 -0.6623 -0.6994
  138OSM    C3F15072   4.159   0.496   6.740  0.1925 -0.0611 -0.1461
  138OSM    H3F15073   4.130   0.410   6.676 -3.0682  1.9919 -1.7197
  138OSM    H3G15074   4.075   0.522   6.808  1.4335  1.6437  0.8202
  138OSM    C4F15075   4.274   0.460   6.830 -0.5547 -0.2941 -0.4273
  138OSM    H4F15076   4.317   0.556   6.866  0.2043 -0.7516 -0.0916
  138OSM    H4G15077   4.362   0.426   6.772 -0.0815 -2.8213  1.5893
  138OSM    C5F15078   4.249   0.371   6.945  0.6455  0.3702  0.0046
  138OSM    H5F15079   4.229   0.270   6.903 -1.4378  0.6485  0.2404
  138OSM    H5G15080   4.154   0.399   6.996 -0.9135 -2.2566 -1.2770
  138OSM    C6F15081   4.366   0.365   7.046 -0.2063  0.0879  0.2814
  138OSM    H6F15082   4.378   0.458   7.104 -2.3606 -0.3398  1.5207
  138OSM    H6G15083   4.451   0.333   6.982  0.0990  0.6246  0.4109
  138OSM    C7F15084   4.337   0.270   7.167 -0.1027 -0.3136 -0.8250
  138OSM    H7F15085   4.420   0.253   7.238  0.1246  0.9078 -0.7759
  138OSM    H7G15086   4.315   0.171   7.120  0.0977 -0.9623  0.4023
  138OSM    C8F15087   4.212   0.306   7.256  0.0611  0.6184 -0.0394
  138OSM    H8F15088   4.201   0.225   7.332 -0.4653  1.2110  0.5210
  138OSM    H8G15089   4.121   0.309   7.193  0.1469 -2.7682 -0.5311
  138OSM    C9F15090   4.236   0.440   7.321 -0.3018 -0.0607 -0.4640
  138OSM    H9F15091   4.222   0.525   7.253  0.3010  1.3809  1.1313
  138OSM   C10F15092   4.268   0.462   7.451 -0.4662 -0.5302  0.3599
  138OSM   H10F15093   4.316   0.555   7.483  2.0239 -1.3598 -0.7265
  138OSM   C11F15094   4.275   0.366   7.565 -0.5193  0.4770  0.1746
  138OSM   H11F15095   4.316   0.268   7.529 -1.1225  0.2707  0.0394
  138OSM   H11G15096   4.178   0.324   7.599 -0.1620 -2.9169 -2.3623
  138OSM   C12F15097   4.361   0.416   7.684 -0.7692 -0.1909  0.2278
  138OSM   H12F15098   4.311   0.502   7.734 -0.5878  0.4133 -0.6137
  138OSM   H12G15099   4.458   0.457   7.648 -2.2958  2.7454 -0.9100
  138OSM   C13F15100   4.389   0.307   7.789 -1.0385 -0.4851 -0.4369
  138OSM   H13F15101   4.465   0.228   7.769 -1.1387 -1.0696  1.3192
  138OSM   H13G15102   4.291   0.262   7.813 -0.5561 -1.9095 -1.0061
  138OSM   C14F15103   4.441   0.371   7.920 -0.3304  0.7469 -1.1152
  138OSM   H14F15104   4.359   0.426   7.970 -0.9784 -0.5438 -0.7280
  138OSM   H14G15105   4.525   0.443   7.906  2.1695 -1.4635  1.2834
  138OSM   C15F15106   4.501   0.263   8.014 -0.0888  0.0523  0.2377
  138OSM   H15F15107   4.582   0.211   7.958  0.0997 -0.1724  0.7109
  138OSM   H15G15108   4.427   0.187   8.043  0.2867 -1.0282 -1.5057
  138OSM   C16F15109   4.563   0.330   8.136  0.8471  0.2350 -0.7787
  138OSM   H16F15110   4.476   0.383   8.179 -0.0489  0.4703 -2.7914
  138OSM   H16G15111   4.648   0.395   8.107  2.1597 -0.1632  1.8564
  138OSM   C17F15112   4.605   0.238   8.249  0.2730  0.1961 -0.5404
  138OSM   H17F15113   4.688   0.169   8.220  1.1580  0.8920  0.2624
  138OSM   H17G15114   4.525   0.165   8.276  1.4342 -0.5143  1.1747
  138OSM   C18F15115   4.647   0.316   8.369 -0.7139 -0.4612 -0.2945
  138OSM   H18F15116   4.668   0.256   8.460  2.1833  3.3592  1.8493
  138OSM   H18G15117   4.558   0.375   8.398 -1.1447 -0.4663 -1.5208
  138OSM   H18H15118   4.733   0.385   8.360 -0.3799 -0.2572  3.1488
  139OSM      N15119   4.358   2.045   5.732  0.2487  0.5098  0.1839
  139OSM    C1515120   4.473   2.085   5.646 -0.1764  0.6293  0.2969
  139OSM   H15A15121   4.451   2.085   5.540  0.1298  0.5201  0.2331
  139OSM   H15B15122   4.549   2.008   5.648  0.1301  0.9011 -0.4852
  139OSM   H15C15123   4.519   2.176   5.680  0.5079  0.0977  0.8337
  139OSM    C1415124   4.237   2.117   5.695 -0.6554 -0.3301 -0.3589
  139OSM   H14A15125   4.155   2.047   5.688  0.4616 -1.6850 -0.2549
  139OSM   H14B15126   4.246   2.171   5.602  1.9819 -1.6254 -0.9587
  139OSM   H14C15127   4.207   2.190   5.769  1.2409  1.5669 -1.3507
  139OSM    C1315128   4.341   1.895   5.716 -0.0380  0.3761 -0.0143
  139OSM   H13A15129   4.295   1.876   5.620  0.1343 -1.7917  0.2733
  139OSM   H13B15130   4.263   1.853   5.778  0.9530 -0.9902  0.3523
  139OSM   H13C15131   4.431   1.840   5.736 -0.0878 -0.3065 -1.5148
  139OSM    C1215132   4.386   2.078   5.871 -0.4324  0.3309 -0.6745
  139OSM   H12A15133   4.399   2.183   5.892 -3.6451  0.3730  2.0807
  139OSM   H12B15134   4.481   2.032   5.896 -1.2627 -0.7714  0.6321
  139OSM    C1115135   4.282   2.033   5.984 -0.0874  0.4926 -0.0605
  139OSM   H11A15136   4.332   2.026   6.083  0.1299  0.7130 -0.1520
  139OSM   H11B15137   4.243   1.930   5.968 -0.1065  0.5513 -0.4079
  139OSM      P15138   4.197   2.263   6.072  0.0936 -0.4629  0.4422
  139OSM    O1315139   4.338   2.303   6.042 -0.1548  0.0232 -0.2372
  139OSM    O1415140   4.085   2.356   6.033  0.0336 -0.0565  0.2451
  139OSM    O1115141   4.182   2.225   6.228  0.0400  0.1644  0.3984
  139OSM    O1215142   4.176   2.128   5.991 -0.4500 -0.7446 -0.0472
  139OSM    C1S15143   4.295   2.197   6.308  0.6297  0.2975  0.3190
  139OSM    H1S15144   4.353   2.291   6.325  0.4816  0.5270 -0.4117
  139OSM    H1T15145   4.368   2.138   6.249  0.6191  1.7261 -1.2055
  139OSM     NF15146   4.384   2.089   6.520 -0.0413  0.6223  0.9779
  139OSM    HNF15147   4.423   2.001   6.494  2.3247  2.0743 -0.7288
  139OSM    C2S15148   4.262   2.135   6.450 -0.0294  0.6104 -0.6623
  139OSM    H2S15149   4.226   2.225   6.503  1.7521  2.5906 -2.5746
  139OSM    C3S15150   4.157   2.026   6.443  0.4295 -0.1030  0.9350
  139OSM    H3S15151   4.177   1.936   6.381  0.6350  0.4556  0.1668
  139OSM     O315152   4.041   2.085   6.395  0.6369 -0.4782  0.0500
  139OSM    HO315153   4.074   2.171   6.369 -0.9289  0.3635  0.7020
  139OSM    C4S15154   4.116   1.985   6.583 -0.3670  0.0019  0.2698
  139OSM    H4S15155   4.049   2.050   6.641  0.8789 -0.0086  1.7979
  139OSM    C5S15156   4.148   1.865   6.639 -0.0602  0.2059  0.8196
  139OSM    H5S15157   4.229   1.812   6.587  1.2598  2.8044  0.0878
  139OSM    C6S15158   4.107   1.816   6.771 -0.6663 -0.3885  0.3158
  139OSM    H6S15159   4.088   1.707   6.782  1.0930 -0.4989  2.9988
  139OSM    H6T15160   4.022   1.877   6.810 -1.4253 -0.7418 -0.7170
  139OSM    C7S15161   4.238   1.833   6.854 -0.2139 -0.0364  0.1377
  139OSM    H7S15162   4.268   1.939   6.841  1.0648 -0.6105 -2.1235
  139OSM    H7T15163   4.327   1.777   6.817 -0.3957 -1.2041  1.4036
  139OSM    C8S15164   4.227   1.813   7.001 -0.2457  0.5012 -0.5730
  139OSM    H8S15165   4.180   1.713   7.017  1.1970  0.2912  3.6206
  139OSM    H8T15166   4.169   1.889   7.057  0.6971 -0.5298  1.9618
  139OSM    C9S15167   4.368   1.795   7.067 -0.1813 -0.0037 -0.1267
  139OSM    H9S15168   4.420   1.712   7.014  1.6280  1.1635 -0.2652
  139OSM    H9T15169   4.340   1.772   7.172 -1.2278  1.5723 -0.0300
  139OSM   C10S15170   4.463   1.913   7.081  0.4757 -0.0210  0.2965
  139OSM   H10S15171   4.455   1.999   7.011  0.7130 -0.1174  0.1489
  139OSM   H10T15172   4.563   1.872   7.057  0.3640  0.8879 -2.0149
  139OSM   C11S15173   4.485   1.975   7.222 -0.2149 -0.2106 -0.0857
  139OSM   H11S15174   4.388   1.964   7.274 -1.4529  1.0117 -2.0067
  139OSM   H11T15175   4.511   2.083   7.217  0.0974 -0.2458  0.6635
  139OSM   C12S15176   4.587   1.899   7.313 -0.6718  0.3671 -0.6425
  139OSM   H12S15177   4.692   1.906   7.276  0.1672  1.0412  1.7267
  139OSM   H12T15178   4.563   1.791   7.316 -0.4171  0.3432  1.4994
  139OSM   C13S15179   4.590   1.951   7.455 -0.3839  0.2003 -0.1944
  139OSM   H13S15180   4.496   1.920   7.506  0.0520  0.1647  0.6151
  139OSM   H13T15181   4.603   2.062   7.456  0.2393  0.1363 -0.6487
  139OSM   C14S15182   4.712   1.892   7.534  0.3935 -0.7603 -0.2651
  139OSM   H14S15183   4.805   1.889   7.474 -0.5421 -0.7339 -1.7889
  139OSM   H14T15184   4.677   1.797   7.580  2.2539  0.0367  3.1353
  139OSM   C15S15185   4.740   1.971   7.660 -0.2539  0.4542 -0.1749
  139OSM   H15S15186   4.780   2.071   7.632  2.8436 -0.5812  0.1696
  139OSM   H15T15187   4.823   1.919   7.713 -0.6871 -1.3431 -1.2100
  139OSM   C16S15188   4.619   1.978   7.757  0.2824  1.0475 -0.1852
  139OSM   H16S15189   4.589   1.874   7.778  1.3407  1.2051  2.4768
  139OSM   H16T15190   4.534   2.028   7.707 -2.2048 -1.6567  1.0831
  139OSM   C17S15191   4.649   2.051   7.892 -0.7959  0.6143  0.1238
  139OSM   H17S15192   4.554   2.069   7.947 -1.5006 -1.8326 -0.1640
  139OSM   H17T15193   4.698   2.150   7.881  2.1240 -0.5618  1.4593
  139OSM   C18S15194   4.737   1.973   7.986 -0.1670 -0.2375  0.1912
  139OSM   H18S15195   4.733   2.015   8.089 -0.5034 -1.1682  0.5720
  139OSM   H18T15196   4.837   1.966   7.938 -0.0481  1.2117  0.1871
  139OSM   H18U15197   4.706   1.866   7.992 -1.5523 -0.1076 -2.8881
  139OSM    C1F15198   4.457   2.177   6.590 -0.7450 -0.1756  0.7731
  139OSM     OF15199   4.423   2.298   6.592 -0.1420  0.0212 -0.3122
  139OSM    C2F15200   4.592   2.134   6.647 -0.5320  0.2295 -0.7464
  139OSM    H2F15201   4.642   2.233   6.655 -0.4735  0.0592  1.7029
  139OSM    H2G15202   4.653   2.074   6.576 -0.6626 -0.6541 -0.1327
  139OSM    C3F15203   4.587   2.074   6.791  0.0717  0.3192 -0.9039
  139OSM    H3F15204   4.559   1.966   6.790 -0.8037  0.4618 -4.6166
  139OSM    H3G15205   4.509   2.125   6.850 -0.3330  0.0043 -1.1655
  139OSM    C4F15206   4.716   2.103   6.867 -0.6203  0.1063 -0.1484
  139OSM    H4F15207   4.800   2.094   6.795 -1.3830 -1.5841 -0.8989
  139OSM    H4G15208   4.733   2.019   6.938  2.0982 -1.0400 -1.9811
  139OSM    C5F15209   4.736   2.236   6.944 -0.7062  0.4507 -0.5233
  139OSM    H5F15210   4.658   2.253   7.021  1.2567  2.9129  1.1223
  139OSM    H5G15211   4.724   2.314   6.866  0.4353  1.1651 -0.0176
  139OSM    C6F15212   4.878   2.251   7.016  0.8242 -0.7097 -0.0930
  139OSM    H6F15213   4.882   2.359   7.041  2.8015 -0.7699 -0.0318
  139OSM    H6G15214   4.961   2.231   6.945  1.8627  0.9782  0.5803
  139OSM    C7F15215   4.888   2.182   7.149 -0.4122 -0.2510 -0.3388
  139OSM    H7F15216   4.896   2.073   7.131  2.0072 -0.2076  0.0690
  139OSM    H7G15217   4.801   2.191   7.218  0.2821  2.1365  0.3388
  139OSM    C8F15218   5.025   2.207   7.236  0.1540 -0.9418  0.5937
  139OSM    H8F15219   5.026   2.316   7.259  2.1775 -0.8988  0.5104
  139OSM    H8G15220   5.100   2.179   7.159 -1.7322 -3.5095 -0.4549
  139OSM    C9F15221   5.034   2.131   7.369  1.0048 -0.2948  0.1107
  139OSM    H9F15222   4.980   2.035   7.369  0.0433  0.2423 -0.2088
  139OSM   C10F15223   5.123   2.161   7.460  0.4765 -0.7815 -0.0725
  139OSM   H10F15224   5.142   2.091   7.543  1.8710 -0.3567 -0.0098
  139OSM   C11F15225   5.216   2.280   7.472 -0.4302 -0.5663 -0.0487
  139OSM   H11F15226   5.209   2.349   7.384  0.1743 -0.2954  0.1076
  139OSM   H11G15227   5.320   2.242   7.474 -0.1047  0.1321 -1.8431
  139OSM   C12F15228   5.193   2.359   7.602 -0.2412 -0.4532  1.0942
  139OSM   H12F15229   5.093   2.405   7.583 -0.7895 -1.7936  0.6202
  139OSM   H12G15230   5.271   2.437   7.610 -0.0007 -0.5658 -0.0749
  139OSM   C13F15231   5.203   2.277   7.731 -0.0103 -0.1983 -0.9436
  139OSM   H13F15232   5.304   2.232   7.746 -0.1078 -0.0322  0.3719
  139OSM   H13G15233   5.133   2.191   7.737 -0.6783  0.3955  0.1517
  139OSM   C14F15234   5.150   2.352   7.854  0.0445  0.0369 -0.0475
  139OSM   H14F15235   5.199   2.451   7.868 -0.4685  0.4608 -1.1881
  139OSM   H14G15236   5.179   2.303   7.949 -0.5175  2.3039  1.3869
  139OSM   C15F15237   4.999   2.371   7.859 -0.2305 -0.4766  0.0631
  139OSM   H15F15238   4.946   2.273   7.863 -0.3869 -0.4375 -0.8525
  139OSM   H15G15239   4.979   2.428   7.766  2.5861 -2.4466 -1.9153
  139OSM   C16F15240   4.961   2.454   7.990  0.8356  0.3289 -0.4888
  139OSM   H16F15241   4.985   2.561   7.973  0.5968  0.5143  0.3195
  139OSM   H16G15242   5.015   2.419   8.080  0.0883  0.7084  0.1153
  139OSM   C17F15243   4.805   2.431   8.019  0.3578 -0.3433  0.1339
  139OSM   H17F15244   4.779   2.324   8.037  0.2564 -0.1782  1.0512
  139OSM   H17G15245   4.750   2.468   7.930 -1.3671 -2.1267  0.3654
  139OSM   C18F15246   4.752   2.507   8.141 -0.1947 -0.4854  0.0423
  139OSM   H18F15247   4.771   2.616   8.134  2.3277 -0.8746 -0.2306
  139OSM   H18G15248   4.783   2.472   8.242  1.2684  1.4007  0.3053
  139OSM   H18H15249   4.641   2.507   8.135 -0.2440  2.0376 -0.1233
  140OSM      N15250   3.505   2.800   6.128 -0.0908 -0.4694 -0.2067
  140OSM    C1515251   3.639   2.737   6.115  0.1352  0.3766  0.3386
  140OSM   H15A15252   3.651   2.709   6.011  0.4751  1.0223  0.1985
  140OSM   H15B15253   3.649   2.650   6.178  1.5276  0.3313  0.0939
  140OSM   H15C15254   3.719   2.807   6.133  1.5243 -0.6917 -1.3682
  140OSM    C1415255   3.396   2.706   6.114 -0.4295  0.3687 -0.8922
  140OSM   H14A15256   3.314   2.723   6.181  1.1901  2.1034  0.7714
  140OSM   H14B15257   3.427   2.607   6.145 -1.4565  0.6736  1.2534
  140OSM   H14C15258   3.349   2.701   6.017 -4.9417  1.5369  1.0015
  140OSM    C1315259   3.494   2.859   6.263  0.4408 -0.6538 -0.8444
  140OSM   H13A15260   3.490   2.790   6.346 -0.3268  0.5813  0.1858
  140OSM   H13B15261   3.402   2.914   6.282  1.5423  0.7461  0.7968
  140OSM   H13C15262   3.579   2.924   6.276  0.3952 -0.7958  0.2978
  140OSM    C1215263   3.490   2.906   6.025 -0.4961 -0.2373 -0.1254
  140OSM   H12A15264   3.391   2.946   6.043 -0.0391  1.1227 -0.4900
  140OSM   H12B15265   3.484   2.858   5.928  3.0942 -1.0225 -0.0749
  140OSM    C1115266   3.589   3.024   6.017  0.4095  0.1571  0.7443
  140OSM   H11A15267   3.535   3.100   5.958  2.6785  2.5979  1.5901
  140OSM   H11B15268   3.676   2.996   5.954 -1.5724 -2.3183 -1.1054
  140OSM      P15269   3.601   3.224   6.190  0.2175 -0.1357  0.0964
  140OSM    O1315270   3.666   3.321   6.100  0.3191  0.4901 -0.1894
  140OSM    O1415271   3.460   3.227   6.211 -0.2250 -0.0904 -0.0815
  140OSM    O1115272   3.663   3.230   6.339  0.2191 -0.0699  0.1656
  140OSM    O1215273   3.640   3.082   6.136  0.3923 -0.7046  0.2356
  140OSM    C1S15274   3.648   3.349   6.421 -0.5768  0.3743  1.0249
  140OSM    H1S15275   3.575   3.418   6.373 -0.8683 -0.7108 -0.1559
  140OSM    H1T15276   3.738   3.412   6.412 -0.0813 -0.5633 -1.0978
  140OSM     NF15277   3.578   3.438   6.642  0.0081 -0.2568  0.2142
  140OSM    HNF15278   3.655   3.472   6.696  0.8060  2.5595 -2.3699
  140OSM    C2S15279   3.605   3.317   6.570 -0.3045  0.7522  0.2540
  140OSM    H2S15280   3.515   3.253   6.577 -0.2375  0.5377 -0.6987
  140OSM    C3S15281   3.718   3.225   6.641 -0.3330 -0.1920 -0.2702
  140OSM    H3S15282   3.808   3.289   6.651  0.6649 -1.7315  1.1723
  140OSM     O315283   3.769   3.129   6.549  0.4753  0.0960 -0.6604
  140OSM    HO315284   3.732   3.170   6.470 -2.4327  2.2594  1.5761
  140OSM    C4S15285   3.676   3.170   6.771 -0.5359  0.8388  0.3974
  140OSM    H4S15286   3.697   3.240   6.852 -0.8479  0.8159  0.4974
  140OSM    C5S15287   3.620   3.050   6.786  0.3627  0.5686  0.1322
  140OSM    H5S15288   3.614   2.985   6.698  2.4284  0.2902  0.1526
  140OSM    C6S15289   3.567   2.998   6.916  0.2262 -0.0799 -0.2764
  140OSM    H6S15290   3.625   2.906   6.940  0.5055 -1.1157 -4.1661
  140OSM    H6T15291   3.463   2.960   6.901  0.3846 -1.7001  2.1864
  140OSM    C7S15292   3.553   3.105   7.026 -0.1591  0.0119 -0.0889
  140OSM    H7S15293   3.506   3.196   6.983  0.9294  0.5289 -0.1996
  140OSM    H7T15294   3.653   3.132   7.065 -0.4787  2.0933 -0.6218
  140OSM    C8S15295   3.495   3.062   7.159  0.6164 -0.3694 -0.6965
  140OSM    H8S15296   3.401   3.011   7.129  1.1534 -1.4403 -0.5975
  140OSM    H8T15297   3.473   3.158   7.212  1.0406  1.0104 -2.9043
  140OSM    C9S15298   3.588   2.967   7.240  0.0555  0.0921  0.3265
  140OSM    H9S15299   3.674   3.029   7.275 -0.7892  1.5659 -0.1311
  140OSM    H9T15300   3.624   2.893   7.166 -0.6296 -0.2633  0.3439
  140OSM   C10S15301   3.528   2.882   7.349 -0.3679 -0.7907  0.3407
  140OSM   H10S15302   3.601   2.804   7.379  0.9378 -0.5561 -1.9708
  140OSM   H10T15303   3.429   2.844   7.318 -0.1566 -2.1311  1.2004
  140OSM   C11S15304   3.519   2.960   7.484 -0.1809  0.0948 -0.2639
  140OSM   H11S15305   3.450   3.040   7.451 -1.0620 -0.9707 -1.0920
  140OSM   H11T15306   3.617   3.007   7.507 -0.0189  0.5921 -1.8716
  140OSM   C12S15307   3.467   2.873   7.602  0.6063 -0.5718  0.5452
  140OSM   H12S15308   3.540   2.790   7.612  1.7566  0.3263 -0.0528
  140OSM   H12T15309   3.371   2.838   7.559 -0.7851  2.8919  0.4445
  140OSM   C13S15310   3.441   2.948   7.732 -0.1459 -0.0494  0.1965
  140OSM   H13S15311   3.353   3.014   7.715 -1.3485 -1.9588 -1.4647
  140OSM   H13T15312   3.533   3.007   7.752  2.5708 -3.7426 -0.2613
  140OSM   C14S15313   3.422   2.856   7.852 -0.3231  0.3954 -0.9871
  140OSM   H14S15314   3.418   2.921   7.942  0.3355  1.2549 -1.5616
  140OSM   H14T15315   3.510   2.789   7.865 -0.7798  0.1106  1.0965
  140OSM   C15S15316   3.284   2.778   7.840  0.0039 -0.1860 -0.7652
  140OSM   H15S15317   3.296   2.714   7.750 -1.9749  1.0384 -2.0009
  140OSM   H15T15318   3.197   2.843   7.816 -1.2593 -1.1661  0.9740
  140OSM   C16S15319   3.241   2.700   7.958 -0.4375  0.6393 -0.5681
  140OSM   H16S15320   3.192   2.753   8.042 -0.5963 -0.1802 -0.1310
  140OSM   H16T15321   3.331   2.657   8.008 -0.3816 -0.4609 -1.5623
  140OSM   C17S15322   3.161   2.581   7.915 -0.2819  0.1260 -0.1393
  140OSM   H17S15323   3.210   2.508   7.847 -0.8196  0.6019 -1.0628
  140OSM   H17T15324   3.072   2.624   7.865 -1.8451 -0.9219  1.6316
  140OSM   C18S15325   3.115   2.485   8.032 -0.0576 -0.2837  0.1228
  140OSM   H18S15326   3.085   2.382   8.001 -0.7736 -0.0058 -0.1368
  140OSM   H18T15327   3.023   2.526   8.078 -0.7561 -1.6927  0.0220
  140OSM   H18U15328   3.193   2.488   8.111  1.8751 -0.1306 -1.7031
  140OSM    C1F15329   3.478   3.526   6.619 -0.3203  0.1689  0.3066
  140OSM     OF15330   3.399   3.505   6.525  0.2920 -0.2695 -0.1219
  140OSM    C2F15331   3.488   3.653   6.688 -0.2684 -0.2614  0.2943
  140OSM    H2F15332   3.487   3.734   6.612  1.7629 -0.4640 -0.0015
  140OSM    H2G15333   3.582   3.661   6.746  0.2829  0.1353 -0.6441
  140OSM    C3F15334   3.375   3.678   6.795 -1.2284 -0.0009 -0.4197
  140OSM    H3F15335   3.374   3.605   6.878  0.2906  3.2953  2.7712
  140OSM    H3G15336   3.272   3.674   6.753 -1.6837 -0.5779  0.7310
  140OSM    C4F15337   3.378   3.822   6.866 -0.2637  0.1926  0.2084
  140OSM    H4F15338   3.339   3.903   6.800  1.8502  1.9557  1.0033
  140OSM    H4G15339   3.479   3.857   6.894 -0.4747 -0.7709  2.3432
  140OSM    C5F15340   3.286   3.836   6.991  0.5494  0.0977  0.3506
  140OSM    H5F15341   3.179   3.814   6.966  0.0305  0.7906  1.8645
  140OSM    H5G15342   3.284   3.943   7.020 -0.0500  0.0452  0.5176
  140OSM    C6F15343   3.322   3.755   7.118  0.5192 -0.2039 -0.4394
  140OSM    H6F15344   3.431   3.760   7.136  0.7837  0.2143 -2.0539
  140OSM    H6G15345   3.300   3.648   7.100 -0.9713 -0.0487  0.2993
  140OSM    C7F15346   3.248   3.822   7.240  0.1332  0.7070  0.6765
  140OSM    H7F15347   3.144   3.836   7.206  1.2256  1.0139 -2.9797
  140OSM    H7G15348   3.298   3.921   7.256  1.7155  0.3754 -1.6256
  140OSM    C8F15349   3.270   3.756   7.377 -0.1744  0.7501  0.3584
  140OSM    H8F15350   3.226   3.654   7.368  2.3229 -0.3090 -1.2096
  140OSM    H8G15351   3.210   3.807   7.455  0.7413  2.0446  0.2460
  140OSM    C9F15352   3.408   3.722   7.432  0.8324 -0.6402 -0.9562
  140OSM    H9F15353   3.468   3.648   7.376  0.7328 -0.9852 -0.6053
  140OSM   C10F15354   3.474   3.779   7.540  0.2775  0.0787 -0.3320
  140OSM   H10F15355   3.574   3.738   7.556 -0.0746 -1.5091 -1.8579
  140OSM   C11F15356   3.406   3.882   7.629 -0.3517 -0.1029 -1.0409
  140OSM   H11F15357   3.319   3.828   7.673  2.0453 -2.2927  1.4029
  140OSM   H11G15358   3.374   3.973   7.574 -2.6202 -1.0695 -1.4389
  140OSM   C12F15359   3.490   3.908   7.753  0.0230 -0.3544  0.0537
  140OSM   H12F15360   3.600   3.917   7.736  0.5897  0.3037  3.3480
  140OSM   H12G15361   3.478   3.820   7.821  1.3434 -0.2996  0.3957
  140OSM   C13F15362   3.448   4.040   7.823  0.3019  0.5649  0.3295
  140OSM   H13F15363   3.356   4.013   7.879  1.0256  1.7063  2.1475
  140OSM   H13G15364   3.429   4.129   7.760 -0.2157 -0.4147 -0.9579
  140OSM   C14F15365   3.566   4.085   7.918  0.3807 -0.1876  0.8240
  140OSM   H14F15366   3.528   4.177   7.967  2.1933  0.0631  1.8488
  140OSM   H14G15367   3.652   4.129   7.863  1.0920 -2.4969 -0.0085
  140OSM   C15F15368   3.614   3.984   8.022  0.0022  0.4531  0.4584
  140OSM   H15F15369   3.695   3.921   7.980 -0.0851  0.6764 -0.0536
  140OSM   H15G15370   3.520   3.928   8.040  0.7764 -1.1810 -0.3457
  140OSM   C16F15371   3.652   4.051   8.160 -0.1546  0.1126  0.0326
  140OSM   H16F15372   3.721   4.134   8.137 -2.1698  1.4595 -1.5351
  140OSM   H16G15373   3.693   3.977   8.232 -0.6535  1.4816  1.7794
  140OSM   C17F15374   3.530   4.110   8.233 -0.6238 -0.1405 -0.6949
  140OSM   H17F15375   3.446   4.039   8.248 -1.1628  0.8450  1.4955
  140OSM   H17G15376   3.500   4.207   8.187 -1.9944  0.7652  1.8649
  140OSM   C18F15377   3.557   4.139   8.385  0.3073 -0.2757  1.0207
  140OSM   H18F15378   3.470   4.192   8.430  1.8823 -0.3418  4.4765
  140OSM   H18G15379   3.645   4.207   8.390  0.1182  0.1396 -0.7463
  140OSM   H18H15380   3.574   4.050   8.449 -0.6194 -0.4618  1.0203
  141OSM      N15381   3.563   6.504   5.877 -0.2889 -0.3161  0.6001
  141OSM    C1515382   3.514   6.400   5.971  0.5549 -0.2862  0.0809
  141OSM   H15A15383   3.459   6.454   6.047 -1.0861 -0.1980 -1.1078
  141OSM   H15B15384   3.594   6.347   6.021  0.9245 -0.7968 -1.0146
  141OSM   H15C15385   3.448   6.329   5.923  0.7885  1.6485 -3.3974
  141OSM    C1415386   3.624   6.430   5.769  0.1505  0.7852  0.0649
  141OSM   H14A15387   3.687   6.500   5.716 -1.3613  0.7195 -1.9685
  141OSM   H14B15388   3.557   6.385   5.697 -0.3236  0.8614  0.4551
  141OSM   H14C15389   3.692   6.350   5.794 -1.6568 -1.2827 -1.2781
  141OSM    C1315390   3.449   6.582   5.826  0.0724  0.7042 -0.7553
  141OSM   H13A15391   3.481   6.657   5.755 -0.8997  0.0512 -1.9072
  141OSM   H13B15392   3.401   6.625   5.912  1.4797  0.8144  0.0116
  141OSM   H13C15393   3.392   6.509   5.771 -0.5824  0.0048  0.8033
  141OSM    C1215394   3.664   6.598   5.943  0.4144 -0.2687 -0.4619
  141OSM   H12A15395   3.706   6.664   5.869  1.1220  1.4614  1.3736
  141OSM   H12B15396   3.746   6.535   5.975  1.4795  2.1914  2.1086
  141OSM    C1115397   3.614   6.683   6.066 -0.1403  1.1371  0.5209
  141OSM   H11A15398   3.703   6.735   6.107  1.0436 -0.6005  0.2656
  141OSM   H11B15399   3.575   6.616   6.145  1.4265 -0.6388 -0.1597
  141OSM      P15400   3.498   6.918   6.094 -0.2199 -0.2174  0.3252
  141OSM    O1315401   3.584   7.021   6.036 -0.0584 -0.5729  0.5006
  141OSM    O1415402   3.358   6.951   6.104  0.2713 -0.3004 -0.7193
  141OSM    O1115403   3.551   6.897   6.241 -0.3070  0.0612  0.1873
  141OSM    O1215404   3.512   6.775   6.026 -0.6102  0.1198  0.5992
  141OSM    C1S15405   3.631   6.991   6.303 -0.7280 -0.1436  0.5374
  141OSM    H1S15406   3.596   7.096   6.293 -1.2029 -0.1346  2.0109
  141OSM    H1T15407   3.732   6.995   6.257  0.5023 -2.8049  2.7238
  141OSM     NF15408   3.767   7.071   6.487  0.0383  0.0258  0.4627
  141OSM    HNF15409   3.863   7.071   6.458  0.1458  0.1087  0.8196
  141OSM    C2S15410   3.678   6.960   6.445 -0.2187  0.1675 -0.2234
  141OSM    H2S15411   3.583   6.964   6.502  0.5192  0.7530  0.9909
  141OSM    C3S15412   3.741   6.827   6.460 -0.4371  0.4068 -0.4660
  141OSM    H3S15413   3.834   6.837   6.400 -0.3847  2.3668 -0.1160
  141OSM     O315414   3.668   6.714   6.417  0.0405  0.0335 -0.1406
  141OSM    HO315415   3.599   6.751   6.362  1.4115  1.2960 -1.1127
  141OSM    C4S15416   3.795   6.810   6.598 -0.0804 -0.0072 -0.5869
  141OSM    H4S15417   3.901   6.841   6.605 -0.3821  0.6988  1.6993
  141OSM    C5S15418   3.744   6.753   6.705 -0.1146 -0.0720  0.1989
  141OSM    H5S15419   3.644   6.708   6.696 -0.0251 -0.0477 -1.1275
  141OSM    C6S15420   3.816   6.738   6.838  0.4620  0.5017  0.4171
  141OSM    H6S15421   3.912   6.794   6.840  1.0071 -0.2074 -1.9854
  141OSM    H6T15422   3.839   6.630   6.848  0.3423  0.4238 -0.1104
  141OSM    C7S15423   3.735   6.769   6.968 -0.5192  0.5480  0.0245
  141OSM    H7S15424   3.639   6.715   6.968  0.3789 -1.1080  0.3652
  141OSM    H7T15425   3.720   6.879   6.965  0.6138  0.7073 -0.2483
  141OSM    C8S15426   3.808   6.730   7.100  0.0932  0.1568  0.2041
  141OSM    H8S15427   3.906   6.783   7.094 -1.5445  3.2817 -1.7429
  141OSM    H8T15428   3.829   6.622   7.085  2.6937  0.3631  1.5962
  141OSM    C9S15429   3.737   6.753   7.228  0.6702 -0.3421 -0.4197
  141OSM    H9S15430   3.650   6.684   7.226  1.5681 -1.4913 -1.0609
  141OSM    H9T15431   3.706   6.859   7.219  1.7102  0.3105  2.4510
  141OSM   C10S15432   3.811   6.727   7.362  0.6325 -0.1675 -0.0786
  141OSM   H10S15433   3.902   6.790   7.373  0.4977 -0.1228  0.8820
  141OSM   H10T15434   3.849   6.622   7.370  4.1014  0.9597  0.0378
  141OSM   C11S15435   3.725   6.762   7.482  0.1967 -0.0635 -0.3094
  141OSM   H11S15436   3.623   6.720   7.481 -0.5796  1.6570  0.7419
  141OSM   H11T15437   3.710   6.873   7.481  0.9350  0.0508  0.2548
  141OSM   C12S15438   3.798   6.729   7.616 -0.1179  0.1106 -0.0704
  141OSM   H12S15439   3.747   6.774   7.704  0.1318  1.9434 -0.8083
  141OSM   H12T15440   3.898   6.773   7.596  0.7312 -0.8366  1.8497
  141OSM   C13S15441   3.804   6.579   7.650  0.0279  0.1027  0.1274
  141OSM   H13S15442   3.864   6.528   7.571  0.5737  1.0670 -0.1033
  141OSM   H13T15443   3.700   6.541   7.657 -0.8988  2.1362 -1.5779
  141OSM   C14S15444   3.863   6.548   7.787  1.0609  0.2499 -0.5436
  141OSM   H14S15445   3.820   6.620   7.860 -0.2752 -0.9345 -0.1154
  141OSM   H14T15446   3.972   6.559   7.805  0.2933  1.2769  6.0052
  141OSM   C15S15447   3.818   6.407   7.836 -0.2706  0.5472 -0.0232
  141OSM   H15S15448   3.868   6.334   7.769  4.3478  2.7054  0.6896
  141OSM   H15T15449   3.707   6.403   7.832 -0.3394  2.4479 -1.1750
  141OSM   C16S15450   3.857   6.374   7.973  0.0719  0.0599  0.5194
  141OSM   H16S15451   3.800   6.451   8.029 -2.5461 -1.3597 -0.0047
  141OSM   H16T15452   3.965   6.388   7.997 -0.1182  4.3802 -0.3012
  141OSM   C17S15453   3.807   6.237   8.014 -0.4401  0.2634 -0.2787
  141OSM   H17S15454   3.871   6.169   7.953 -0.1830  0.1504  0.1144
  141OSM   H17T15455   3.707   6.222   7.968 -0.4833 -0.3453 -0.0015
  141OSM   C18S15456   3.801   6.215   8.169  0.1697  0.1027  0.5025
  141OSM   H18S15457   3.903   6.227   8.211  1.2503 -3.3630 -0.7644
  141OSM   H18T15458   3.774   6.109   8.189  0.1989 -0.0134 -0.0396
  141OSM   H18U15459   3.738   6.287   8.225 -0.6903 -2.6331  3.3428
  141OSM    C1F15460   3.714   7.191   6.519 -0.6260  0.3167 -0.7218
  141OSM     OF15461   3.596   7.205   6.530 -0.4691  0.3993 -0.2069
  141OSM    C2F15462   3.807   7.305   6.540  0.0926  0.7231 -0.0362
  141OSM    H2F15463   3.781   7.378   6.460  1.5194  0.1987 -1.0308
  141OSM    H2G15464   3.910   7.269   6.521  0.0357  0.5602 -0.0387
  141OSM    C3F15465   3.796   7.356   6.679  0.0047 -0.2462 -0.3139
  141OSM    H3F15466   3.690   7.387   6.692  0.1021 -0.6163  1.7445
  141OSM    H3G15467   3.846   7.455   6.688 -1.7272  0.7028 -0.6255
  141OSM    C4F15468   3.807   7.244   6.784 -0.0323 -0.0262  0.4827
  141OSM    H4F15469   3.898   7.183   6.771  0.1548  0.0940  1.1667
  141OSM    H4G15470   3.715   7.182   6.791  2.0659 -3.9164 -2.5435
  141OSM    C5F15471   3.805   7.313   6.919 -0.6066 -0.6882 -0.3661
  141OSM    H5F15472   3.718   7.380   6.935 -1.7716 -1.7482 -1.8310
  141OSM    H5G15473   3.900   7.369   6.928 -0.8020 -0.1106 -1.6668
  141OSM    C6F15474   3.803   7.215   7.034  0.0910  0.2860  0.6498
  141OSM    H6F15475   3.906   7.174   7.035 -0.0038  0.0434  0.4661
  141OSM    H6G15476   3.728   7.136   7.010 -2.1096  2.9122 -1.8640
  141OSM    C7F15477   3.751   7.278   7.162  0.7444 -0.2579 -1.3012
  141OSM    H7F15478   3.662   7.340   7.137  1.8316  1.4589 -1.0518
  141OSM    H7G15479   3.833   7.337   7.206 -1.3243  1.2697  0.7281
  141OSM    C8F15480   3.703   7.165   7.259 -0.5704 -0.6695  0.1191
  141OSM    H8F15481   3.783   7.095   7.293  1.1520  2.2945  2.7217
  141OSM    H8G15482   3.620   7.110   7.210  0.3193 -0.1194 -2.1124
  141OSM    C9F15483   3.627   7.208   7.382  0.5147 -0.6548 -0.6769
  141OSM    H9F15484   3.521   7.227   7.364 -0.4616 -0.6358  3.8078
  141OSM   C10F15485   3.677   7.225   7.511 -0.1138 -0.2724  0.1463
  141OSM   H10F15486   3.603   7.249   7.590  0.0656 -2.5972  1.0899
  141OSM   C11F15487   3.814   7.195   7.575 -0.4384  0.1754 -0.3512
  141OSM   H11F15488   3.870   7.288   7.597  0.0671 -0.2049  0.0071
  141OSM   H11G15489   3.887   7.137   7.513  0.8094  0.7843  0.4989
  141OSM   C12F15490   3.783   7.120   7.710 -0.3345 -1.3051 -0.5615
  141OSM   H12F15491   3.707   7.040   7.695 -1.0675 -1.1791  2.0874
  141OSM   H12G15492   3.739   7.186   7.788 -1.3009 -0.1065 -2.0510
  141OSM   C13F15493   3.910   7.048   7.759 -0.2084  0.4938 -0.7157
  141OSM   H13F15494   4.000   7.113   7.755 -0.5599  1.0209 -0.0570
  141OSM   H13G15495   3.918   6.964   7.686  0.2548 -0.7776  0.7536
  141OSM   C14F15496   3.897   6.975   7.892 -0.2139 -0.1200 -0.2235
  141OSM   H14F15497   3.809   6.907   7.892 -0.5186  0.2677 -0.9314
  141OSM   H14G15498   3.878   7.040   7.980 -1.9637  0.2725 -0.8469
  141OSM   C15F15499   4.024   6.884   7.910  0.0256  0.3236 -0.6056
  141OSM   H15F15500   4.115   6.943   7.889  1.3933 -2.1038 -1.8547
  141OSM   H15G15501   4.010   6.802   7.837 -0.9324  0.5408 -0.6774
  141OSM   C16F15502   4.034   6.839   8.053  0.4590 -0.0011 -0.1715
  141OSM   H16F15503   4.035   6.931   8.115 -3.0473  1.2798 -1.7759
  141OSM   H16G15504   4.125   6.774   8.055  0.8845  0.5974  0.6112
  141OSM   C17F15505   3.919   6.757   8.106 -0.5044 -0.6691 -0.1047
  141OSM   H17F15506   3.927   6.670   8.038  2.9835 -0.2503 -0.3845
  141OSM   H17G15507   3.824   6.814   8.097 -2.4166 -3.3829  1.4006
  141OSM   C18F15508   3.949   6.708   8.248 -0.0723 -0.0185  0.3191
  141OSM   H18F15509   3.886   6.622   8.277  0.4829 -1.2618 -1.9518
  141OSM   H18G15510   3.924   6.780   8.329 -1.9342 -0.2245 -0.0444
  141OSM   H18H15511   4.058   6.684   8.254  0.1849  1.2423  1.1887
  142OSM      N15512   3.793   0.813   6.091 -0.4717  0.8574  0.4332
  142OSM    C1515513   3.675   0.765   6.019  0.9415 -0.0779 -0.0924
  142OSM   H15A15514   3.590   0.817   6.061  0.3871 -0.9227 -0.1295
  142OSM   H15B15515   3.652   0.659   6.019  0.1923 -0.0827 -4.4461
  142OSM   H15C15516   3.671   0.801   5.918  1.5713  0.4456  0.0649
  142OSM    C1415517   3.912   0.736   6.034 -0.4810  0.4838  0.4243
  142OSM   H14A15518   3.995   0.732   6.103 -1.2567  1.6074  1.4670
  142OSM   H14B15519   3.946   0.794   5.949 -1.3279 -1.0151 -1.0195
  142OSM   H14C15520   3.883   0.639   5.997  1.0202 -0.1404  0.8288
  142OSM    C1315521   3.820   0.956   6.063  0.0633 -0.3551  0.4001
  142OSM   H13A15522   3.771   1.016   6.138  1.6552  0.2670  0.9885
  142OSM   H13B15523   3.800   0.990   5.962  1.3574  1.8988  0.8295
  142OSM   H13C15524   3.923   0.981   6.084  0.9256 -1.9576 -1.6217
  142OSM    C1215525   3.784   0.774   6.244 -0.8127  0.3005  0.1544
  142OSM   H12A15526   3.881   0.791   6.288  0.1249 -2.4642 -0.6486
  142OSM   H12B15527   3.775   0.667   6.255 -0.3473  0.1942 -0.4813
  142OSM    C1115528   3.679   0.845   6.333  0.2011 -0.0352  0.3128
  142OSM   H11A15529   3.703   0.820   6.439  0.4412  2.3749  0.8873
  142OSM   H11B15530   3.587   0.793   6.300 -0.2740  1.0562 -0.1306
  142OSM      P15531   3.549   1.071   6.323  0.0021  0.3228  0.2021
  142OSM    O1315532   3.557   1.195   6.246 -0.1801 -0.6830  0.0851
  142OSM    O1415533   3.424   0.996   6.306 -0.4876  0.0886 -0.2213
  142OSM    O1115534   3.543   1.110   6.480 -0.5004  0.5406 -0.6803
  142OSM    O1215535   3.682   0.987   6.320 -0.0142  0.0023 -0.4576
  142OSM    C1S15536   3.627   1.205   6.535  0.8140 -0.2919  0.1174
  142OSM    H1S15537   3.631   1.296   6.472 -1.7820 -0.5950 -0.5861
  142OSM    H1T15538   3.727   1.157   6.545 -0.5066 -2.9760  1.5251
  142OSM     NF15539   3.632   1.368   6.729  0.1642  0.4210  0.4084
  142OSM    HNF15540   3.699   1.351   6.801  0.9178 -0.1521 -0.4073
  142OSM    C2S15541   3.569   1.252   6.671  0.2019  0.1474  0.0232
  142OSM    H2S15542   3.463   1.282   6.655  0.4605  0.7102 -0.6904
  142OSM    C3S15543   3.569   1.128   6.768  0.1323 -0.2715 -0.3569
  142OSM    H3S15544   3.670   1.091   6.794  0.1246 -1.0722 -1.4025
  142OSM     O315545   3.515   1.014   6.711  0.4326  0.3225  0.1079
  142OSM    HO315546   3.515   1.039   6.618  2.2378  2.0570  0.5047
  142OSM    C4S15547   3.500   1.156   6.901  0.4714 -0.2257  0.2049
  142OSM    H4S15548   3.573   1.174   6.983 -0.0204  2.7782  0.0979
  142OSM    C5S15549   3.371   1.171   6.924  0.1461  0.1179 -0.1679
  142OSM    H5S15550   3.306   1.184   6.836 -0.2043 -3.1457 -0.5076
  142OSM    C6S15551   3.296   1.197   7.051  0.3704 -0.3305  0.5360
  142OSM    H6S15552   3.244   1.103   7.079 -1.6024  0.8255  0.9383
  142OSM    H6T15553   3.216   1.274   7.039  1.0742  0.5630  1.3265
  142OSM    C7S15554   3.393   1.240   7.168  0.2725 -0.1984  0.8444
  142OSM    H7S15555   3.452   1.330   7.142 -1.0244  0.4758  0.0976
  142OSM    H7T15556   3.466   1.157   7.183  1.9686  0.6526 -1.9501
  142OSM    C8S15557   3.338   1.263   7.310  0.0836 -0.5268  0.0199
  142OSM    H8S15558   3.278   1.176   7.346 -1.4158  0.9019  1.1203
  142OSM    H8T15559   3.261   1.342   7.296  1.2716  0.2878 -2.4085
  142OSM    C9S15560   3.442   1.305   7.401 -0.7692 -0.0371  0.1358
  142OSM    H9S15561   3.475   1.408   7.374 -0.6765 -0.2343 -0.5269
  142OSM    H9T15562   3.534   1.247   7.379 -1.0639 -0.7171  0.6983
  142OSM   C10S15563   3.410   1.299   7.550 -0.0577  0.0506  0.2186
  142OSM   H10S15564   3.370   1.197   7.569  1.7625 -1.4496 -3.0219
  142OSM   H10T15565   3.340   1.375   7.590 -0.3953  0.7981 -1.6718
  142OSM   C11S15566   3.544   1.299   7.618  0.1938  0.0678  0.7079
  142OSM   H11S15567   3.594   1.394   7.591  1.4870 -0.7223  0.2001
  142OSM   H11T15568   3.607   1.214   7.582 -0.9378 -0.1846 -0.8128
  142OSM   C12S15569   3.525   1.293   7.772  0.4075 -0.0437  0.9331
  142OSM   H12S15570   3.461   1.207   7.796 -0.3174 -0.3931 -1.8490
  142OSM   H12T15571   3.476   1.381   7.819  0.5701 -0.0286  1.0770
  142OSM   C13S15572   3.657   1.286   7.844  0.5250  0.2943 -0.3130
  142OSM   H13S15573   3.697   1.390   7.851 -0.9939  0.9121 -0.3574
  142OSM   H13T15574   3.731   1.228   7.786  0.2849 -0.2288 -0.1095
  142OSM   C14S15575   3.654   1.243   7.991  0.6184  0.3711  0.5871
  142OSM   H14S15576   3.572   1.301   8.039 -1.4336 -0.1338 -2.0585
  142OSM   H14T15577   3.751   1.278   8.032  1.5134 -1.1035 -0.1611
  142OSM   C15S15578   3.641   1.095   8.001  0.1909 -0.4474 -0.5595
  142OSM   H15S15579   3.733   1.043   7.967  0.7492 -0.3113  0.6973
  142OSM   H15T15580   3.567   1.069   7.922 -0.4414  0.3490 -0.2433
  142OSM   C16S15581   3.615   1.039   8.140 -0.1822  1.0775  0.2274
  142OSM   H16S15582   3.510   1.064   8.164 -1.0305 -1.5842 -0.3066
  142OSM   H16T15583   3.690   1.075   8.214  0.8774 -1.9223  0.7707
  142OSM   C17S15584   3.607   0.884   8.135 -0.7989  0.2017 -0.1125
  142OSM   H17S15585   3.555   0.863   8.039 -0.4116 -1.8851  0.1024
  142OSM   H17T15586   3.540   0.848   8.215  0.6072  0.2696  1.1373
  142OSM   C18S15587   3.742   0.812   8.132 -0.2872  0.6064  0.2761
  142OSM   H18S15588   3.787   0.837   8.231  1.3260  3.3176 -1.0184
  142OSM   H18T15589   3.818   0.855   8.063 -1.4041 -0.4136 -1.6728
  142OSM   H18U15590   3.733   0.702   8.119 -2.1971  0.8265 -0.6676
  142OSM    C1F15591   3.626   1.483   6.663  0.1834  0.0330 -0.3234
  142OSM     OF15592   3.537   1.498   6.579 -0.0094 -0.9046 -0.1055
  142OSM    C2F15593   3.736   1.588   6.686  0.8343  0.2863  0.1509
  142OSM    H2F15594   3.709   1.667   6.613 -0.7848  1.0953  1.5572
  142OSM    H2G15595   3.831   1.539   6.655  0.1790  0.2874 -2.0052
  142OSM    C3F15596   3.739   1.660   6.824  0.0815 -0.0342  0.8474
  142OSM    H3F15597   3.643   1.718   6.827 -0.6818 -1.2724  0.9281
  142OSM    H3G15598   3.819   1.736   6.812 -0.2247  0.0661 -0.6839
  142OSM    C4F15599   3.752   1.584   6.956 -0.0265 -0.4561  0.2096
  142OSM    H4F15600   3.655   1.532   6.972  0.1367 -1.1644 -0.9864
  142OSM    H4G15601   3.757   1.662   7.035  1.1700  2.5120 -2.5623
  142OSM    C5F15602   3.861   1.476   6.957  0.2186  0.0961 -0.6609
  142OSM    H5F15603   3.955   1.525   6.992  1.2404 -2.9198  1.3115
  142OSM    H5G15604   3.870   1.437   6.853 -2.1086  0.0799 -0.9004
  142OSM    C6F15605   3.841   1.360   7.058  0.2275  0.1401  0.0613
  142OSM    H6F15606   3.927   1.293   7.036  0.3646 -0.0928  1.2393
  142OSM    H6G15607   3.745   1.309   7.036 -0.0488  0.6811  0.0061
  142OSM    C7F15608   3.851   1.407   7.206 -0.2792 -0.2359  0.9070
  142OSM    H7F15609   3.771   1.484   7.219 -0.2387 -0.0444  0.0985
  142OSM    H7G15610   3.945   1.464   7.219 -0.4631  0.3467 -0.1915
  142OSM    C8F15611   3.849   1.306   7.311  0.1585  0.7434 -0.7409
  142OSM    H8F15612   3.754   1.249   7.305  0.0690  0.8385 -0.2665
  142OSM    H8G15613   3.848   1.356   7.410  1.5745 -0.7367  0.0669
  142OSM    C9F15614   3.966   1.211   7.302  0.1312  0.4171  0.3775
  142OSM    H9F15615   3.979   1.157   7.207 -2.5072  2.4923 -1.3270
  142OSM   C10F15616   4.054   1.189   7.398 -0.1604 -0.7897 -0.2933
  142OSM   H10F15617   4.132   1.119   7.366  1.4967  1.6024 -1.8188
  142OSM   C11F15618   4.059   1.256   7.532  0.4373  0.3637 -0.0022
  142OSM   H11F15619   3.998   1.347   7.544  2.5888  2.0760 -1.3804
  142OSM   H11G15620   4.163   1.291   7.548  0.9210 -0.1755 -1.7559
  142OSM   C12F15621   4.018   1.180   7.664  0.2540  0.4845 -0.0514
  142OSM   H12F15622   4.084   1.091   7.665  2.1631  1.8238  1.5743
  142OSM   H12G15623   3.915   1.143   7.650  1.3437 -2.8823  0.0021
  142OSM   C13F15624   4.036   1.271   7.795  0.0652  0.1314 -0.0774
  142OSM   H13F15625   3.963   1.354   7.786  0.7931  0.9381  1.1406
  142OSM   H13G15626   4.131   1.329   7.800 -1.5111  2.9353 -0.5548
  142OSM   C14F15627   4.031   1.196   7.926  0.2657 -0.1261 -0.4611
  142OSM   H14F15628   4.097   1.107   7.922  1.0502  0.2066  2.5113
  142OSM   H14G15629   3.932   1.150   7.941 -0.9874  2.1693 -1.1818
  142OSM   C15F15630   4.078   1.273   8.045 -0.0295 -0.1942  0.2761
  142OSM   H15F15631   4.000   1.349   8.069 -2.2287 -1.6354 -1.7654
  142OSM   H15G15632   4.172   1.328   8.023  0.6465 -0.9624  1.1968
  142OSM   C16F15633   4.112   1.191   8.173 -0.4723  0.0410  0.5984
  142OSM   H16F15634   4.205   1.132   8.165  0.4722  1.3122  1.7338
  142OSM   H16G15635   4.020   1.132   8.196 -3.3921  2.2999 -3.7450
  142OSM   C17F15636   4.147   1.282   8.286 -0.5425  0.5855  0.2430
  142OSM   H17F15637   4.064   1.355   8.300 -1.9772 -1.0935  0.7072
  142OSM   H17G15638   4.247   1.329   8.274 -0.8949  0.7176 -2.7941
  142OSM   C18F15639   4.165   1.204   8.413 -0.0197  0.7998  0.4667
  142OSM   H18F15640   4.096   1.123   8.444  0.1185  0.4454 -0.1361
  142OSM   H18G15641   4.152   1.280   8.493 -1.4543  0.6986  0.3549
  142OSM   H18H15642   4.270   1.173   8.434 -0.1436  1.1817  1.7070
  143OSM      N15643   6.051   2.658   6.367 -0.0337  0.1917 -0.3543
  143OSM    C1515644   6.124   2.631   6.490  0.5393 -0.0712  0.3065
  143OSM   H15A15645   6.225   2.610   6.461  1.4993  1.7999  2.0258
  143OSM   H15B15646   6.082   2.556   6.555  4.1203 -0.1212  2.8661
  143OSM   H15C15647   6.112   2.714   6.559 -3.2928 -0.7750  0.7443
  143OSM    C1415648   5.914   2.687   6.413  0.3876 -0.5624  0.3970
  143OSM   H14A15649   5.922   2.779   6.468 -0.2460  0.1358 -0.6438
  143OSM   H14B15650   5.878   2.605   6.475 -1.6992 -0.8660 -1.1219
  143OSM   H14C15651   5.849   2.706   6.329 -1.0737  0.9513  1.7779
  143OSM    C1315652   6.093   2.786   6.298  0.1107 -0.2752 -0.0895
  143OSM   H13A15653   6.039   2.783   6.205  1.6970  2.1648 -1.2193
  143OSM   H13B15654   6.198   2.788   6.270  0.6247  1.1063  1.7710
  143OSM   H13C15655   6.051   2.877   6.338 -2.5722 -1.6952  0.5418
  143OSM    C1215656   6.055   2.535   6.280  0.0165  0.2619 -0.3679
  143OSM   H12A15657   6.012   2.452   6.334  1.8309  0.8093  2.1223
  143OSM   H12B15658   6.157   2.517   6.252 -0.9418 -1.4755 -3.1017
  143OSM    C1115659   5.987   2.538   6.138 -0.2829  0.1969  0.6332
  143OSM   H11A15660   6.054   2.581   6.061 -2.2054  0.1145 -1.1473
  143OSM   H11B15661   5.898   2.603   6.145 -2.7980 -2.7881 -1.1022
  143OSM      P15662   5.862   2.364   6.003 -0.0555  0.0609 -0.2269
  143OSM    O1315663   5.900   2.452   5.887 -0.2309 -0.4776  0.1333
  143OSM    O1415664   5.852   2.219   5.985 -0.2043  0.3978  0.2407
  143OSM    O1115665   5.732   2.416   6.071  0.0916  0.2666 -0.4046
  143OSM    O1215666   5.965   2.395   6.114 -0.4156 -0.4605 -0.2560
  143OSM    C1S15667   5.697   2.352   6.196  0.8560 -0.1079 -0.9978
  143OSM    H1S15668   5.782   2.312   6.256 -0.3678  2.6553  3.0228
  143OSM    H1T15669   5.625   2.269   6.181 -3.2734  3.1471 -1.1613
  143OSM     NF15670   5.592   2.366   6.414  0.1211  0.2583  0.2824
  143OSM    HNF15671   5.500   2.330   6.425  0.6951 -1.0897  0.8670
  143OSM    C2S15672   5.622   2.443   6.297  0.3691 -1.4274  0.3330
  143OSM    H2S15673   5.681   2.533   6.326 -0.7197 -0.2470 -0.9913
  143OSM    C3S15674   5.497   2.499   6.226  0.3468  0.5995 -0.2596
  143OSM    H3S15675   5.438   2.417   6.180 -0.7992  1.1555  0.1768
  143OSM     O315676   5.530   2.586   6.115 -0.4135 -0.2802  0.4314
  143OSM    HO315677   5.621   2.560   6.106 -0.7239 -2.9656  3.3491
  143OSM    C4S15678   5.410   2.580   6.319  0.1738  0.1677  1.3181
  143OSM    H4S15679   5.451   2.680   6.336 -2.6327  1.8598 -1.0568
  143OSM    C5S15680   5.286   2.551   6.362 -0.2463  0.2118  0.6541
  143OSM    H5S15681   5.240   2.454   6.340  0.0702  0.4909 -1.4695
  143OSM    C6S15682   5.210   2.651   6.449 -0.7540 -0.0276  0.1844
  143OSM    H6S15683   5.110   2.677   6.410 -1.6458  1.0882  3.0044
  143OSM    H6T15684   5.261   2.745   6.479  0.3368 -0.3149 -0.6792
  143OSM    C7S15685   5.182   2.591   6.585  0.1055  0.5450  0.0432
  143OSM    H7S15686   5.267   2.526   6.616  0.0605  0.4122 -0.1135
  143OSM    H7T15687   5.101   2.516   6.581 -0.5226  1.1262  1.2102
  143OSM    C8S15688   5.150   2.698   6.701 -0.6198  0.9442 -0.1066
  143OSM    H8S15689   5.070   2.767   6.665  1.4416  2.8788 -1.2647
  143OSM    H8T15690   5.242   2.761   6.698  0.0452  0.0525  0.9515
  143OSM    C9S15691   5.123   2.631   6.838  0.2688  0.1187  0.0444
  143OSM    H9S15692   5.221   2.603   6.883 -0.8736 -2.8665  0.8981
  143OSM    H9T15693   5.061   2.540   6.837  0.0535  0.1477 -3.5145
  143OSM   C10S15694   5.050   2.725   6.939 -0.0669  0.5847 -0.1162
  143OSM   H10S15695   4.941   2.731   6.920 -0.0034 -0.6939 -1.0108
  143OSM   H10T15696   5.094   2.826   6.924  1.0122  0.5378  2.2598
  143OSM   C11S15697   5.078   2.676   7.081  0.0722 -0.1408 -0.5074
  143OSM   H11S15698   5.187   2.697   7.085  0.5195 -2.2535 -0.3259
  143OSM   H11T15699   5.077   2.566   7.071  1.6071 -0.3811  1.3609
  143OSM   C12S15700   4.991   2.731   7.194 -0.1799 -0.1578 -0.7422
  143OSM   H12S15701   4.886   2.696   7.180  0.9255 -3.2658 -2.0120
  143OSM   H12T15702   4.991   2.842   7.200  0.1226 -0.1556 -0.7764
  143OSM   C13S15703   5.040   2.691   7.337  0.1741  0.1485  0.3105
  143OSM   H13S15704   5.138   2.739   7.353 -0.5058  1.9634 -0.7027
  143OSM   H13T15705   5.053   2.581   7.348  0.7940 -0.0841 -2.1527
  143OSM   C14S15706   4.937   2.725   7.448  0.4021  0.5411  0.4625
  143OSM   H14S15707   4.857   2.648   7.443  0.6441  0.1121  2.4021
  143OSM   H14T15708   4.889   2.820   7.415 -0.9237  0.1077  1.0459
  143OSM   C15S15709   4.982   2.735   7.594 -0.3104  1.2016  0.3247
  143OSM   H15S15710   5.080   2.788   7.587  0.5766 -0.4688 -0.4720
  143OSM   H15T15711   5.003   2.634   7.634 -0.5075  0.6547 -0.9265
  143OSM   C16S15712   4.877   2.797   7.687  0.1711 -0.1157 -0.3687
  143OSM   H16S15713   4.788   2.730   7.685 -1.4154  1.8426  0.6481
  143OSM   H16T15714   4.840   2.892   7.643 -2.3067 -0.0120  1.7364
  143OSM   C17S15715   4.923   2.812   7.830  0.1889  0.1128  0.3213
  143OSM   H17S15716   4.965   2.912   7.851 -0.1914  0.1229  1.0888
  143OSM   H17T15717   4.997   2.732   7.851  0.9930  0.7086 -0.2042
  143OSM   C18S15718   4.800   2.800   7.927  0.2467  0.0644  0.6936
  143OSM   H18S15719   4.742   2.706   7.919  0.8646 -0.2886  0.3688
  143OSM   H18T15720   4.737   2.892   7.923  1.4396  0.8617 -0.8163
  143OSM   H18U15721   4.832   2.798   8.033 -0.7607  1.0033  1.0362
  143OSM    C1F15722   5.688   2.352   6.508  0.0797  0.7570  0.6836
  143OSM     OF15723   5.786   2.425   6.500 -0.1554  0.1701  0.6549
  143OSM    C2F15724   5.671   2.238   6.603  0.2159  0.2147  0.5958
  143OSM    H2F15725   5.768   2.184   6.612  0.8305  1.3510  0.9571
  143OSM    H2G15726   5.588   2.171   6.572  0.4627  0.0916  0.1944
  143OSM    C3F15727   5.638   2.295   6.744 -0.1175 -0.3280 -0.3518
  143OSM    H3F15728   5.543   2.352   6.738  0.2255  0.5627  1.8377
  143OSM    H3G15729   5.724   2.358   6.776 -0.1896 -0.1785 -0.4506
  143OSM    C4F15730   5.614   2.175   6.834  0.2904 -0.0054  0.0886
  143OSM    H4F15731   5.703   2.109   6.830 -0.9613 -1.7315 -0.1898
  143OSM    H4G15732   5.525   2.121   6.794  0.0693  0.2094  0.2832
  143OSM    C5F15733   5.589   2.224   6.981  0.1373  0.1218 -0.4370
  143OSM    H5F15734   5.669   2.295   7.010 -1.7437  1.6288  1.3717
  143OSM    H5G15735   5.579   2.133   7.043 -0.1917  0.0002 -0.6659
  143OSM    C6F15736   5.452   2.292   6.987 -0.7455 -0.3560 -0.0936
  143OSM    H6F15737   5.374   2.220   6.956 -2.2854  0.4684  1.6507
  143OSM    H6G15738   5.441   2.373   6.912 -0.7538 -0.9127 -0.6992
  143OSM    C7F15739   5.415   2.336   7.132 -0.0487 -0.1513  0.2206
  143OSM    H7F15740   5.457   2.266   7.207  1.7573 -0.3690 -0.9215
  143OSM    H7G15741   5.304   2.343   7.136 -0.0285 -0.1312  0.7569
  143OSM    C8F15742   5.464   2.476   7.169 -0.5447 -0.8356  0.3982
  143OSM    H8F15743   5.464   2.536   7.075  0.2685  2.8795  2.5437
  143OSM    H8G15744   5.574   2.476   7.188 -0.4603  1.2717  0.2006
  143OSM    C9F15745   5.388   2.551   7.274 -0.4448 -0.8002  0.3996
  143OSM    H9F15746   5.285   2.580   7.247  0.1416  0.3685 -0.6945
  143OSM   C10F15747   5.429   2.591   7.395  0.5879 -0.0481 -0.6109
  143OSM   H10F15748   5.358   2.642   7.463  0.0279 -1.9075  0.2667
  143OSM   C11F15749   5.557   2.552   7.457  0.1511  0.3670  0.1232
  143OSM   H11F15750   5.635   2.539   7.379 -0.0024 -0.2888  0.0709
  143OSM   H11G15751   5.546   2.447   7.491  2.4231  0.4174  1.2373
  143OSM   C12F15752   5.599   2.646   7.574 -0.0818  0.6845 -0.1572
  143OSM   H12F15753   5.600   2.746   7.526  3.2367 -0.0190 -1.8300
  143OSM   H12G15754   5.704   2.622   7.601 -0.3250 -1.7046 -1.0516
  143OSM   C13F15755   5.509   2.635   7.703 -0.3828 -0.1122  0.0146
  143OSM   H13F15756   5.400   2.637   7.680 -0.7185 -0.8689  1.3959
  143OSM   H13G15757   5.547   2.719   7.764 -2.6228  0.0573  1.2787
  143OSM   C14F15758   5.531   2.509   7.784  0.3188  0.1599  0.4426
  143OSM   H14F15759   5.640   2.491   7.788  0.4595  0.4591 -1.0898
  143OSM   H14G15760   5.504   2.416   7.729  1.3615 -0.6189  1.2239
  143OSM   C15F15761   5.479   2.515   7.931 -0.4484 -0.3676 -0.2783
  143OSM   H15F15762   5.371   2.543   7.932 -1.1019 -2.5820 -1.9292
  143OSM   H15G15763   5.531   2.591   7.993 -0.2292  0.5230 -1.5228
  143OSM   C16F15764   5.493   2.377   7.999 -0.6321 -0.2073 -0.2262
  143OSM   H16F15765   5.598   2.345   7.982 -0.6568 -0.1172 -0.5512
  143OSM   H16G15766   5.421   2.305   7.953 -0.5861  0.0752 -0.7550
  143OSM   C17F15767   5.466   2.364   8.151  0.1289 -0.7223 -0.2594
  143OSM   H17F15768   5.511   2.451   8.203  0.8777 -1.5533  0.5282
  143OSM   H17G15769   5.521   2.274   8.187  2.1048  0.6064  0.1826
  143OSM   C18F15770   5.317   2.346   8.192 -0.6096 -0.2949  0.2368
  143OSM   H18F15771   5.254   2.423   8.142 -1.0244  0.2331  1.5311
  143OSM   H18G15772   5.305   2.358   8.302 -0.2851  0.1763  0.2208
  143OSM   H18H15773   5.284   2.241   8.173 -1.2670 -0.0016 -0.2815
  144OSM      N15774   5.578   1.460   6.443  0.4420  0.1722 -0.0998
  144OSM    C1515775   5.507   1.585   6.484 -0.8347 -0.1121 -0.2211
  144OSM   H15A15776   5.424   1.613   6.420 -1.9911  1.5183  1.8704
  144OSM   H15B15777   5.568   1.674   6.477 -1.5504  0.4869  0.7951
  144OSM   H15C15778   5.478   1.584   6.588  1.3502 -1.5056  0.4424
  144OSM    C1415779   5.577   1.457   6.293  0.1491 -0.2019  0.0183
  144OSM   H14A15780   5.481   1.484   6.250  0.0226 -0.8665 -0.1385
  144OSM   H14B15781   5.602   1.361   6.251  0.5712  1.1946 -3.2206
  144OSM   H14C15782   5.650   1.529   6.257  0.5841  2.0571  4.7004
  144OSM    C1315783   5.716   1.454   6.498  0.6652 -0.1503 -0.3775
  144OSM   H13A15784   5.777   1.539   6.470  0.3143  0.8954  1.7394
  144OSM   H13B15785   5.760   1.364   6.460 -2.3919 -1.8285 -0.2976
  144OSM   H13C15786   5.717   1.470   6.605 -0.4223  0.0233 -0.3750
  144OSM    C1215787   5.512   1.337   6.495  0.6135  0.8596  0.0500
  144OSM   H12A15788   5.517   1.338   6.603  1.3138  0.7743  0.0216
  144OSM   H12B15789   5.564   1.253   6.453 -0.4622  0.7698 -1.1595
  144OSM    C1115790   5.365   1.318   6.457  0.2343  0.1799  0.3203
  144OSM   H11A15791   5.302   1.409   6.468 -0.9035 -0.7575  2.2817
  144OSM   H11B15792   5.311   1.249   6.525  0.9266 -0.0823  0.6110
  144OSM      P15793   5.418   1.135   6.272  0.1422  0.5204 -0.0272
  144OSM    O1315794   5.347   1.093   6.148  0.4646  0.0035  0.0527
  144OSM    O1415795   5.563   1.153   6.255 -0.3912 -0.1330  0.1187
  144OSM    O1115796   5.390   1.032   6.389 -0.2067  0.1329 -0.0228
  144OSM    O1215797   5.355   1.267   6.328 -0.0082  0.5575  0.5575
  144OSM    C1S15798   5.449   0.897   6.381  0.5016  0.3097  1.0823
  144OSM    H1S15799   5.559   0.904   6.368  0.2509 -1.1299 -3.3595
  144OSM    H1T15800   5.402   0.835   6.302  1.3349 -0.7404  1.3815
  144OSM     NF15801   5.499   0.728   6.558  0.5494 -0.1138  0.2559
  144OSM    HNF15802   5.467   0.635   6.575  0.0919 -0.1967 -0.9377
  144OSM    C2S15803   5.413   0.837   6.526 -0.2299  0.0707 -0.2597
  144OSM    H2S15804   5.424   0.913   6.606  0.5096  0.1734 -0.4560
  144OSM    C3S15805   5.259   0.805   6.520  0.3269  0.0877 -0.3634
  144OSM    H3S15806   5.226   0.760   6.425 -2.1055 -0.0845  0.5098
  144OSM     O315807   5.180   0.923   6.529  0.1011  0.2180 -0.2854
  144OSM    HO315808   5.242   0.991   6.503  1.1014  0.2931  2.1110
  144OSM    C4S15809   5.221   0.709   6.632  0.0715  0.7452  0.2370
  144OSM    H4S15810   5.205   0.769   6.723 -3.4505  1.6582 -0.8194
  144OSM    C5S15811   5.181   0.579   6.617 -0.1379 -0.5857 -0.1082
  144OSM    H5S15812   5.190   0.524   6.523 -1.5721 -3.1868  1.1761
  144OSM    C6S15813   5.142   0.486   6.725 -0.5081  0.4375  0.1501
  144OSM    H6S15814   5.205   0.396   6.705 -0.1735  0.8952 -0.9341
  144OSM    H6T15815   5.039   0.464   6.692  0.2186 -1.6185 -0.9087
  144OSM    C7S15816   5.160   0.529   6.869 -0.4402 -0.3418  0.0106
  144OSM    H7S15817   5.087   0.611   6.889  3.5051  3.2799  1.0021
  144OSM    H7T15818   5.260   0.573   6.888  0.3566 -1.1483 -1.9713
  144OSM    C8S15819   5.120   0.418   6.969  0.0915  0.8559  0.1568
  144OSM    H8S15820   5.178   0.330   6.932 -0.4867  1.3275 -2.0034
  144OSM    H8T15821   5.012   0.394   6.963  0.1907  0.5149 -0.3626
  144OSM    C9S15822   5.148   0.447   7.115  0.5550 -0.1881  0.1799
  144OSM    H9S15823   5.065   0.501   7.165 -0.3248 -2.3039  1.1694
  144OSM    H9T15824   5.239   0.510   7.121  1.2661 -1.0575 -1.2018
  144OSM   C10S15825   5.155   0.319   7.200 -0.2818  0.3063  0.0112
  144OSM   H10S15826   5.243   0.269   7.156  0.3316  0.1036  1.4256
  144OSM   H10T15827   5.063   0.264   7.173 -0.4991  1.9354 -3.0194
  144OSM   C11S15828   5.153   0.320   7.355  0.1515  0.0377  0.0409
  144OSM   H11S15829   5.144   0.213   7.386 -0.3200  0.0107 -0.1711
  144OSM   H11T15830   5.068   0.381   7.392  0.8694  0.2312  1.4256
  144OSM   C12S15831   5.291   0.371   7.412 -0.1425  0.2672 -0.0236
  144OSM   H12S15832   5.312   0.468   7.362 -0.2475  0.7966  0.9283
  144OSM   H12T15833   5.368   0.298   7.380  0.7548  1.9336 -1.9212
  144OSM   C13S15834   5.294   0.390   7.567 -0.0018  0.8906  0.6576
  144OSM   H13S15835   5.255   0.291   7.598  2.1747 -0.9920 -2.0922
  144OSM   H13T15836   5.214   0.463   7.593  0.4173  1.9138 -0.7666
  144OSM   C14S15837   5.425   0.432   7.630  0.2079 -0.3894  0.5430
  144OSM   H14S15838   5.453   0.529   7.584 -0.5412 -0.0685  0.7405
  144OSM   H14T15839   5.494   0.358   7.586 -1.2211 -2.9825  2.4056
  144OSM   C15S15840   5.424   0.450   7.777 -0.6554 -0.5932  0.3971
  144OSM   H15S15841   5.366   0.540   7.807 -0.4327 -0.7124  1.1986
  144OSM   H15T15842   5.527   0.465   7.816  0.5090 -0.1173 -2.6158
  144OSM   C16S15843   5.368   0.327   7.855  0.4422 -0.2043 -1.1626
  144OSM   H16S15844   5.413   0.233   7.814  0.4927 -1.5132  1.6561
  144OSM   H16T15845   5.260   0.317   7.830  0.6402  0.5367 -2.4203
  144OSM   C17S15846   5.395   0.341   8.011 -0.2740 -0.3624  0.6714
  144OSM   H17S15847   5.324   0.418   8.047 -0.0974  0.6812 -1.1254
  144OSM   H17T15848   5.496   0.384   8.030  0.2247 -2.2790  2.8655
  144OSM   C18S15849   5.377   0.206   8.080 -0.6321  0.4369  1.0263
  144OSM   H18S15850   5.285   0.165   8.034  0.7406 -0.8925 -0.6623
  144OSM   H18T15851   5.355   0.229   8.187  0.9227  1.2438  1.2036
  144OSM   H18U15852   5.463   0.136   8.077 -0.4486  0.5533  2.6170
  144OSM    C1F15853   5.631   0.747   6.574 -0.9678  0.1508 -0.5922
  144OSM     OF15854   5.671   0.862   6.565 -0.4080  0.3570  0.2882
  144OSM    C2F15855   5.728   0.634   6.571  0.1112 -0.1065 -0.3229
  144OSM    H2F15856   5.813   0.667   6.508  0.7655  1.3918  1.2858
  144OSM    H2G15857   5.678   0.539   6.541 -0.5536 -0.0671  0.6323
  144OSM    C3F15858   5.779   0.607   6.716  0.0805  0.4291  0.5366
  144OSM    H3F15859   5.826   0.701   6.754  0.9194 -0.0408  0.7014
  144OSM    H3G15860   5.854   0.525   6.709  0.2485  0.6223  0.0493
  144OSM    C4F15861   5.676   0.578   6.823  0.7838 -0.0882  0.4588
  144OSM    H4F15862   5.620   0.487   6.794 -0.0982  0.4350  0.4985
  144OSM    H4G15863   5.607   0.663   6.841 -0.1018 -0.6935  0.0043
  144OSM    C5F15864   5.747   0.530   6.947  0.7048 -0.1098 -0.5206
  144OSM    H5F15865   5.819   0.605   6.987  1.6586 -1.0764 -0.3847
  144OSM    H5G15866   5.807   0.441   6.922  0.9839 -0.7718  2.1344
  144OSM    C6F15867   5.644   0.499   7.056  0.0100 -0.2451 -0.1485
  144OSM    H6F15868   5.557   0.434   7.033  0.1926 -0.4210 -0.3476
  144OSM    H6G15869   5.602   0.596   7.091 -0.4100 -1.0775  1.7409
  144OSM    C7F15870   5.718   0.439   7.176 -0.7396  0.2089 -0.2484
  144OSM    H7F15871   5.781   0.354   7.142  0.1061  0.8993 -0.4285
  144OSM    H7G15872   5.642   0.382   7.234 -0.0593 -2.3700 -1.7193
  144OSM    C8F15873   5.799   0.529   7.276 -0.2773 -0.5837 -0.5959
  144OSM    H8F15874   5.856   0.597   7.209 -0.8650 -0.2532 -0.7657
  144OSM    H8G15875   5.876   0.469   7.328  0.5124  1.0217  0.1524
  144OSM    C9F15876   5.706   0.614   7.364 -0.5214 -0.2120 -0.2740
  144OSM    H9F15877   5.622   0.650   7.303 -1.8454 -3.1317 -0.3314
  144OSM   C10F15878   5.715   0.636   7.501 -0.1216  0.3824  0.4586
  144OSM   H10F15879   5.631   0.678   7.558 -1.5896  0.8781 -1.9357
  144OSM   C11F15880   5.831   0.573   7.578  0.2209  0.8000 -0.9317
  144OSM   H11F15881   5.926   0.589   7.523  0.5055 -0.9321 -0.9745
  144OSM   H11G15882   5.822   0.463   7.570  1.3661  0.6926 -0.8884
  144OSM   C12F15883   5.846   0.606   7.733  0.4659 -1.4520  0.3740
  144OSM   H12F15884   5.756   0.560   7.781 -0.6526  0.6919  0.4325
  144OSM   H12G15885   5.831   0.715   7.749  0.3004 -1.4436  0.1737
  144OSM   C13F15886   5.976   0.551   7.796  0.9712 -0.5642  0.2044
  144OSM   H13F15887   6.059   0.590   7.733  1.5454 -2.0330  0.0282
  144OSM   H13G15888   5.975   0.441   7.784  2.5650 -0.6131  0.3036
  144OSM   C14F15889   6.014   0.592   7.940  0.2835 -0.6839  0.0247
  144OSM   H14F15890   5.925   0.554   7.995  0.5069 -0.2023  0.7244
  144OSM   H14G15891   6.010   0.702   7.959  2.5796 -0.6271  0.3821
  144OSM   C15F15892   6.148   0.532   7.986  0.4658  0.2193 -0.4992
  144OSM   H15F15893   6.230   0.583   7.932  1.3522  1.1805  1.6136
  144OSM   H15G15894   6.155   0.425   7.959  1.3753 -0.3943  1.9035
  144OSM   C16F15895   6.160   0.564   8.137  0.1376  0.0795 -0.0183
  144OSM   H16F15896   6.063   0.538   8.185  1.1593  2.2273  3.5125
  144OSM   H16G15897   6.176   0.670   8.164  1.6998 -0.2390  0.3789
  144OSM   C17F15898   6.284   0.502   8.212  0.0531 -0.7532 -0.0916
  144OSM   H17F15899   6.369   0.520   8.144 -0.4004 -3.2003 -1.4417
  144OSM   H17G15900   6.261   0.395   8.233 -0.1608 -0.5558  0.7117
  144OSM   C18F15901   6.296   0.571   8.347 -0.2457 -0.5526 -0.5968
  144OSM   H18F15902   6.316   0.680   8.343 -1.8056 -0.2498 -0.5295
  144OSM   H18G15903   6.366   0.513   8.412 -0.2688  0.8275  0.7357
  144OSM   H18H15904   6.197   0.564   8.397 -0.2442  0.3184 -0.4623
  145SAPE     N15905   3.250   6.000  10.745  0.4900  0.4935 -0.0999
  145SAPE   HN115906   3.198   6.054  10.673  0.2293  2.0737  1.2092
  145SAPE   HN215907   3.181   5.964  10.814  1.5826 -3.4891 -0.8403
  145SAPE   HN315908   3.314   6.071  10.787 -0.2475 -0.8479  3.7086
  145SAPE   C1215909   3.318   5.887  10.679  0.0216 -0.0244  0.4135
  145SAPE  H12A15910   3.243   5.811  10.650  0.7392  0.0579 -1.8778
  145SAPE  H12B15911   3.387   5.850  10.757  0.9792 -0.8447 -0.7768
  145SAPE   C1115912   3.417   5.928  10.572  0.4960 -0.3430  0.0395
  145SAPE  H11A15913   3.373   5.975  10.482  0.2374 -3.1343 -1.4056
  145SAPE  H11B15914   3.454   5.827  10.542  0.9189 -0.7163  1.6872
  145SAPE     P15915   3.665   5.964  10.591  0.1581 -0.2640 -0.1239
  145SAPE   O1315916   3.755   6.063  10.654 -0.2933 -0.1230 -0.3910
  145SAPE   O1415917   3.681   5.824  10.627 -0.2210  0.7920 -0.5875
  145SAPE   O1215918   3.522   6.011  10.639  0.6709  0.2778  0.6783
  145SAPE   O1115919   3.665   5.986  10.435  0.2095  0.2461  0.1340
  145SAPE    C115920   3.676   6.117  10.371  0.8327 -0.2323  0.0780
  145SAPE    HA15921   3.656   6.196  10.446 -1.5238  0.4327 -1.1722
  145SAPE    HB15922   3.777   6.126  10.326 -0.3029  0.7420 -2.4352
  145SAPE    C215923   3.584   6.121  10.248  0.8027  0.0846  0.0358
  145SAPE    HS15924   3.477   6.111  10.279 -0.0682 -1.4755 -3.0657
  145SAPE   O2115925   3.625   6.032  10.149 -0.1619  0.3382 -0.0513
  145SAPE   C2115926   3.531   5.995  10.069 -0.2062 -0.4428 -0.3610
  145SAPE   O2215927   3.414   6.010  10.084  0.2782 -1.1755  0.1785
  145SAPE   C2215928   3.596   5.920   9.948  0.8702  0.1405 -0.0186
  145SAPE   H2R15929   3.697   5.964   9.934 -0.4896  2.6178 -3.4174
  145SAPE   H2S15930   3.611   5.812   9.971  1.0129 -0.6350 -3.3117
  145SAPE    C315931   3.591   6.268  10.204 -0.7005 -0.2266  0.7093
  145SAPE    HX15932   3.695   6.276  10.169 -1.2784  0.0701 -1.0119
  145SAPE    HY15933   3.572   6.341  10.286  1.8807  0.0761  1.1055
  145SAPE   O3115934   3.511   6.299  10.085  0.0179 -0.6918 -0.1145
  145SAPE   C3115935   3.412   6.382  10.089  0.3319  0.5441 -0.1505
  145SAPE   O3215936   3.381   6.450  10.188  0.0074  0.3559 -0.0632
  145SAPE   C3215937   3.345   6.387   9.954  0.4539  0.0073 -0.4345
  145SAPE   H2X15938   3.423   6.389   9.876  1.9593 -0.7014  0.9997
  145SAPE   H2Y15939   3.280   6.477   9.943  1.4752  1.1483  2.0416
  145SAPE   C2315940   3.514   5.928   9.816 -0.7885  0.0340  0.3356
  145SAPE   H3R15941   3.497   6.035   9.790 -0.4873  0.6832  2.5865
  145SAPE   H3S15942   3.418   5.874   9.823  0.4828 -2.3710  0.1006
  145SAPE   C2415943   3.586   5.865   9.699  0.0293  0.2112  0.5055
  145SAPE   H4R15944   3.608   5.763   9.737  1.3044  0.5967  0.8544
  145SAPE   H4S15945   3.677   5.929   9.694  0.8717 -1.0003 -0.1836
  145SAPE   C2515946   3.497   5.873   9.580 -0.7529  0.2655 -0.2048
  145SAPE   H5R15947   3.402   5.819   9.598 -0.8780  0.4566 -0.2919
  145SAPE   C2615948   3.514   5.943   9.463  0.2621 -1.0257  0.0249
  145SAPE   H6R15949   3.439   5.940   9.382  0.2566  0.9799 -0.1053
  145SAPE   C2715950   3.634   6.032   9.422 -0.6189  0.7427 -0.3606
  145SAPE   H7R15951   3.675   5.996   9.325 -0.0136  0.1695  0.0950
  145SAPE   H7S15952   3.715   6.007   9.493 -1.1682 -1.2219 -0.3507
  145SAPE   C2815953   3.603   6.173   9.424  0.6616 -0.4704  0.5254
  145SAPE   H8R15954   3.646   6.213   9.516 -1.3435 -0.9950  1.7519
  145SAPE   C2915955   3.536   6.244   9.335 -0.6022 -0.6323 -0.2679
  145SAPE   H9R15956   3.518   6.350   9.357  1.2240 -0.0886 -1.1114
  145SAPE  C21015957   3.487   6.197   9.200  0.1783 -0.6308 -0.4045
  145SAPE  H10R15958   3.377   6.216   9.197  0.1359  0.0033  2.4209
  145SAPE  H10S15959   3.484   6.086   9.193  0.4250 -0.7119  0.5715
  145SAPE  C21115960   3.553   6.273   9.083  0.4201 -0.3182 -0.0433
  145SAPE  H11R15961   3.610   6.364   9.106 -0.4381 -0.2631  2.1397
  145SAPE  C21215962   3.560   6.215   8.959 -0.0515 -0.3632 -0.4051
  145SAPE  H12R15963   3.602   6.277   8.878 -0.1619 -0.8291 -0.8277
  145SAPE  C21315964   3.499   6.087   8.917 -0.1219 -0.0386  0.3459
  145SAPE  H13R15965   3.393   6.101   8.885 -0.0036 -0.0389 -0.0425
  145SAPE  H13S15966   3.500   6.023   9.007  0.2804  0.4409  0.6900
  145SAPE  C21415967   3.580   6.038   8.800  0.2001 -0.8148 -0.0147
  145SAPE  H14R15968   3.657   5.964   8.825 -0.9392 -1.7769  0.7605
  145SAPE  C21515969   3.567   6.065   8.664  0.3428 -0.5485  0.1263
  145SAPE  H15R15970   3.640   6.021   8.594 -0.9684 -0.8943 -1.0854
  145SAPE  C21615971   3.465   6.159   8.601 -0.3707 -0.6209  0.2623
  145SAPE  H16R15972   3.510   6.212   8.514  0.1909 -1.4653  0.0324
  145SAPE  H16S15973   3.440   6.249   8.662 -0.4053 -0.9375  0.7160
  145SAPE  C21715974   3.337   6.088   8.564 -0.0564  0.7698 -0.0583
  145SAPE  H17R15975   3.264   6.160   8.522 -2.3911  0.1766  2.6562
  145SAPE  H17S15976   3.293   6.049   8.659  1.3181 -0.0438  0.2796
  145SAPE  C21815977   3.368   5.971   8.474  1.0166  0.2600  0.0734
  145SAPE  H18R15978   3.428   5.893   8.527 -1.5162 -0.7057  1.6898
  145SAPE  H18S15979   3.426   6.007   8.386  0.6425  1.4980  0.3158
  145SAPE  C21915980   3.249   5.898   8.425  0.0565  0.1614  0.6017
  145SAPE  H19R15981   3.190   5.956   8.350 -0.3714 -1.5819 -0.4481
  145SAPE  H19S15982   3.186   5.876   8.514  0.0367 -2.1764  0.0663
  145SAPE  C22015983   3.278   5.762   8.368  1.0606 -0.3891  0.6769
  145SAPE  H20R15984   3.178   5.713   8.359  1.0258 -0.0093 -1.7087
  145SAPE  H20S15985   3.329   5.699   8.444 -1.2974 -0.8513  1.9711
  145SAPE  H20T15986   3.327   5.752   8.268  1.2505 -0.0957  0.7403
  145SAPE   C3315987   3.253   6.263   9.937 -0.7451 -0.1804  0.7597
  145SAPE   H3X15988   3.175   6.267  10.015 -0.7769  0.6197  0.6921
  145SAPE   H3Y15989   3.309   6.168   9.947  0.4515  0.0339 -2.6275
  145SAPE   C3415990   3.168   6.268   9.811  0.1736  0.3441  0.1546
  145SAPE   H4X15991   3.141   6.374   9.791 -2.1171 -0.0809  0.7397
  145SAPE   H4Y15992   3.071   6.220   9.834  0.1680  0.1835 -0.2078
  145SAPE   C3515993   3.225   6.184   9.696  0.7325  0.2781 -0.3058
  145SAPE   H5X15994   3.208   6.077   9.720 -0.3868  0.6064  0.4506
  145SAPE   H5Y15995   3.334   6.196   9.681  0.8247 -0.3216 -0.1510
  145SAPE   C3615996   3.156   6.221   9.565 -0.3290  0.0080 -0.8119
  145SAPE   H6X15997   3.204   6.319   9.543 -0.3545  0.1072 -0.4269
  145SAPE   H6Y15998   3.048   6.240   9.583 -0.2080  0.9144 -0.9899
  145SAPE   C3715999   3.164   6.131   9.438  0.3306  0.4511  0.1198
  145SAPE   H7X16000   3.105   6.037   9.453  1.5948 -0.2985  0.5886
  145SAPE   H7Y16001   3.271   6.100   9.434  0.2332 -0.3661  2.2856
  145SAPE   C3816002   3.112   6.206   9.317  0.0837  0.4814  0.5866
  145SAPE   H8X16003   3.170   6.299   9.298 -0.8747  1.0352  0.3108
  145SAPE   H8Y16004   3.006   6.236   9.331 -0.0046  0.4868 -0.0891
  145SAPE   C3916005   3.104   6.122   9.192  0.5109  0.5056  0.0863
  145SAPE   H9X16006   3.039   6.035   9.212 -1.6560  1.6723 -1.5251
  145SAPE   H9Y16007   3.210   6.088   9.187  0.4488  0.5071 -1.7262
  145SAPE  C31016008   3.054   6.194   9.071  0.5144 -0.2642  0.1764
  145SAPE  H10X16009   3.094   6.297   9.062 -1.1927  0.4474  0.2403
  145SAPE  H10Y16010   2.946   6.211   9.092  0.7381 -1.0700  2.2172
  145SAPE  C31116011   3.080   6.119   8.934  0.5606  0.1181 -0.2161
  145SAPE  H11X16012   3.041   6.015   8.943 -0.7658  0.4356 -1.8902
  145SAPE  H11Y16013   3.191   6.109   8.932  0.6084  0.7053 -1.7291
  145SAPE  C31216014   3.026   6.182   8.805  0.8182  0.2290  0.4415
  145SAPE  H12X16015   2.919   6.193   8.831  0.4487  2.1845 -1.6433
  145SAPE  H12Y16016   3.038   6.113   8.719  1.5006 -2.0112  2.2268
  145SAPE  C31316017   3.091   6.318   8.778  0.1890 -0.2070  0.6412
  145SAPE  H13X16018   3.202   6.319   8.773  0.1309  1.1512 -1.6161
  145SAPE  H13Y16019   3.060   6.386   8.860 -2.5935  0.5182 -0.8799
  145SAPE  C31416020   3.033   6.383   8.654  0.0882  0.3271  0.2187
  145SAPE  H14X16021   2.926   6.356   8.654  0.3219 -1.2212 -3.6013
  145SAPE  H14Y16022   3.076   6.336   8.563  1.2625  1.7728 -0.0350
  145SAPE  C31516023   3.058   6.531   8.643  0.2279 -0.0421  0.0858
  145SAPE  H15X16024   3.165   6.556   8.656  0.0125  1.5498 -0.9316
  145SAPE  H15Y16025   3.024   6.580   8.737 -0.0539  3.5955 -1.7539
  145SAPE  C31616026   2.993   6.597   8.523 -0.7455 -0.2797  0.7731
  145SAPE  H16X16027   2.882   6.593   8.528 -0.7161 -0.5517  1.3286
  145SAPE  H16Y16028   3.029   6.538   8.436  0.3158  0.0446  0.9782
  145SAPE  C31716029   3.041   6.748   8.515 -0.1057  0.1534 -0.1685
  145SAPE  H17X16030   3.150   6.758   8.533  0.0066  0.4204 -0.9292
  145SAPE  H17Y16031   2.983   6.804   8.591  1.4068  2.3044 -0.5043
  145SAPE  C31816032   3.018   6.812   8.378  0.6789  0.1506 -0.1740
  145SAPE  H18X16033   3.030   6.921   8.364  0.7990  0.2660  0.7712
  145SAPE  H18Y16034   2.912   6.784   8.360  0.6577 -0.1511  0.4120
  145SAPE  H18Z16035   3.087   6.770   8.301  2.3756  0.0665  1.3450
  146SAPE     N16036   2.083   5.255  11.326 -0.0305 -0.3340  0.0597
  146SAPE   HN116037   2.022   5.203  11.392  0.0354  0.6997  0.9563
  146SAPE   HN216038   2.130   5.187  11.263  0.0968  2.3871 -3.0433
  146SAPE   HN316039   2.157   5.310  11.374  1.6169 -1.3421 -1.2134
  146SAPE   C1216040   1.982   5.328  11.233 -0.0175  0.4736 -0.1728
  146SAPE  H12A16041   1.950   5.421  11.285 -0.4599  0.4507 -0.3997
  146SAPE  H12B16042   1.894   5.260  11.226 -1.4431  2.0898  1.0966
  146SAPE   C1116043   2.048   5.352  11.096  0.4332  1.0479  0.2693
  146SAPE  H11A16044   2.116   5.439  11.099 -0.4750  1.7855  0.0019
  146SAPE  H11B16045   1.975   5.380  11.017 -1.1010 -0.9698  0.8668
  146SAPE     P16046   2.174   5.207  10.922 -0.5350 -0.0534 -0.1749
  146SAPE   O1316047   2.300   5.121  10.927 -0.0693 -0.1497 -0.1340
  146SAPE   O1416048   2.059   5.137  10.860 -0.3601 -0.2202 -0.4403
  146SAPE   O1216049   2.133   5.244  11.068 -0.9045  0.0214  0.5012
  146SAPE   O1116050   2.213   5.341  10.844  0.5916 -0.2526 -0.1138
  146SAPE    C116051   2.128   5.391  10.740  0.1911 -0.1035 -0.1721
  146SAPE    HA16052   2.022   5.386  10.775  0.2834  2.6046  0.6706
  146SAPE    HB16053   2.151   5.499  10.734  1.1803 -0.0212  3.1920
  146SAPE    C216054   2.161   5.320  10.607 -0.0397 -0.0128 -0.1530
  146SAPE    HS16055   2.142   5.212  10.624 -0.8656  0.2002  0.3141
  146SAPE   O2116056   2.298   5.348  10.578  0.3203 -0.1775 -0.2235
  146SAPE   C2116057   2.360   5.259  10.502  0.6639  0.2463  0.4398
  146SAPE   O2216058   2.312   5.157  10.465  0.1807  0.2111  0.0379
  146SAPE   C2216059   2.506   5.310  10.481  0.2762  0.2601  0.7248
  146SAPE   H2R16060   2.503   5.420  10.492  1.3734  0.4829 -0.9557
  146SAPE   H2S16061   2.550   5.271  10.575 -1.0231  0.7955  1.5933
  146SAPE    C316062   2.065   5.366  10.497 -0.1381 -0.2600  0.6544
  146SAPE    HX16063   2.085   5.475  10.484  1.4192 -0.4061  1.5695
  146SAPE    HY16064   1.959   5.353  10.528  0.3095 -4.2499  0.9533
  146SAPE   O3116065   2.088   5.291  10.375 -0.3892  0.4392 -0.1470
  146SAPE   C3116066   2.033   5.169  10.375  0.2748  0.9946 -0.2696
  146SAPE   O3216067   1.970   5.122  10.469 -0.0082  0.2072 -0.2137
  146SAPE   C3216068   2.044   5.108  10.242  0.4066  1.1516 -0.3732
  146SAPE   H2X16069   2.151   5.112  10.211  0.6050 -3.6345 -1.0680
  146SAPE   H2Y16070   1.983   5.172  10.175 -0.2479  0.1546 -0.7419
  146SAPE   C2316071   2.571   5.256  10.354 -0.0456 -0.0624 -0.6117
  146SAPE   H3R16072   2.576   5.146  10.367 -2.6434  0.0157  2.1160
  146SAPE   H3S16073   2.675   5.295  10.356 -0.7196  1.7987  0.0419
  146SAPE   C2416074   2.525   5.313  10.219  0.4160  0.4168 -0.4415
  146SAPE   H4R16075   2.416   5.305  10.198  0.4025 -0.2232 -0.1490
  146SAPE   H4S16076   2.573   5.252  10.139  0.5488  2.3943 -1.9404
  146SAPE   C2516077   2.565   5.460  10.211  0.0586 -0.0190  0.4876
  146SAPE   H5R16078   2.517   5.534  10.277 -0.0151  0.4985 -0.1332
  146SAPE   C2616079   2.650   5.512  10.127  0.7617  0.2354 -0.3279
  146SAPE   H6R16080   2.678   5.618  10.141 -0.6290  0.6190 -0.2573
  146SAPE   C2716081   2.729   5.443  10.018  0.0538 -0.1118  0.1631
  146SAPE   H7R16082   2.664   5.365   9.973  0.4307  1.3721 -3.2637
  146SAPE   H7S16083   2.816   5.392  10.064  1.0860 -0.1486 -1.7156
  146SAPE   C2816084   2.779   5.532   9.902 -0.3096  0.6729 -1.0707
  146SAPE   H8R16085   2.858   5.602   9.936  1.4887 -1.6048 -0.2903
  146SAPE   C2916086   2.749   5.530   9.776  0.2983 -0.8901 -0.0235
  146SAPE   H9R16087   2.819   5.579   9.707 -1.1623  0.2243 -0.7869
  146SAPE  C21016088   2.645   5.453   9.703  0.2259 -0.0604  0.6694
  146SAPE  H10R16089   2.584   5.526   9.645 -0.1319 -1.4202 -0.7574
  146SAPE  H10S16090   2.570   5.408   9.771  0.8211  0.7228  1.8689
  146SAPE  C21116091   2.715   5.347   9.626 -0.8372  0.8583 -0.7671
  146SAPE  H11R16092   2.728   5.255   9.684  0.8002  0.8970 -1.0291
  146SAPE  C21216093   2.755   5.343   9.492 -0.7122 -0.2955 -0.0227
  146SAPE  H12R16094   2.807   5.253   9.455 -2.5127 -1.0479 -0.8336
  146SAPE  C21316095   2.750   5.451   9.384  0.3223  0.3421 -0.6028
  146SAPE  H13R16096   2.852   5.475   9.348  0.8512 -0.5799  0.2405
  146SAPE  H13S16097   2.715   5.551   9.417  0.4101  0.2046 -0.0872
  146SAPE  C21416098   2.653   5.402   9.273 -0.0824 -0.4790  0.2080
  146SAPE  H14R16099   2.550   5.433   9.296  0.9239  0.4325  4.3627
  146SAPE  C21516100   2.668   5.340   9.151 -1.1275  0.1178 -0.4623
  146SAPE  H15R16101   2.579   5.309   9.095 -1.2436  0.1901 -0.3187
  146SAPE  C21616102   2.798   5.284   9.105 -0.3801  0.1442  0.1829
  146SAPE  H16R16103   2.783   5.178   9.075  0.7124 -0.1628  0.6932
  146SAPE  H16S16104   2.881   5.288   9.178  0.4292 -0.6320 -0.6759
  146SAPE  C21716105   2.858   5.371   8.995  0.2969 -0.7413  0.3606
  146SAPE  H17R16106   2.962   5.338   8.972 -0.6244 -3.1505 -0.7828
  146SAPE  H17S16107   2.861   5.471   9.041  0.3907 -0.4813 -0.1971
  146SAPE  C21816108   2.777   5.378   8.862 -0.1221  0.3027 -0.0656
  146SAPE  H18R16109   2.813   5.461   8.798 -2.0542  0.7690 -0.6089
  146SAPE  H18S16110   2.674   5.412   8.884 -0.2645  0.7881 -1.3685
  146SAPE  C21916111   2.777   5.233   8.799  0.2127  0.2788  0.2422
  146SAPE  H19R16112   2.753   5.156   8.876  2.6651 -1.0156 -0.1821
  146SAPE  H19S16113   2.884   5.214   8.775  0.3973 -0.4213  1.5573
  146SAPE  C22016114   2.694   5.230   8.665 -0.0555  0.0049 -0.3927
  146SAPE  H20R16115   2.713   5.136   8.608 -0.9265 -1.9184  2.2884
  146SAPE  H20S16116   2.731   5.317   8.608  0.0539  0.4064  0.2920
  146SAPE  H20T16117   2.589   5.248   8.696  0.3048  1.6582 -0.0610
  146SAPE   C3316118   1.994   4.956  10.251  0.0306 -0.1358 -0.2934
  146SAPE   H3X16119   1.884   4.942  10.255 -0.0622  0.6926  0.2938
  146SAPE   H3Y16120   2.035   4.924  10.350 -0.6187  0.0116  0.0254
  146SAPE   C3416121   2.051   4.861  10.145  0.5251  0.1108  0.0360
  146SAPE   H4X16122   2.002   4.761  10.150  1.9455 -0.6045  0.1801
  146SAPE   H4Y16123   2.159   4.842  10.162 -0.0958 -3.6997  0.5854
  146SAPE   C3516124   2.030   4.910  10.000  0.2346 -0.0926 -0.0476
  146SAPE   H5X16125   2.086   5.004   9.984 -2.2921  1.2225 -1.8225
  146SAPE   H5Y16126   1.923   4.924   9.972  0.4579  0.4751 -0.6348
  146SAPE   C3616127   2.086   4.801   9.906 -0.4483  0.4441 -0.3017
  146SAPE   H6X16128   2.052   4.697   9.923  0.2230  0.4218  1.0409
  146SAPE   H6Y16129   2.197   4.794   9.915 -0.5599  0.3092  1.4021
  146SAPE   C3716130   2.039   4.839   9.764  0.6853  0.9754  1.0718
  146SAPE   H7X16131   2.054   4.946   9.743 -1.0969  0.9557 -0.4715
  146SAPE   H7Y16132   1.931   4.813   9.772  0.9898 -0.2599  1.5451
  146SAPE   C3816133   2.109   4.757   9.659 -0.3292  0.5805 -0.3076
  146SAPE   H8X16134   2.099   4.650   9.687  0.7457  0.7313  0.7224
  146SAPE   H8Y16135   2.217   4.783   9.664  0.1510 -1.4956  1.7168
  146SAPE   C3916136   2.052   4.767   9.520  0.2823  0.2952  0.5337
  146SAPE   H9X16137   2.077   4.871   9.489  2.8715 -0.1457  0.9132
  146SAPE   H9Y16138   1.945   4.739   9.528  0.4891 -0.6490  0.0953
  146SAPE  C31016139   2.105   4.655   9.419  0.4969  0.4871 -0.2559
  146SAPE  H10X16140   2.071   4.554   9.451  2.6719 -0.3519 -0.3734
  146SAPE  H10Y16141   2.217   4.653   9.421  0.5802 -3.5878  1.8558
  146SAPE  C31116142   2.056   4.674   9.272 -0.2258  0.2042 -0.2871
  146SAPE  H11X16143   2.063   4.779   9.239  2.7717  0.1242 -0.2035
  146SAPE  H11Y16144   1.949   4.643   9.270 -0.7375  1.8370  0.2284
  146SAPE  C31216145   2.124   4.576   9.162  0.2397 -0.7594 -0.3842
  146SAPE  H12X16146   2.102   4.476   9.207  0.0728  0.6373  2.9286
  146SAPE  H12Y16147   2.233   4.596   9.156  0.2328 -0.2977  0.7991
  146SAPE  C31316148   2.072   4.600   9.023  0.1717 -0.3418  0.0653
  146SAPE  H13X16149   2.088   4.705   8.988 -0.7527 -0.8534 -2.0478
  146SAPE  H13Y16150   1.962   4.582   9.019 -0.2789  2.0288 -0.0721
  146SAPE  C31416151   2.138   4.518   8.921  0.4564 -0.2224  0.3173
  146SAPE  H14X16152   2.112   4.417   8.958 -1.0822 -0.7142 -1.9017
  146SAPE  H14Y16153   2.249   4.523   8.924  0.7255 -0.9566 -3.4192
  146SAPE  C31516154   2.076   4.533   8.787 -0.7867 -0.3977 -0.2606
  146SAPE  H15X16155   2.102   4.637   8.757  0.1625  0.2570  2.4733
  146SAPE  H15Y16156   1.967   4.515   8.788 -0.7845 -0.6095 -2.0479
  146SAPE  C31616157   2.136   4.434   8.687  0.4122  0.0690 -0.2019
  146SAPE  H16X16158   2.110   4.329   8.710 -0.2440 -0.4665 -3.0142
  146SAPE  H16Y16159   2.246   4.435   8.698  0.4331 -1.0876 -0.2364
  146SAPE  C31716160   2.097   4.476   8.543 -0.0566  0.2915  0.6144
  146SAPE  H17X16161   2.136   4.578   8.521  0.4460 -0.3042 -1.5143
  146SAPE  H17Y16162   1.986   4.485   8.538  0.0565  1.1686 -2.3078
  146SAPE  C31816163   2.145   4.380   8.431 -0.0461 -0.1503  0.0633
  146SAPE  H18X16164   2.136   4.432   8.333 -1.3369 -0.5341 -0.0403
  146SAPE  H18Y16165   2.078   4.292   8.431 -1.3433  0.7626 -2.0613
  146SAPE  H18Z16166   2.250   4.346   8.445  1.0176  2.4327 -1.0056
  147SAPE     N16167   0.943   0.658  10.787  0.1394  0.0354  0.6619
  147SAPE   HN116168   0.925   0.610  10.878 -1.2911  3.0475  2.0883
  147SAPE   HN216169   0.875   0.625  10.716  1.7928 -0.9660 -0.5557
  147SAPE   HN316170   1.043   0.638  10.765  0.0671 -1.2840  1.4072
  147SAPE   C1216171   0.946   0.806  10.796 -0.1646 -0.3726 -0.0050
  147SAPE  H12A16172   0.855   0.833  10.854 -0.5786  1.1962 -1.3127
  147SAPE  H12B16173   0.945   0.845  10.692  2.3148  0.9544  0.3861
  147SAPE   C1116174   1.081   0.856  10.859  0.0932  0.7186  0.0447
  147SAPE  H11A16175   1.084   0.820  10.964 -4.2517 -0.7515 -0.1414
  147SAPE  H11B16176   1.079   0.967  10.863 -0.3611  0.6909  3.5893
  147SAPE     P16177   1.316   0.888  10.741  0.2989 -0.3925 -0.1108
  147SAPE   O1316178   1.354   0.989  10.846 -0.0531 -0.2431 -0.2759
  147SAPE   O1416179   1.413   0.795  10.684  0.1331  0.1412 -0.4174
  147SAPE   O1216180   1.191   0.804  10.784  0.5574 -0.0814  0.4060
  147SAPE   O1116181   1.261   0.977  10.622 -0.0204  0.7455 -0.4591
  147SAPE    C116182   1.199   0.911  10.508  0.4578  0.6792  0.4129
  147SAPE    HA16183   1.156   0.811  10.529 -0.1247  0.5724 -1.1449
  147SAPE    HB16184   1.125   0.981  10.464  0.4627  1.5862  1.7746
  147SAPE    C216185   1.294   0.885  10.384  0.0511 -0.1163  0.7930
  147SAPE    HS16186   1.369   0.810  10.417  0.3447 -0.6589 -1.0164
  147SAPE   O2116187   1.354   1.009  10.347 -0.1307 -0.4674  0.1055
  147SAPE   C2116188   1.464   0.998  10.280 -0.2544 -0.4607  0.0814
  147SAPE   O2216189   1.532   0.899  10.262  0.2690  0.5226 -0.2585
  147SAPE   C2216190   1.508   1.139  10.244 -0.0323 -0.3334  0.1827
  147SAPE   H2R16191   1.537   1.196  10.334 -0.8149  1.9639 -0.9266
  147SAPE   H2S16192   1.594   1.142  10.173 -0.0034  1.9459  0.2282
  147SAPE    C316193   1.203   0.829  10.267  0.0076  0.1736  0.0076
  147SAPE    HX16194   1.105   0.882  10.263 -0.0598 -0.0047 -1.2284
  147SAPE    HY16195   1.180   0.727  10.307  2.8000 -0.6263 -0.2132
  147SAPE   O3116196   1.264   0.809  10.142 -0.3030  0.1143 -0.6864
  147SAPE   C3116197   1.322   0.690  10.116  0.2540  0.2536 -0.1779
  147SAPE   O3216198   1.338   0.596  10.195  0.9255 -0.1160 -0.1790
  147SAPE   C3216199   1.383   0.686   9.975 -0.0718 -0.2319  0.0524
  147SAPE   H2X16200   1.416   0.792   9.964 -2.4999  0.5430 -0.3435
  147SAPE   H2Y16201   1.296   0.676   9.907 -1.0114  2.3648  0.7525
  147SAPE   C2316202   1.397   1.217  10.164  0.0939  0.6161  0.0779
  147SAPE   H3R16203   1.298   1.207  10.214 -0.6819 -2.6561 -1.7678
  147SAPE   H3S16204   1.373   1.158  10.072 -1.9987 -0.8121  1.4446
  147SAPE   C2416205   1.427   1.365  10.133  0.2532  0.4093  0.1444
  147SAPE   H4R16206   1.535   1.367  10.108  0.1087 -0.8763 -0.6743
  147SAPE   H4S16207   1.427   1.436  10.218 -1.4852  1.5222 -0.7391
  147SAPE   C2516208   1.354   1.422  10.014 -0.1808 -0.1472  0.2578
  147SAPE   H5R16209   1.265   1.482  10.036 -0.7989 -0.7049 -0.6486
  147SAPE   C2616210   1.388   1.391   9.887 -0.1437  0.8087  0.5085
  147SAPE   H6R16211   1.331   1.445   9.810  0.7621  1.6045  0.3698
  147SAPE   C2716212   1.496   1.303   9.831 -0.0616  0.5063  0.3022
  147SAPE   H7R16213   1.559   1.264   9.914  1.5932  0.3494 -0.9790
  147SAPE   H7S16214   1.559   1.370   9.768  1.2531  0.6847  1.7347
  147SAPE   C2816215   1.447   1.187   9.752 -0.8581  0.1368  0.4988
  147SAPE   H8R16216   1.423   1.099   9.813 -0.8997  0.2449  0.6384
  147SAPE   C2916217   1.404   1.180   9.624  0.1731  0.9320  0.0075
  147SAPE   H9R16218   1.370   1.084   9.581 -2.2440  1.3560  0.7846
  147SAPE  C21016219   1.387   1.294   9.536  0.4370  0.0663 -0.5869
  147SAPE  H10R16220   1.388   1.390   9.591  0.0846  0.1186 -0.6757
  147SAPE  H10S16221   1.293   1.276   9.480 -0.4095  0.4119  0.6822
  147SAPE  C21116222   1.503   1.298   9.444 -0.3225  0.4546 -0.1637
  147SAPE  H11R16223   1.601   1.315   9.491 -0.1550 -1.1572  0.1219
  147SAPE  C21216224   1.502   1.261   9.310 -1.0682  0.5167 -0.1309
  147SAPE  H12R16225   1.587   1.263   9.240 -0.3588 -2.2341  0.5279
  147SAPE  C21316226   1.378   1.217   9.237 -0.3645  0.9048 -0.4267
  147SAPE  H13R16227   1.284   1.253   9.282  0.1191  0.6366  0.8270
  147SAPE  H13S16228   1.376   1.106   9.240 -1.0574  0.9401  1.6647
  147SAPE  C21416229   1.348   1.256   9.093 -0.7370  0.5788  0.2833
  147SAPE  H14R16230   1.301   1.355   9.093  0.9015  1.4012 -0.5310
  147SAPE  C21516231   1.352   1.175   8.983 -0.0735  0.1636  0.0802
  147SAPE  H15R16232   1.322   1.217   8.886 -1.1721  0.2277  0.4356
  147SAPE  C21616233   1.406   1.031   8.989 -0.3717  1.0234 -0.2308
  147SAPE  H16R16234   1.340   0.975   8.919 -1.7024  1.1227  0.8912
  147SAPE  H16S16235   1.393   0.979   9.086  1.0357  0.6249 -0.2454
  147SAPE  C21716236   1.550   1.009   8.942 -0.6859  0.0378  0.4663
  147SAPE  H17R16237   1.587   0.908   8.970 -0.9400 -1.2591 -3.2552
  147SAPE  H17S16238   1.598   1.095   8.992 -1.5624  0.2159  1.0191
  147SAPE  C21816239   1.575   1.006   8.789  0.7169  0.1365  0.3235
  147SAPE  H18R16240   1.529   0.912   8.753 -2.3416  0.5437  2.7085
  147SAPE  H18S16241   1.684   0.991   8.774  0.4315 -3.5372  1.0861
  147SAPE  C21916242   1.505   1.119   8.708  0.2466 -0.6703  0.8836
  147SAPE  H19R16243   1.519   1.216   8.759 -0.4444  0.0787 -0.3076
  147SAPE  H19S16244   1.397   1.099   8.697  0.3198 -0.1087 -1.3204
  147SAPE  C22016245   1.570   1.130   8.568  0.2061 -0.2597  0.1219
  147SAPE  H20R16246   1.534   1.220   8.514  1.0228  0.7652  1.2194
  147SAPE  H20S16247   1.556   1.039   8.505  1.4772 -1.2809  1.2323
  147SAPE  H20T16248   1.677   1.154   8.589  0.0062  1.5454 -0.7111
  147SAPE   C3316249   1.481   0.578   9.933  0.2331 -0.3367  0.0194
  147SAPE   H3X16250   1.469   0.477   9.978 -1.9115 -0.9186 -1.6983
  147SAPE   H3Y16251   1.578   0.626   9.956  0.5436 -0.2473 -1.3642
  147SAPE   C3416252   1.458   0.530   9.786 -0.3534 -0.2736 -0.3525
  147SAPE   H4X16253   1.355   0.491   9.771  0.2848 -1.7709 -1.0295
  147SAPE   H4Y16254   1.520   0.440   9.770 -0.0033  0.1463 -1.4130
  147SAPE   C3516255   1.485   0.633   9.665 -0.0156 -0.4305  0.1878
  147SAPE   H5X16256   1.594   0.643   9.651 -0.0682 -1.0104 -0.6679
  147SAPE   H5Y16257   1.436   0.732   9.681 -0.3144 -0.4613 -0.5171
  147SAPE   C3616258   1.439   0.574   9.533  0.7360 -0.5001 -0.0105
  147SAPE   H6X16259   1.329   0.560   9.530  0.4046  1.7656 -1.5594
  147SAPE   H6Y16260   1.476   0.470   9.527  0.3203 -0.5787 -3.1194
  147SAPE   C3716261   1.492   0.645   9.401  0.0147  0.5404  0.0085
  147SAPE   H7X16262   1.602   0.635   9.403  0.1103  1.5139  0.3402
  147SAPE   H7Y16263   1.459   0.752   9.400  1.2227  0.9218 -0.1012
  147SAPE   C3816264   1.436   0.566   9.282 -0.1317  0.6630 -0.2653
  147SAPE   H8X16265   1.330   0.598   9.273 -0.4412  0.2435  1.4517
  147SAPE   H8Y16266   1.430   0.457   9.300 -0.1865  1.1111  3.0779
  147SAPE   C3916267   1.516   0.597   9.160 -0.2108  0.2002  0.2581
  147SAPE   H9X16268   1.621   0.563   9.171  0.3284  2.0908  1.4484
  147SAPE   H9Y16269   1.530   0.706   9.140  1.8412  0.2212  1.4874
  147SAPE  C31016270   1.465   0.516   9.033  0.1798  0.0923 -0.4257
  147SAPE  H10X16271   1.354   0.526   9.034 -0.3348 -3.8644 -0.6860
  147SAPE  H10Y16272   1.491   0.413   9.067  0.8611  0.1449 -0.7732
  147SAPE  C31116273   1.525   0.555   8.898  0.6089 -0.7212 -0.9300
  147SAPE  H11X16274   1.501   0.661   8.877  2.5815  0.1809  0.9702
  147SAPE  H11Y16275   1.464   0.489   8.832 -1.1437 -0.2108  0.0938
  147SAPE  C31216276   1.674   0.529   8.898 -0.1222 -0.4312 -0.1944
  147SAPE  H12X16277   1.698   0.422   8.917 -0.0349 -0.4112 -0.1938
  147SAPE  H12Y16278   1.729   0.591   8.972 -0.8995 -0.9714  0.8733
  147SAPE  C31316279   1.731   0.566   8.765 -0.7255 -0.0225 -0.4632
  147SAPE  H13X16280   1.837   0.533   8.768 -0.4096  0.9861  0.0631
  147SAPE  H13Y16281   1.740   0.676   8.750  0.3774  0.1434  1.1718
  147SAPE  C31416282   1.672   0.491   8.636 -0.7443 -0.4607 -0.0313
  147SAPE  H14X16283   1.565   0.520   8.625 -1.3651 -2.3593  0.5766
  147SAPE  H14Y16284   1.676   0.382   8.656  0.3931  0.0939  3.3741
  147SAPE  C31516285   1.752   0.516   8.508 -0.1980  0.2205 -0.2596
  147SAPE  H15X16286   1.851   0.469   8.524 -0.1532  0.6907  0.9228
  147SAPE  H15Y16287   1.770   0.624   8.490  2.4013 -0.2518 -0.8127
  147SAPE  C31616288   1.699   0.454   8.373  0.6283  0.1625 -1.2006
  147SAPE  H16X16289   1.604   0.510   8.364  0.9550  1.2428  1.2966
  147SAPE  H16Y16290   1.679   0.347   8.396 -1.9923  0.9688  0.6588
  147SAPE  C31716291   1.807   0.463   8.264  0.0547  0.3998  0.7688
  147SAPE  H17X16292   1.899   0.421   8.310 -0.4808 -1.0682  0.5637
  147SAPE  H17Y16293   1.822   0.571   8.242  0.0586  0.5298  1.3906
  147SAPE  C31816294   1.769   0.394   8.136 -0.1497  0.4416 -0.8579
  147SAPE  H18X16295   1.682   0.442   8.086  0.1056  3.8540  1.6433
  147SAPE  H18Y16296   1.757   0.284   8.151  1.1776  0.1247 -1.9015
  147SAPE  H18Z16297   1.852   0.395   8.062  1.5824 -1.4453  0.9283
  148SAPE     N16298   3.710   4.226  10.547 -0.0474  0.1510 -0.6170
  148SAPE   HN116299   3.674   4.324  10.548 -1.5339 -0.3754 -0.4268
  148SAPE   HN216300   3.618   4.188  10.578 -0.2689  2.9572  2.8407
  148SAPE   HN316301   3.788   4.212  10.615 -1.7557 -1.7241  1.1073
  148SAPE   C1216302   3.749   4.204  10.397  0.4427 -0.7050  0.0414
  148SAPE  H12A16303   3.650   4.223  10.350  0.8883 -0.3340 -0.7724
  148SAPE  H12B16304   3.778   4.097  10.392 -0.3782 -0.8804 -2.2046
  148SAPE   C1116305   3.849   4.315  10.355 -0.2572 -0.4621 -0.1521
  148SAPE  H11A16306   3.791   4.409  10.345 -0.1704 -0.2542  1.1088
  148SAPE  H11B16307   3.889   4.300  10.253 -0.6850  2.3676 -0.7974
  148SAPE     P16308   4.088   4.267  10.453 -0.0483 -0.1446  0.1434
  148SAPE   O1316309   4.163   4.319  10.568 -0.2960 -0.6787 -0.1319
  148SAPE   O1416310   4.049   4.122  10.449  0.3438 -0.0888  0.4265
  148SAPE   O1216311   3.947   4.342  10.454  0.8072  0.2238 -0.1660
  148SAPE   O1116312   4.150   4.321  10.324  0.7264 -0.0763  0.9028
  148SAPE    C116313   4.159   4.453  10.292  0.0994 -0.7262 -0.0514
  148SAPE    HA16314   4.066   4.476  10.236 -0.2178 -1.5925  0.0964
  148SAPE    HB16315   4.164   4.520  10.380  1.0046 -1.4010  0.4399
  148SAPE    C216316   4.276   4.490  10.193 -0.2163  0.0757  0.5548
  148SAPE    HS16317   4.245   4.576  10.130  1.7905 -0.3391 -1.1107
  148SAPE   O2116318   4.302   4.372  10.115 -0.2527 -0.2716 -0.1014
  148SAPE   C2116319   4.197   4.341  10.030 -0.3570  0.3652 -0.2693
  148SAPE   O2216320   4.104   4.414  10.005  0.2434  0.0793 -0.2310
  148SAPE   C2216321   4.215   4.213   9.956  0.5226 -0.8934 -0.9886
  148SAPE   H2R16322   4.249   4.239   9.853  1.5352 -0.4643 -0.5567
  148SAPE   H2S16323   4.294   4.159  10.012 -1.6365 -1.0923  2.1086
  148SAPE    C316324   4.406   4.530  10.269 -1.1146 -0.9362  0.4427
  148SAPE    HX16325   4.458   4.439  10.306 -0.0912 -0.5631 -0.0308
  148SAPE    HY16326   4.381   4.592  10.358  1.5291 -0.8508  1.2358
  148SAPE   O3116327   4.493   4.594  10.171  0.3625  0.0446  0.4066
  148SAPE   C3116328   4.621   4.587  10.174  0.2081  0.5334 -0.7359
  148SAPE   O3216329   4.683   4.522  10.252  0.4420 -0.3974 -0.7517
  148SAPE   C3216330   4.674   4.692  10.072  0.4412  1.1473 -0.3957
  148SAPE   H2X16331   4.687   4.786  10.130  0.9084  0.6918  0.2569
  148SAPE   H2Y16332   4.587   4.712  10.005 -1.1361 -2.1472  0.4383
  148SAPE   C2316333   4.087   4.127   9.961 -0.0987  0.3679 -0.4792
  148SAPE   H3R16334   4.004   4.171   9.901  0.7190 -0.7501 -2.5052
  148SAPE   H3S16335   4.051   4.124  10.067 -2.1997 -0.3030 -1.1520
  148SAPE   C2416336   4.121   3.980   9.936 -0.5190 -0.4851 -0.4912
  148SAPE   H4R16337   4.206   3.950  10.002  1.0475 -1.7258 -2.9334
  148SAPE   H4S16338   4.152   3.979   9.829 -0.7808 -0.0327 -0.5736
  148SAPE   C2516339   3.997   3.888   9.951  0.7413  0.3906  0.4797
  148SAPE   H5R16340   3.929   3.905  10.036  0.7877  0.1192  0.5697
  148SAPE   C2616341   3.954   3.794   9.865  0.1118 -0.2947  0.7813
  148SAPE   H6R16342   3.864   3.732   9.877  0.9101 -2.1227 -1.6931
  148SAPE   C2716343   4.023   3.746   9.739 -1.0757 -0.5308  0.2040
  148SAPE   H7R16344   4.024   3.635   9.737  0.1059 -0.5924  1.9237
  148SAPE   H7S16345   4.130   3.776   9.746 -1.1479 -0.5015  1.6741
  148SAPE   C2816346   3.961   3.807   9.617  0.4491 -0.4078  0.1267
  148SAPE   H8R16347   3.896   3.895   9.627  0.7777  0.3610 -3.4782
  148SAPE   C2916348   3.960   3.745   9.501 -0.4951 -0.0886  0.0551
  148SAPE   H9R16349   3.918   3.804   9.418 -0.9774 -0.3434  0.1152
  148SAPE  C21016350   4.031   3.620   9.455  0.2237 -0.2129 -0.3356
  148SAPE  H10R16351   3.969   3.532   9.481 -1.5277  0.6682 -1.3395
  148SAPE  H10S16352   4.125   3.609   9.513  1.4435  1.9403 -1.7879
  148SAPE  C21116353   4.049   3.612   9.302 -0.5802  0.2618  0.6115
  148SAPE  H11R16354   4.125   3.675   9.254 -1.4331 -1.3033 -3.0727
  148SAPE  C21216355   3.970   3.543   9.224 -0.3011  0.9774  0.7550
  148SAPE  H12R16356   3.993   3.529   9.117  0.9829 -1.4818  1.2660
  148SAPE  C21316357   3.847   3.456   9.262 -0.6321 -0.4562  0.6181
  148SAPE  H13R16358   3.762   3.479   9.194  1.6749  1.2705 -1.8630
  148SAPE  H13S16359   3.813   3.495   9.360  0.9876  1.1814  0.5831
  148SAPE  C21416360   3.864   3.309   9.252 -0.1278  0.9264 -0.6319
  148SAPE  H14R16361   3.929   3.268   9.174 -3.0280 -0.4803 -2.4880
  148SAPE  C21516362   3.816   3.211   9.342  0.2648  0.1436 -0.5161
  148SAPE  H15R16363   3.837   3.104   9.326 -0.3343 -0.3306  1.5813
  148SAPE  C21616364   3.728   3.238   9.465  0.7077  0.1823 -0.0268
  148SAPE  H16R16365   3.626   3.200   9.444  0.2693  0.7807  0.9612
  148SAPE  H16S16366   3.705   3.344   9.491 -2.8641 -0.4043 -0.2290
  148SAPE  C21716367   3.794   3.168   9.579 -0.5080  0.5267  0.0169
  148SAPE  H17R16368   3.899   3.201   9.591  0.2412 -1.8132  0.3465
  148SAPE  H17S16369   3.799   3.062   9.546  0.8782  0.8281 -0.8081
  148SAPE  C21816370   3.734   3.198   9.718 -0.0715 -0.0823 -0.5881
  148SAPE  H18R16371   3.738   3.308   9.735 -0.1015  0.1111 -1.7215
  148SAPE  H18S16372   3.792   3.153   9.801 -1.6833  0.8595  1.1205
  148SAPE  C21916373   3.587   3.163   9.728 -0.3862 -0.2052 -0.0505
  148SAPE  H19R16374   3.588   3.052   9.726 -0.7083 -0.2614  1.4502
  148SAPE  H19S16375   3.535   3.185   9.633  0.6872 -1.9348 -1.0898
  148SAPE  C22016376   3.515   3.211   9.850  0.0583  0.4322 -0.3489
  148SAPE  H20R16377   3.570   3.204   9.946 -1.1207  1.3292  0.4343
  148SAPE  H20S16378   3.419   3.157   9.864 -0.8340  1.6930 -1.2423
  148SAPE  H20T16379   3.496   3.320   9.839  1.6420  1.2509  3.5126
  148SAPE   C3316380   4.795   4.646   9.991  0.5264 -0.2187 -0.9738
  148SAPE   H3X16381   4.875   4.627  10.066 -0.4992 -0.1068  0.1754
  148SAPE   H3Y16382   4.826   4.723   9.916 -0.7361 -1.3246 -2.7154
  148SAPE   C3416383   4.779   4.515   9.906 -0.0455 -0.3431 -0.2390
  148SAPE   H4X16384   4.765   4.430   9.976 -0.3902 -0.1784 -0.1077
  148SAPE   H4Y16385   4.875   4.491   9.854 -0.3213 -1.6093 -0.1968
  148SAPE   C3516386   4.673   4.523   9.796  0.2275  0.0744 -0.2805
  148SAPE   H5X16387   4.699   4.595   9.716  1.1296 -0.9769 -0.9681
  148SAPE   H5Y16388   4.578   4.542   9.851  1.8162  2.2170  1.9215
  148SAPE   C3616389   4.654   4.386   9.728  0.2816 -0.3879  0.0953
  148SAPE   H6X16390   4.615   4.310   9.800  2.9060 -3.2257 -1.2441
  148SAPE   H6Y16391   4.760   4.357   9.715  0.2941 -0.2734 -0.0656
  148SAPE   C3716392   4.579   4.378   9.593 -0.4396  0.5641  0.4724
  148SAPE   H7X16393   4.469   4.384   9.611 -0.2944 -1.2165  2.1314
  148SAPE   H7Y16394   4.600   4.278   9.550  0.1919  0.3006  1.3777
  148SAPE   C3816395   4.624   4.475   9.489 -0.2443  0.7758  1.2344
  148SAPE   H8X16396   4.728   4.449   9.458 -0.0351  2.0156  0.8316
  148SAPE   H8Y16397   4.623   4.584   9.508 -1.3266  1.8367 -3.5999
  148SAPE   C3916398   4.526   4.476   9.364 -0.0039 -0.4125 -0.3384
  148SAPE   H9X16399   4.427   4.503   9.407 -0.0638 -0.5635 -0.3823
  148SAPE   H9Y16400   4.511   4.373   9.326 -0.3294 -0.0932 -1.1140
  148SAPE  C31016401   4.576   4.565   9.254 -0.2301 -0.4100 -0.2639
  148SAPE  H10X16402   4.687   4.568   9.261 -0.3260 -0.4407  1.7889
  148SAPE  H10Y16403   4.542   4.671   9.260 -2.4347 -1.0629 -0.6770
  148SAPE  C31116404   4.528   4.522   9.116 -0.2941 -0.6600 -0.0028
  148SAPE  H11X16405   4.426   4.478   9.120 -0.3379 -0.4742  1.3500
  148SAPE  H11Y16406   4.600   4.444   9.085 -1.5093 -1.4201 -1.0300
  148SAPE  C31216407   4.552   4.633   9.012  0.6624  0.4764 -0.1490
  148SAPE  H12X16408   4.647   4.685   9.036  0.6566  0.2956  0.2674
  148SAPE  H12Y16409   4.469   4.703   9.039 -0.4588 -1.2816  1.1862
  148SAPE  C31316410   4.547   4.587   8.862 -0.4228 -0.7435  0.3079
  148SAPE  H13X16411   4.630   4.515   8.851  1.6459  1.3998  1.0679
  148SAPE  H13Y16412   4.574   4.684   8.814 -0.3703  0.9708  3.5054
  148SAPE  C31416413   4.411   4.518   8.820  0.2874  0.0577 -0.0856
  148SAPE  H14X16414   4.325   4.579   8.852  0.9437  0.8840  0.1485
  148SAPE  H14Y16415   4.412   4.424   8.879  0.7431  0.3839  0.4386
  148SAPE  C31516416   4.392   4.495   8.667 -1.2240 -0.2770 -0.1120
  148SAPE  H15X16417   4.482   4.439   8.633  1.3408  2.5422  1.5456
  148SAPE  H15Y16418   4.398   4.592   8.613  1.7465  0.9866  2.2112
  148SAPE  C31616419   4.255   4.428   8.626 -0.0444  0.6119  0.1006
  148SAPE  H16X16420   4.282   4.333   8.574 -0.2211  0.2375  0.6777
  148SAPE  H16Y16421   4.203   4.492   8.552 -0.1488  0.8725  0.3939
  148SAPE  C31716422   4.155   4.397   8.735 -0.5168 -0.3179 -0.6415
  148SAPE  H17X16423   4.133   4.483   8.802 -3.5904 -1.7254  0.3482
  148SAPE  H17Y16424   4.202   4.319   8.799 -1.6060  1.4249  2.4890
  148SAPE  C31816425   4.024   4.344   8.692 -0.3445  0.0515 -0.2447
  148SAPE  H18X16426   4.035   4.265   8.615  1.9991 -0.5344  0.5994
  148SAPE  H18Y16427   3.948   4.422   8.669 -0.3915  0.1167  0.1321
  148SAPE  H18Z16428   3.986   4.277   8.772  1.2987  0.9368  1.3469
  149SAPE     N16429   1.929   6.408  10.854  0.1668 -0.2875  0.3996
  149SAPE   HN116430   1.850   6.365  10.802  0.8941 -1.0262 -0.1221
  149SAPE   HN216431   1.922   6.363  10.948 -0.2034 -2.6318 -0.6592
  149SAPE   HN316432   1.931   6.512  10.855 -0.9770 -0.2357 -0.5528
  149SAPE   C1216433   2.056   6.365  10.793 -0.2095 -0.6831 -0.5927
  149SAPE  H12A16434   2.142   6.407  10.849 -0.1789 -1.1397 -0.2935
  149SAPE  H12B16435   2.065   6.405  10.690 -1.2747 -1.5952 -1.0693
  149SAPE   C1116436   2.061   6.213  10.808 -0.5876  1.0444 -0.8461
  149SAPE  H11A16437   2.080   6.182  10.913  0.1162 -1.7812 -1.7218
  149SAPE  H11B16438   2.150   6.180  10.749 -0.0161 -2.6186  1.7119
  149SAPE     P16439   1.856   6.045  10.838  0.4100 -0.2605 -0.1879
  149SAPE   O1316440   1.933   5.927  10.884 -0.3265  0.3506  0.3894
  149SAPE   O1416441   1.781   6.102  10.950  0.0789 -0.0379  0.1562
  149SAPE   O1216442   1.946   6.153  10.762 -0.2363  0.3161 -0.2316
  149SAPE   O1116443   1.748   5.994  10.729 -0.0997 -0.0341 -0.1201
  149SAPE    C116444   1.793   5.967  10.599  0.8804  0.6111  0.2493
  149SAPE    HA16445   1.768   6.052  10.531  3.2606  2.1254  1.1345
  149SAPE    HB16446   1.903   5.955  10.590  0.6634 -2.2197  0.5924
  149SAPE    C216447   1.737   5.835  10.549  0.2043  0.1143  0.0768
  149SAPE    HS16448   1.776   5.760  10.622  1.2500  1.4143  0.9089
  149SAPE   O2116449   1.792   5.812  10.420  0.3545  0.5454  0.2174
  149SAPE   C2116450   1.775   5.688  10.369  0.2535 -0.4108 -0.4628
  149SAPE   O2216451   1.742   5.586  10.429 -0.2208 -0.1676 -0.0736
  149SAPE   C2216452   1.805   5.697  10.218  0.6224 -0.5887 -1.1038
  149SAPE   H2R16453   1.709   5.714  10.165  0.5166  1.3237 -0.3815
  149SAPE   H2S16454   1.871   5.781  10.187  0.4352  0.2833  0.7308
  149SAPE    C316455   1.588   5.825  10.553 -0.2011  0.2792 -0.2782
  149SAPE    HX16456   1.542   5.852  10.651 -2.3065 -1.1882 -0.7979
  149SAPE    HY16457   1.553   5.720  10.544  0.7068 -0.3151  2.1896
  149SAPE   O3116458   1.533   5.918  10.459  0.5560  0.0659  0.0117
  149SAPE   C3116459   1.475   5.875  10.344  0.2414  0.2828  0.3538
  149SAPE   O3216460   1.477   5.756  10.306  0.7640 -0.3232 -0.1260
  149SAPE   C3216461   1.428   5.990  10.263 -0.1116  0.0310  0.0707
  149SAPE   H2X16462   1.514   6.060  10.262 -0.1066  0.0323 -0.9180
  149SAPE   H2Y16463   1.340   6.038  10.311 -0.0111 -0.1449  0.4374
  149SAPE   C2316464   1.876   5.568  10.171 -0.1695  0.2734 -0.4762
  149SAPE   H3R16465   1.808   5.481  10.183 -1.1383  1.1897  1.0349
  149SAPE   H3S16466   1.962   5.562  10.242 -0.9578  1.2679  0.6021
  149SAPE   C2416467   1.934   5.572  10.029 -0.5631  0.4165 -0.3470
  149SAPE   H4R16468   2.009   5.491  10.019 -0.8734 -0.3171  2.2954
  149SAPE   H4S16469   1.993   5.664  10.013 -0.2711 -0.1874 -3.1125
  149SAPE   C2516470   1.839   5.545   9.914  0.0028 -0.0880 -0.7174
  149SAPE   H5R16471   1.806   5.442   9.895 -2.0487  0.6167 -1.2206
  149SAPE   C2616472   1.784   5.646   9.840  0.8956  0.2457 -0.2645
  149SAPE   H6R16473   1.729   5.616   9.749 -2.1714  1.7304  0.9552
  149SAPE   C2716474   1.816   5.794   9.848  0.0243  0.3973 -0.2628
  149SAPE   H7R16475   1.925   5.800   9.827 -0.0476  4.6188 -0.2829
  149SAPE   H7S16476   1.786   5.819   9.951  2.4867 -1.2054  0.9454
  149SAPE   C2816477   1.750   5.902   9.764 -0.3832 -0.0442  0.4336
  149SAPE   H8R16478   1.670   5.957   9.815  0.0583  1.8819 -0.8472
  149SAPE   C2916479   1.754   5.912   9.630 -0.0024  0.1781  0.6166
  149SAPE   H9R16480   1.686   5.988   9.588 -1.2465 -0.3798  1.5576
  149SAPE  C21016481   1.831   5.830   9.531 -0.2556  0.3058  0.0486
  149SAPE  H10R16482   1.788   5.727   9.529 -3.7251  1.6232 -0.0809
  149SAPE  H10S16483   1.940   5.840   9.552 -0.3142 -0.1260  0.6050
  149SAPE  C21116484   1.826   5.877   9.389  1.2609  0.1454  0.4079
  149SAPE  H11R16485   1.769   5.969   9.373 -0.0723 -0.6956  0.1558
  149SAPE  C21216486   1.858   5.804   9.283  0.3536  0.5445 -0.1612
  149SAPE  H12R16487   1.855   5.855   9.186  0.4854  3.1819  1.1300
  149SAPE  C21316488   1.921   5.665   9.282 -0.2749  0.5747  0.2955
  149SAPE  H13R16489   1.939   5.622   9.382 -0.7411 -1.5249 -0.4687
  149SAPE  H13S16490   2.025   5.666   9.241 -0.8434  0.1200 -1.2418
  149SAPE  C21416491   1.828   5.572   9.199 -0.4304 -0.1401  0.2541
  149SAPE  H14R16492   1.741   5.536   9.256 -1.6090  2.8106  0.4817
  149SAPE  C21516493   1.836   5.543   9.068 -0.5235 -0.5706 -0.1299
  149SAPE  H15R16494   1.756   5.475   9.032 -2.7432  1.6113  0.3647
  149SAPE  C21616495   1.948   5.589   8.975 -0.2614  0.4355 -0.5585
  149SAPE  H16R16496   2.026   5.625   9.045 -1.5462  0.4377  0.9166
  149SAPE  H16S16497   1.917   5.674   8.911 -1.7610  1.2048  1.1172
  149SAPE  C21716498   2.017   5.481   8.900 -0.0702  0.1491 -0.0887
  149SAPE  H17R16499   1.956   5.430   8.822 -0.8273  1.4430 -0.3776
  149SAPE  H17S16500   2.029   5.389   8.960  0.7117  0.3672  0.0932
  149SAPE  C21816501   2.148   5.514   8.835 -0.4160 -0.5854  0.3501
  149SAPE  H18R16502   2.199   5.552   8.926 -2.2562  1.1598  0.7364
  149SAPE  H18S16503   2.136   5.590   8.755 -0.9126 -2.4371 -1.4159
  149SAPE  C21916504   2.226   5.393   8.780  0.7207 -0.3865  0.1587
  149SAPE  H19R16505   2.321   5.434   8.740  1.0575 -1.3182 -0.0052
  149SAPE  H19S16506   2.173   5.352   8.691 -1.9794  0.9959  0.9994
  149SAPE  C22016507   2.272   5.289   8.887  0.0424 -0.0233  0.0039
  149SAPE  H20R16508   2.299   5.193   8.839  0.6976  0.8700 -1.4693
  149SAPE  H20S16509   2.194   5.269   8.963  0.0867  0.6320  0.2348
  149SAPE  H20T16510   2.364   5.311   8.947  0.9417 -0.8054 -1.0496
  149SAPE   C3316511   1.386   5.956  10.116  0.6589 -0.3484  0.0491
  149SAPE   H3X16512   1.302   5.884  10.123 -0.2593  0.3270 -2.8089
  149SAPE   H3Y16513   1.470   5.912  10.058  1.4826  1.4910 -0.2222
  149SAPE   C3416514   1.336   6.087  10.041  0.7159  0.3248  0.1110
  149SAPE   H4X16515   1.399   6.176  10.062 -0.5841  1.3981 -0.3806
  149SAPE   H4Y16516   1.236   6.100  10.088  1.1121 -0.5668  1.2430
  149SAPE   C3516517   1.327   6.060   9.890  0.0702 -0.2199 -0.0447
  149SAPE   H5X16518   1.237   5.997   9.872 -1.4264  1.6652  0.4789
  149SAPE   H5Y16519   1.417   6.007   9.851 -0.2449 -1.4075  0.7919
  149SAPE   C3616520   1.311   6.184   9.806 -0.2016 -0.4741  0.1008
  149SAPE   H6X16521   1.408   6.235   9.827 -0.3565 -0.7794  1.6368
  149SAPE   H6Y16522   1.235   6.251   9.851 -1.2833 -2.3058  1.1023
  149SAPE   C3716523   1.281   6.167   9.664 -0.6637 -0.3005  0.2716
  149SAPE   H7X16524   1.264   6.262   9.610 -1.5338  0.0530  1.1417
  149SAPE   H7Y16525   1.182   6.118   9.651  0.3667 -3.0652  1.9059
  149SAPE   C3816526   1.389   6.087   9.584 -0.0895 -0.1827 -0.2183
  149SAPE   H8X16527   1.399   5.988   9.632 -0.1409  0.6222  1.5243
  149SAPE   H8Y16528   1.484   6.145   9.590 -0.5118  0.7664 -2.0595
  149SAPE   C3916529   1.350   6.079   9.438  0.2969  0.7148  0.5692
  149SAPE   H9X16530   1.324   6.182   9.407 -0.3978  0.3867  0.0097
  149SAPE   H9Y16531   1.260   6.016   9.421  0.2778  1.2393 -1.5361
  149SAPE  C31016532   1.468   6.028   9.353  0.1627 -0.0508  0.1392
  149SAPE  H10X16533   1.497   5.924   9.377 -0.3981 -0.6453 -1.5964
  149SAPE  H10Y16534   1.553   6.092   9.384  0.5334 -0.0399 -0.8834
  149SAPE  C31116535   1.439   6.044   9.206 -0.1579  0.1527  0.7172
  149SAPE  H11X16536   1.425   6.149   9.171 -0.2582 -0.7240 -2.1958
  149SAPE  H11Y16537   1.344   5.990   9.187 -0.5803  0.4659  1.8807
  149SAPE  C31216538   1.542   5.969   9.123 -0.4602 -0.2026 -0.5321
  149SAPE  H12X16539   1.559   5.867   9.165 -2.8066 -0.1275  0.7536
  149SAPE  H12Y16540   1.642   6.013   9.141 -0.7041  0.0802  0.1583
  149SAPE  C31316541   1.523   5.964   8.970 -0.3301  0.3992  0.0668
  149SAPE  H13X16542   1.505   6.064   8.927 -2.4977 -0.7039 -1.8047
  149SAPE  H13Y16543   1.427   5.910   8.954  1.2246 -1.7995 -2.8318
  149SAPE  C31416544   1.634   5.901   8.884 -0.3275 -0.4466 -0.0367
  149SAPE  H14X16545   1.635   5.792   8.905  1.5047  0.0606  3.0893
  149SAPE  H14Y16546   1.735   5.943   8.905 -0.2248 -0.3451 -0.7213
  149SAPE  C31516547   1.615   5.910   8.732  0.0938  0.3415  0.5707
  149SAPE  H15X16548   1.636   6.013   8.696 -0.7801  0.8640  1.4821
  149SAPE  H15Y16549   1.507   5.883   8.724 -0.7822  3.2130  1.2200
  149SAPE  C31616550   1.714   5.813   8.660 -0.0872 -0.1957 -0.1225
  149SAPE  H16X16551   1.731   5.710   8.696 -0.2008 -0.6728 -1.3991
  149SAPE  H16Y16552   1.811   5.867   8.662  1.0805 -2.2300  0.4203
  149SAPE  C31716553   1.677   5.786   8.514 -0.2496  0.5189 -0.4824
  149SAPE  H17X16554   1.730   5.870   8.464  2.5355 -1.0449 -0.3321
  149SAPE  H17Y16555   1.568   5.795   8.493  0.3396  2.4608 -3.1760
  149SAPE  C31816556   1.742   5.659   8.461 -0.5751  0.3183  0.5504
  149SAPE  H18X16557   1.713   5.576   8.529  0.7555  0.4728  1.3348
  149SAPE  H18Y16558   1.853   5.661   8.453 -0.7234  0.7170 -2.0586
  149SAPE  H18Z16559   1.702   5.629   8.362  1.7072 -0.6663 -0.1386
  150SAPE     N16560   5.042   6.034  10.649  0.8132 -0.0220 -0.3196
  150SAPE   HN116561   5.062   5.963  10.722 -1.7845  0.5923  1.1026
  150SAPE   HN216562   4.939   6.050  10.653  0.1913 -3.4426  1.0576
  150SAPE   HN316563   5.072   5.992  10.559 -0.7556  2.2160 -2.0036
  150SAPE   C1216564   5.118   6.166  10.660 -0.5767 -0.2223 -0.5408
  150SAPE  H12A16565   5.227   6.149  10.653 -0.2519  0.5975  1.6886
  150SAPE  H12B16566   5.094   6.212  10.758  0.0687  1.1072 -0.9859
  150SAPE   C1116567   5.069   6.265  10.561 -0.9345 -0.1314  0.5159
  150SAPE  H11A16568   4.964   6.295  10.581 -1.3958  0.7142 -2.7135
  150SAPE  H11B16569   5.078   6.220  10.460 -0.6152 -1.3822  1.0811
  150SAPE     P16570   5.137   6.503  10.640  0.0154 -0.2687 -0.0832
  150SAPE   O1316571   5.085   6.464  10.771  0.8270 -0.0522 -0.6092
  150SAPE   O1416572   5.259   6.587  10.628  0.0282 -0.1405  0.1763
  150SAPE   O1216573   5.158   6.375  10.556 -0.0598 -0.0668 -0.3987
  150SAPE   O1116574   5.019   6.574  10.568  0.2777  0.0950 -0.2840
  150SAPE    C116575   5.032   6.639  10.443  0.0016  0.0304  0.5901
  150SAPE    HA16576   4.948   6.706  10.419  0.5002 -0.3198 -2.4458
  150SAPE    HB16577   5.124   6.700  10.432 -0.5046  0.8437  0.7516
  150SAPE    C216578   5.018   6.549  10.310 -0.2036  0.6000  0.3831
  150SAPE    HS16579   4.986   6.620  10.230  0.8194  0.6377  0.0019
  150SAPE   O2116580   4.917   6.443  10.325  0.4535 -0.5841  0.1490
  150SAPE   C2116581   4.797   6.489  10.318 -0.4175 -0.2506 -0.0511
  150SAPE   O2216582   4.758   6.589  10.262 -0.5191 -0.3736  0.2827
  150SAPE   C2216583   4.694   6.394  10.356  0.4104  1.9632 -0.1522
  150SAPE   H2R16584   4.733   6.331  10.439 -0.4539 -0.5547 -1.5482
  150SAPE   H2S16585   4.598   6.436  10.393  0.2916  0.7585  1.0175
  150SAPE    C316586   5.149   6.483  10.267 -0.1688  0.2512 -0.5253
  150SAPE    HX16587   5.151   6.373  10.280  0.1991  0.0902 -1.8193
  150SAPE    HY16588   5.235   6.517  10.329  0.5614 -0.2286 -1.2611
  150SAPE   O3116589   5.186   6.521  10.136 -0.5853  0.2872  0.0701
  150SAPE   C3116590   5.174   6.425  10.039  0.3702  0.2017 -0.9441
  150SAPE   O3216591   5.153   6.307  10.048  0.1047 -0.0421 -0.2505
  150SAPE   C3216592   5.201   6.499   9.901 -0.1485  0.0824  0.4268
  150SAPE   H2X16593   5.311   6.517   9.903 -0.4798  2.3699 -0.2422
  150SAPE   H2Y16594   5.139   6.590   9.901 -3.1297 -1.8074  1.4225
  150SAPE   C2316595   4.664   6.282  10.253  0.1134 -0.0400  0.2579
  150SAPE   H3R16596   4.619   6.192  10.299  0.5888 -1.2799 -1.5885
  150SAPE   H3S16597   4.762   6.236  10.229 -0.1051 -0.6892  0.6005
  150SAPE   C2416598   4.576   6.337  10.137  0.6375  0.9533  0.1190
  150SAPE   H4R16599   4.612   6.439  10.111 -0.0256  1.5005  1.2132
  150SAPE   H4S16600   4.469   6.337  10.168  1.2309  1.5960  2.3584
  150SAPE   C2516601   4.614   6.264  10.016 -0.3043 -0.4110  0.3904
  150SAPE   H5R16602   4.721   6.267   9.994  0.1698  0.4704  2.6289
  150SAPE   C2616603   4.532   6.195   9.938 -0.2602  0.1560 -0.7576
  150SAPE   H6R16604   4.575   6.149   9.847  2.4140 -0.1178  0.5516
  150SAPE   C2716605   4.387   6.171   9.961 -0.1781 -0.5424  0.4682
  150SAPE   H7R16606   4.339   6.270   9.974  0.9654 -0.2499  2.8724
  150SAPE   H7S16607   4.367   6.108  10.050  0.1188  0.8365  1.5273
  150SAPE   C2816608   4.315   6.103   9.846  1.0798  0.6441 -0.2289
  150SAPE   H8R16609   4.288   6.000   9.874 -0.1588  1.4940  1.9663
  150SAPE   C2916610   4.278   6.145   9.726  0.3622 -0.0448  0.0178
  150SAPE   H9R16611   4.237   6.073   9.654 -0.6334  1.4966 -1.0126
  150SAPE  C21016612   4.290   6.283   9.675 -0.0680 -0.8073  0.0630
  150SAPE  H10R16613   4.369   6.334   9.735  0.6152  0.0127 -1.4819
  150SAPE  H10S16614   4.199   6.346   9.690  1.2577  1.5470 -1.2644
  150SAPE  C21116615   4.341   6.292   9.534  0.1575  0.4022  0.2636
  150SAPE  H11R16616   4.451   6.297   9.527  0.0247  1.1758 -3.2257
  150SAPE  C21216617   4.275   6.308   9.417  0.2055 -0.2607 -0.3272
  150SAPE  H12R16618   4.325   6.288   9.321 -1.8016 -1.1153 -1.2350
  150SAPE  C21316619   4.127   6.316   9.409 -0.3096 -0.7659  0.0242
  150SAPE  H13R16620   4.101   6.397   9.338 -0.4588 -0.7845  0.0557
  150SAPE  H13S16621   4.081   6.351   9.504 -2.4568  0.2552 -1.3219
  150SAPE  C21416622   4.066   6.183   9.381 -0.1742  0.4120  0.5115
  150SAPE  H14R16623   4.084   6.112   9.462  0.0808  3.2114  3.0687
  150SAPE  C21516624   3.998   6.147   9.269 -0.3638 -0.1179  0.1034
  150SAPE  H15R16625   3.977   6.040   9.256 -5.4690  0.4141  1.5615
  150SAPE  C21616626   3.959   6.238   9.152  0.4087 -0.3660 -0.6475
  150SAPE  H16R16627   3.977   6.347   9.169  2.4833 -0.3865 -2.3294
  150SAPE  H16S16628   3.850   6.234   9.132 -0.3847  2.0074  2.3395
  150SAPE  C21716629   4.047   6.209   9.024  0.2632  0.0516 -0.1852
  150SAPE  H17R16630   4.040   6.099   9.006  0.3465 -0.0966  0.6360
  150SAPE  H17S16631   4.154   6.228   9.043  0.1376 -0.0254  0.6350
  150SAPE  C21816632   3.986   6.288   8.900 -0.2208 -0.3864  0.2069
  150SAPE  H18R16633   3.958   6.393   8.922  0.5479  0.6699 -3.1925
  150SAPE  H18S16634   3.892   6.241   8.863 -2.6017  3.7964  0.3867
  150SAPE  C21916635   4.090   6.310   8.790 -0.3158 -0.2946  0.8496
  150SAPE  H19R16636   4.127   6.207   8.768  0.8522 -0.0140  1.4496
  150SAPE  H19S16637   4.181   6.365   8.821  0.6263 -0.8560 -0.8135
  150SAPE  C22016638   4.023   6.373   8.663 -0.0409  0.9059 -0.0184
  150SAPE  H20R16639   3.954   6.301   8.614  2.1655  0.5658 -2.9061
  150SAPE  H20S16640   4.100   6.417   8.596  1.4557  0.2941  1.2641
  150SAPE  H20T16641   3.962   6.461   8.691 -1.7905 -0.1370 -0.3678
  150SAPE   C3316642   5.176   6.418   9.772  0.8848  0.0387 -0.5263
  150SAPE   H3X16643   5.067   6.428   9.753  0.6772  0.0868  0.5885
  150SAPE   H3Y16644   5.209   6.312   9.778  0.3601 -0.0749  0.8166
  150SAPE   C3416645   5.250   6.476   9.657 -0.5459  0.4346 -0.6674
  150SAPE   H4X16646   5.346   6.502   9.706 -0.3308  0.7513 -1.2420
  150SAPE   H4Y16647   5.212   6.576   9.628  2.1470  1.1083 -2.2789
  150SAPE   C3516648   5.255   6.394   9.528  0.0025  0.0485  0.5776
  150SAPE   H5X16649   5.254   6.286   9.555  4.3637 -0.8315 -1.7849
  150SAPE   H5Y16650   5.350   6.405   9.472  0.0383 -0.1433  0.5994
  150SAPE   C3616651   5.132   6.415   9.441 -0.1643 -0.0144 -0.5505
  150SAPE   H6X16652   5.139   6.522   9.414  0.3056  0.0518 -0.1810
  150SAPE   H6Y16653   5.039   6.390   9.496  0.0485  0.7798  0.1862
  150SAPE   C3716654   5.121   6.328   9.322 -0.7153  0.7308 -0.1378
  150SAPE   H7X16655   5.138   6.221   9.346  3.9000  0.9689 -1.3563
  150SAPE   H7Y16656   5.203   6.363   9.256 -0.2695  0.8985  0.4930
  150SAPE   C3816657   4.994   6.351   9.236 -0.0396 -0.8851 -0.2339
  150SAPE   H8X16658   4.986   6.460   9.213 -2.6516 -0.4233  2.2989
  150SAPE   H8Y16659   4.900   6.326   9.289  0.1907  0.6940  1.0038
  150SAPE   C3916660   5.003   6.277   9.105 -0.1537 -0.2187 -0.9906
  150SAPE   H9X16661   5.001   6.174   9.146  0.9537  0.6926  1.5144
  150SAPE   H9Y16662   5.097   6.284   9.046 -1.0341  0.3213 -2.3687
  150SAPE  C31016663   4.879   6.295   9.016  0.1584  0.5469  0.9468
  150SAPE  H10X16664   4.787   6.307   9.076  0.0974  1.7076  0.6445
  150SAPE  H10Y16665   4.874   6.195   8.968 -0.1385  0.4463  1.1876
  150SAPE  C31116666   4.905   6.407   8.909  0.5410  0.2955 -0.3633
  150SAPE  H11X16667   5.011   6.440   8.918  0.3552  0.5700  0.9262
  150SAPE  H11Y16668   4.845   6.499   8.926 -0.6786 -0.1720 -1.8405
  150SAPE  C31216669   4.882   6.355   8.764  0.5446 -0.6750 -0.3049
  150SAPE  H12X16670   4.777   6.322   8.752  0.6290 -0.8119 -0.6817
  150SAPE  H12Y16671   4.944   6.263   8.754  0.0723 -1.0661  0.2721
  150SAPE  C31316672   4.922   6.459   8.658 -0.2275  0.0946  0.3065
  150SAPE  H13X16673   5.032   6.471   8.647 -0.2539 -1.7070 -4.4112
  150SAPE  H13Y16674   4.884   6.560   8.685 -0.6146  0.0050  0.1023
  150SAPE  C31416675   4.882   6.428   8.514 -0.0869 -0.2521  0.0043
  150SAPE  H14X16676   4.906   6.521   8.459 -1.7544  0.7497  0.9052
  150SAPE  H14Y16677   4.773   6.409   8.503 -0.0364  0.3300 -1.8133
  150SAPE  C31516678   4.948   6.288   8.458  0.0620 -0.1688 -0.1510
  150SAPE  H15X16679   4.901   6.204   8.512 -0.1981 -0.3722 -0.6852
  150SAPE  H15Y16680   5.059   6.284   8.458  0.0382 -1.4674 -0.6120
  150SAPE  C31616681   4.898   6.269   8.317  0.0647 -0.1365 -0.3305
  150SAPE  H16X16682   4.960   6.192   8.266 -0.8900  0.7368 -3.0195
  150SAPE  H16Y16683   4.919   6.358   8.254 -0.0406  0.1068 -0.0222
  150SAPE  C31716684   4.746   6.220   8.301 -0.8193 -0.6897  0.1625
  150SAPE  H17X16685   4.681   6.294   8.353 -0.6774  0.4806 -1.2593
  150SAPE  H17Y16686   4.732   6.119   8.346 -1.3946 -1.4414 -1.6184
  150SAPE  C31816687   4.701   6.222   8.151  0.4305 -0.9766 -0.9759
  150SAPE  H18X16688   4.692   6.321   8.100  0.2851 -0.9464 -0.8912
  150SAPE  H18Y16689   4.606   6.166   8.141 -0.1351 -0.7312  2.2168
  150SAPE  H18Z16690   4.777   6.168   8.091 -0.5568 -0.0577 -3.1854
  151SAPE     N16691   5.762   0.821  10.557 -0.1795  0.3257  0.7162
  151SAPE   HN116692   5.757   0.915  10.602  1.3185  0.5622  0.4658
  151SAPE   HN216693   5.725   0.744  10.617  1.5057  0.4111  1.9582
  151SAPE   HN316694   5.865   0.804  10.548 -0.1894  0.3428  0.5789
  151SAPE   C1216695   5.704   0.830  10.424  0.3105  0.3972 -0.3398
  151SAPE  H12A16696   5.719   0.934  10.390 -0.9429  1.1877  1.3991
  151SAPE  H12B16697   5.597   0.800  10.430  0.5990 -0.5688  0.2757
  151SAPE   C1116698   5.773   0.718  10.331 -0.4494 -0.0948 -0.1861
  151SAPE  H11A16699   5.736   0.706  10.227 -1.4984  0.6853  0.0831
  151SAPE  H11B16700   5.751   0.619  10.376  1.2467 -1.5058 -2.2597
  151SAPE     P16701   6.008   0.629  10.249  0.6035  0.3721  0.0402
  151SAPE   O1316702   6.142   0.657  10.306 -0.2050 -0.1495  0.7156
  151SAPE   O1416703   5.961   0.490  10.266  0.1567 -0.4033  0.4069
  151SAPE   O1216704   5.914   0.732  10.329 -0.1697 -0.7917 -0.2870
  151SAPE   O1116705   6.004   0.673  10.097  0.4862  0.2425 -0.2209
  151SAPE    C116706   6.034   0.805  10.053  0.0958 -0.3401  0.8429
  151SAPE    HA16707   6.116   0.851  10.112  1.2994 -0.8700 -0.3637
  151SAPE    HB16708   6.079   0.804   9.952 -0.1007  0.4838  0.7430
  151SAPE    C216709   5.912   0.904  10.041 -0.8818  0.2710 -0.0785
  151SAPE    HS16710   5.856   0.900  10.138  0.8662  1.7676  1.0617
  151SAPE   O2116711   5.834   0.861   9.924 -0.0369 -1.0607  0.1401
  151SAPE   C2116712   5.703   0.864   9.933 -0.3998 -0.6968  0.3002
  151SAPE   O2216713   5.640   0.894  10.033 -0.1628 -0.6151 -0.6132
  151SAPE   C2216714   5.643   0.833   9.798  0.7670 -0.4695 -0.0002
  151SAPE   H2R16715   5.704   0.747   9.763  0.6208 -0.8212  0.5866
  151SAPE   H2S16716   5.539   0.797   9.817  1.3990 -1.6712  1.3814
  151SAPE    C316717   5.969   1.048  10.019 -0.1446 -0.5104  0.3170
  151SAPE    HX16718   6.010   1.073  10.119  2.2870 -0.3775 -0.6481
  151SAPE    HY16719   5.890   1.122   9.993  0.7268  0.4758  0.3927
  151SAPE   O3116720   6.072   1.061   9.918  0.0976 -0.3749 -0.0812
  151SAPE   C3116721   6.142   1.169   9.942  0.0676 -0.9931 -0.0681
  151SAPE   O3216722   6.128   1.249  10.036  0.3626  0.3812  0.2814
  151SAPE   C3216723   6.229   1.199   9.815 -0.4885 -0.2059 -0.5575
  151SAPE   H2X16724   6.210   1.308   9.801 -0.2025  0.3152  2.5036
  151SAPE   H2Y16725   6.199   1.136   9.729 -0.3070 -0.9222 -0.0978
  151SAPE   C2316726   5.647   0.949   9.701  0.5395  0.6113 -0.9641
  151SAPE   H3R16727   5.747   0.997   9.704  1.6213 -1.5354 -0.6232
  151SAPE   H3S16728   5.570   1.021   9.737 -0.0055 -0.2869 -0.2846
  151SAPE   C2416729   5.609   0.909   9.554 -0.7999  0.2684  0.0505
  151SAPE   H4R16730   5.570   1.001   9.504 -0.4767 -0.5577 -1.7917
  151SAPE   H4S16731   5.518   0.847   9.567 -0.5010  0.2768  2.9074
  151SAPE   C2516732   5.727   0.853   9.484 -0.0209  0.1951  0.2486
  151SAPE   H5R16733   5.819   0.825   9.538  0.4349  1.0988 -0.0427
  151SAPE   C2616734   5.718   0.820   9.353  0.0827  0.0714 -0.4403
  151SAPE   H6R16735   5.804   0.781   9.298 -0.0760 -0.5340 -0.2708
  151SAPE   C2716736   5.594   0.845   9.267 -0.2207  0.5182 -0.1096
  151SAPE   H7R16737   5.601   0.951   9.235  0.9982  0.5216  0.1427
  151SAPE   H7S16738   5.502   0.845   9.330 -0.0301  0.7085  0.1710
  151SAPE   C2816739   5.593   0.741   9.151  0.2003  0.3906  0.1137
  151SAPE   H8R16740   5.578   0.637   9.181 -1.5450  0.1231 -1.4853
  151SAPE   C2916741   5.606   0.773   9.019 -0.3828 -0.1340  0.0548
  151SAPE   H9R16742   5.608   0.694   8.942 -1.3416  1.0086 -1.2014
  151SAPE  C21016743   5.628   0.913   8.957 -0.7999 -0.1592 -0.5394
  151SAPE  H10R16744   5.712   0.924   8.886 -0.6924  0.9858 -0.2577
  151SAPE  H10S16745   5.667   0.973   9.042  0.6615 -0.4144 -1.0095
  151SAPE  C21116746   5.498   0.976   8.917 -0.0354 -0.2811  0.2299
  151SAPE  H11R16747   5.443   1.036   8.991 -0.5028  0.2894 -0.5566
  151SAPE  C21216748   5.442   0.971   8.802 -0.1473 -0.4189  0.3804
  151SAPE  H12R16749   5.344   1.020   8.790 -0.0481 -0.5578 -1.3477
  151SAPE  C21316750   5.488   0.900   8.675 -0.4152 -0.6253  0.1271
  151SAPE  H13R16751   5.520   0.799   8.708 -1.3115  0.1414  3.8889
  151SAPE  H13S16752   5.577   0.949   8.632  0.2398 -0.1616  1.8972
  151SAPE  C21416753   5.376   0.887   8.569 -0.7502  0.4596  0.1457
  151SAPE  H14R16754   5.311   0.799   8.581  1.1220 -0.9844  0.1985
  151SAPE  C21516755   5.366   0.948   8.454 -0.2433  0.4038 -0.9755
  151SAPE  H15R16756   5.290   0.922   8.379  0.3820  0.9225 -1.8068
  151SAPE  C21616757   5.462   1.051   8.404  0.0714 -0.1446  0.4933
  151SAPE  H16R16758   5.493   1.118   8.488  0.1399  0.8700 -0.3278
  151SAPE  H16S16759   5.413   1.120   8.332  1.4790  0.4503  0.0618
  151SAPE  C21716760   5.589   1.005   8.331  0.1270  0.3257  0.5250
  151SAPE  H17R16761   5.660   0.971   8.410  0.4657 -1.8408 -0.6375
  151SAPE  H17S16762   5.638   1.091   8.281 -0.7008  1.8889  2.2568
  151SAPE  C21816763   5.567   0.881   8.240 -0.2116 -0.3974  0.3650
  151SAPE  H18R16764   5.470   0.888   8.188  0.0417  1.7839  0.1001
  151SAPE  H18S16765   5.556   0.782   8.289  2.1418 -1.0749 -0.3097
  151SAPE  C21916766   5.675   0.861   8.135  0.0414 -0.2118 -0.1292
  151SAPE  H19R16767   5.769   0.851   8.195 -1.5200 -2.1975  2.1621
  151SAPE  H19S16768   5.686   0.951   8.071  0.5818  0.4342  0.8374
  151SAPE  C22016769   5.662   0.731   8.056  0.8542  0.0169 -0.0937
  151SAPE  H20R16770   5.673   0.647   8.128 -0.8897 -0.0774  0.1204
  151SAPE  H20S16771   5.737   0.721   7.975 -0.3782  1.3505 -1.4650
  151SAPE  H20T16772   5.560   0.732   8.011  0.5595  0.1878  0.5606
  151SAPE   C3316773   6.371   1.157   9.819 -0.2175  0.4481  0.1150
  151SAPE   H3X16774   6.378   1.046   9.824 -0.9145  0.3625 -0.5553
  151SAPE   H3Y16775   6.430   1.207   9.899  1.4401 -1.5779  0.2455
  151SAPE   C3416776   6.444   1.195   9.686  0.0604  0.7598  0.1176
  151SAPE   H4X16777   6.551   1.224   9.694  0.0789  0.7941 -0.2480
  151SAPE   H4Y16778   6.385   1.284   9.658 -0.7510  0.0668 -0.3987
  151SAPE   C3516779   6.422   1.092   9.565 -0.0532 -0.0124  0.0781
  151SAPE   H5X16780   6.314   1.073   9.552  0.2346 -1.0115 -1.0314
  151SAPE   H5Y16781   6.469   0.994   9.588 -0.0419 -0.0315 -0.0246
  151SAPE   C3616782   6.483   1.139   9.435  0.1051  0.4181  0.2275
  151SAPE   H6X16783   6.593   1.157   9.439 -0.0217  1.3848 -0.2268
  151SAPE   H6Y16784   6.433   1.236   9.418 -0.1458  0.7840  2.7360
  151SAPE   C3716785   6.446   1.042   9.321 -0.1832 -0.1216  0.2816
  151SAPE   H7X16786   6.336   1.024   9.319 -0.3432  0.3497  2.3428
  151SAPE   H7Y16787   6.494   0.943   9.335 -2.1154 -1.1872 -0.2188
  151SAPE   C3816788   6.490   1.101   9.183 -0.4062  0.1036 -0.3769
  151SAPE   H8X16789   6.585   1.155   9.205 -0.7857  1.6357 -2.2023
  151SAPE   H8Y16790   6.417   1.181   9.157 -1.5159 -1.1196 -1.1472
  151SAPE   C3916791   6.510   1.002   9.062  0.3272 -0.6668 -0.4107
  151SAPE   H9X16792   6.411   0.958   9.038  0.2742 -0.5804 -0.3523
  151SAPE   H9Y16793   6.574   0.918   9.097  0.8635 -0.1432 -0.1127
  151SAPE  C31016794   6.570   1.068   8.940  0.0914  0.0544  0.1689
  151SAPE  H10X16795   6.484   1.119   8.893 -1.9996 -1.2344  2.3761
  151SAPE  H10Y16796   6.590   0.986   8.867 -3.4753 -1.8951  1.1254
  151SAPE  C31116797   6.690   1.159   8.965 -0.9633  0.3157 -0.0214
  151SAPE  H11X16798   6.770   1.119   9.030 -0.8413  1.5186  0.5925
  151SAPE  H11Y16799   6.655   1.250   9.019  1.4494  1.0354  0.4168
  151SAPE  C31216800   6.772   1.193   8.842  0.0390  0.1613  0.3838
  151SAPE  H12X16801   6.838   1.109   8.812  1.2884  0.1543  2.8210
  151SAPE  H12Y16802   6.845   1.276   8.853  2.4664 -1.6872 -0.8960
  151SAPE  C31316803   6.705   1.245   8.719  0.3158 -0.7340 -0.4146
  151SAPE  H13X16804   6.638   1.164   8.684 -1.2377  0.4338 -0.2714
  151SAPE  H13Y16805   6.782   1.260   8.641  0.6033 -3.1761 -0.6648
  151SAPE  C31416806   6.609   1.365   8.756 -0.1802 -0.0615 -0.2893
  151SAPE  H14X16807   6.666   1.449   8.802  1.4552 -1.9544  1.3371
  151SAPE  H14Y16808   6.538   1.337   8.836  0.9273 -0.3578  0.6208
  151SAPE  C31516809   6.516   1.413   8.648  0.2496 -0.9303  0.2371
  151SAPE  H15X16810   6.493   1.334   8.574  0.7977 -0.4400 -0.4822
  151SAPE  H15Y16811   6.582   1.471   8.580 -2.1715  0.6734 -0.9046
  151SAPE  C31616812   6.414   1.508   8.688  0.1527  0.7048 -0.5865
  151SAPE  H16X16813   6.379   1.566   8.601  0.1682  0.3251 -0.8476
  151SAPE  H16Y16814   6.447   1.586   8.761  1.2011 -1.4223  1.3724
  151SAPE  C31716815   6.296   1.439   8.765 -0.2268 -0.1804 -0.3983
  151SAPE  H17X16816   6.230   1.517   8.808  0.6088 -0.8096  2.2586
  151SAPE  H17Y16817   6.339   1.382   8.850 -2.8219 -1.3226  0.2255
  151SAPE  C31816818   6.221   1.348   8.680  0.1321 -0.3036  0.3611
  151SAPE  H18X16819   6.137   1.307   8.738 -0.1484  1.1579  1.0300
  151SAPE  H18Y16820   6.283   1.262   8.647 -0.7447 -1.3608  1.4139
  151SAPE  H18Z16821   6.180   1.409   8.596  1.0919 -0.7903 -0.4897
  152SAPE     N16822   4.999   0.883  10.599  0.4283 -0.3396  0.2981
  152SAPE   HN116823   4.936   0.965  10.583  0.1729 -0.5850  0.0448
  152SAPE   HN216824   4.941   0.805  10.636 -3.0080  0.6155 -2.4961
  152SAPE   HN316825   5.065   0.914  10.674  2.4508 -1.0429 -1.1421
  152SAPE   C1216826   5.070   0.849  10.473  0.3610  0.0312  0.3495
  152SAPE  H12A16827   5.001   0.786  10.413  0.9217 -2.3626  2.0452
  152SAPE  H12B16828   5.149   0.778  10.507 -1.9461 -1.9436  1.9196
  152SAPE   C1116829   5.125   0.969  10.384  0.5664 -0.2901 -0.0011
  152SAPE  H11A16830   5.035   1.023  10.346  1.1642  2.2073  1.8434
  152SAPE  H11B16831   5.195   0.940  10.303 -0.0752 -0.4177 -0.5128
  152SAPE     P16832   5.338   1.048  10.507  0.2918 -0.2117 -0.1440
  152SAPE   O1316833   5.383   1.168  10.579  0.2923 -0.4957  0.1748
  152SAPE   O1416834   5.380   0.916  10.559 -0.1863  0.1401 -0.0813
  152SAPE   O1216835   5.180   1.060  10.479 -0.2840  0.4185  0.0106
  152SAPE   O1116836   5.389   1.059  10.358 -0.4132  0.0090 -1.1972
  152SAPE    C116837   5.490   1.148  10.318 -0.3698  0.7457 -0.0755
  152SAPE    HA16838   5.501   1.241  10.378 -0.6076  0.9321 -0.3165
  152SAPE    HB16839   5.589   1.098  10.319 -1.1909 -1.0539 -1.7182
  152SAPE    C216840   5.470   1.171  10.166 -0.1002 -0.1728  0.0534
  152SAPE    HS16841   5.521   1.092  10.106  1.8992  1.2125 -0.1768
  152SAPE   O2116842   5.511   1.305  10.126  0.4469 -0.0178  0.3968
  152SAPE   C2116843   5.643   1.317  10.123  0.1426 -0.7087  0.4129
  152SAPE   O2216844   5.723   1.228  10.152  0.4306  0.0291 -0.9310
  152SAPE   C2216845   5.678   1.454  10.072  0.2789 -0.3403 -0.3447
  152SAPE   H2R16846   5.789   1.453  10.066  0.2272 -1.3473 -1.7717
  152SAPE   H2S16847   5.648   1.467   9.966  3.6133 -0.0603 -1.3646
  152SAPE    C316848   5.318   1.164  10.133  0.6664 -0.1936 -0.3700
  152SAPE    HX16849   5.257   1.205  10.216 -0.1320  3.0851 -2.4137
  152SAPE    HY16850   5.284   1.058  10.131 -2.6171  0.7237  0.9618
  152SAPE   O3116851   5.275   1.227  10.012 -0.2717  0.7872  0.0588
  152SAPE   C3116852   5.310   1.174   9.904  0.2711  0.0987  0.9226
  152SAPE   O3216853   5.373   1.070   9.882  0.2680  0.4025  0.4520
  152SAPE   C3216854   5.282   1.283   9.786 -0.2891  0.5313 -0.0681
  152SAPE   H2X16855   5.362   1.358   9.804  1.2547 -1.2735  0.9219
  152SAPE   H2Y16856   5.176   1.314   9.789 -0.0032  1.5336  0.2507
  152SAPE   C2316857   5.641   1.571  10.169  0.1549 -0.9312 -0.3146
  152SAPE   H3R16858   5.699   1.556  10.263 -0.9085 -1.4719  0.2744
  152SAPE   H3S16859   5.534   1.574  10.197  1.1560 -0.2721  4.2790
  152SAPE   C2416860   5.660   1.714  10.110  0.0126 -0.0316  0.5541
  152SAPE   H4R16861   5.630   1.793  10.182 -3.5305 -0.6693 -0.0385
  152SAPE   H4S16862   5.594   1.721  10.021 -0.1508 -0.5271  0.6299
  152SAPE   C2516863   5.803   1.733  10.079  0.4465 -0.0674  0.2653
  152SAPE   H5R16864   5.872   1.730  10.164  1.3920  0.2671 -0.4757
  152SAPE   C2616865   5.853   1.729   9.958  0.0433  0.2311  0.2522
  152SAPE   H6R16866   5.962   1.747   9.960  0.2647 -1.0539  0.7486
  152SAPE   C2716867   5.771   1.706   9.833  0.4138 -0.4900 -0.0188
  152SAPE   H7R16868   5.709   1.798   9.825 -0.1628 -0.8489  0.1871
  152SAPE   H7S16869   5.693   1.628   9.846  1.0072 -1.4885 -2.0858
  152SAPE   C2816870   5.867   1.683   9.720  0.1062 -0.2340  1.1584
  152SAPE   H8R16871   5.894   1.773   9.664  0.7239 -0.1426  1.5962
  152SAPE   C2916872   5.911   1.562   9.680  0.2213 -0.4724 -0.2272
  152SAPE   H9R16873   5.988   1.550   9.603  0.6114 -0.8024  0.2075
  152SAPE  C21016874   5.871   1.429   9.736  0.1116 -0.2690  0.1907
  152SAPE  H10R16875   5.761   1.417   9.740  0.0627  0.2048  0.3200
  152SAPE  H10S16876   5.913   1.430   9.838  0.3419  3.5499  0.2292
  152SAPE  C21116877   5.919   1.314   9.651 -0.0985  0.3608  0.6177
  152SAPE  H11R16878   6.025   1.289   9.663 -0.1761  0.2702  1.1331
  152SAPE  C21216879   5.846   1.250   9.554 -0.3336 -0.0157 -0.3155
  152SAPE  H12R16880   5.899   1.173   9.496 -1.6452 -1.6827  0.6126
  152SAPE  C21316881   5.705   1.276   9.511 -0.4019  0.2041 -0.0568
  152SAPE  H13R16882   5.642   1.295   9.601 -0.5647  0.3209 -0.1930
  152SAPE  H13S16883   5.672   1.177   9.472 -0.8614  0.0152  0.8055
  152SAPE  C21416884   5.683   1.388   9.411 -0.0384  0.1988 -0.0015
  152SAPE  H14R16885   5.678   1.485   9.462 -0.7256  1.4219 -2.2650
  152SAPE  C21516886   5.709   1.397   9.280 -0.3266 -0.6045  0.0770
  152SAPE  H15R16887   5.670   1.483   9.223  0.1091 -0.0001  0.6726
  152SAPE  C21616888   5.750   1.280   9.196  0.0506  0.1099  0.3974
  152SAPE  H16R16889   5.664   1.224   9.155 -0.9588  2.6595 -1.2387
  152SAPE  H16S16890   5.800   1.203   9.258  1.1844  0.0710 -0.5122
  152SAPE  C21716891   5.843   1.319   9.076  0.6837 -0.1166 -0.8639
  152SAPE  H17R16892   5.927   1.378   9.117 -1.0788  0.6559  1.8922
  152SAPE  H17S16893   5.773   1.376   9.011  0.9519 -1.4522 -2.4185
  152SAPE  C21816894   5.900   1.205   8.993 -0.4632  0.2452 -0.5491
  152SAPE  H18R16895   5.962   1.249   8.912  0.2457  1.9225  0.8424
  152SAPE  H18S16896   5.820   1.148   8.939 -1.7617  0.5720  0.9671
  152SAPE  C21916897   6.002   1.120   9.071  0.2551  0.8052 -0.3965
  152SAPE  H19R16898   5.942   1.059   9.143 -1.2864  1.5001 -1.0486
  152SAPE  H19S16899   6.059   1.195   9.131 -1.6160  1.6304  0.4579
  152SAPE  C22016900   6.094   1.032   8.988  0.2117 -0.1263 -0.4336
  152SAPE  H20R16901   6.163   0.980   9.056 -0.1700 -0.8655 -0.6044
  152SAPE  H20S16902   6.148   1.100   8.918 -0.4940  2.0414  1.0081
  152SAPE  H20T16903   6.030   0.964   8.928 -1.3026  0.1640  0.7817
  152SAPE   C3316904   5.317   1.220   9.646 -0.0353  0.9301 -0.6128
  152SAPE   H3X16905   5.248   1.135   9.628  0.6952  0.0908  0.3822
  152SAPE   H3Y16906   5.418   1.172   9.649 -0.2768  0.4718  0.9904
  152SAPE   C3416907   5.318   1.324   9.544  0.0252 -0.7437  0.2052
  152SAPE   H4X16908   5.397   1.396   9.575 -1.3291  0.4149  1.0871
  152SAPE   H4Y16909   5.221   1.379   9.549  0.3862  0.4550 -3.4917
  152SAPE   C3516910   5.334   1.266   9.404 -0.0674  0.7047  0.3786
  152SAPE   H5X16911   5.248   1.195   9.395  1.5175 -1.2726  0.1497
  152SAPE   H5Y16912   5.421   1.198   9.415 -2.0452 -1.9015  1.1203
  152SAPE   C3616913   5.331   1.359   9.285 -0.9646 -0.3173  0.0131
  152SAPE   H6X16914   5.407   1.438   9.306  0.8756 -1.7587 -0.9434
  152SAPE   H6Y16915   5.233   1.411   9.279 -0.2650  1.0966  0.3758
  152SAPE   C3716916   5.364   1.295   9.152 -0.0341 -0.2741  0.1472
  152SAPE   H7X16917   5.309   1.199   9.153 -0.0578 -0.2882 -1.0802
  152SAPE   H7Y16918   5.473   1.278   9.145  0.1041  0.0441  1.2372
  152SAPE   C3816919   5.301   1.374   9.038 -0.0467 -0.1542 -0.6575
  152SAPE   H8X16920   5.333   1.481   9.038 -0.0351 -0.1524 -1.6906
  152SAPE   H8Y16921   5.193   1.368   9.065 -0.2549 -1.7761 -1.7499
  152SAPE   C3916922   5.326   1.304   8.908  0.0418  0.4745  0.1763
  152SAPE   H9X16923   5.276   1.205   8.905 -3.3053  1.9318  1.9216
  152SAPE   H9Y16924   5.434   1.291   8.886 -0.6540 -0.0234 -3.7849
  152SAPE  C31016925   5.273   1.383   8.785  0.3465 -0.8400  0.2368
  152SAPE  H10X16926   5.311   1.487   8.800 -1.2729 -0.1034 -0.5541
  152SAPE  H10Y16927   5.163   1.396   8.781  0.4504 -0.1842 -1.1818
  152SAPE  C31116928   5.333   1.334   8.654  0.3749  0.7929  0.0076
  152SAPE  H11X16929   5.317   1.224   8.647 -1.9959  1.1277 -0.5863
  152SAPE  H11Y16930   5.440   1.362   8.660  0.4705  0.5717 -0.6336
  152SAPE  C31216931   5.260   1.395   8.536  0.2553  0.1588 -0.3427
  152SAPE  H12X16932   5.153   1.367   8.541  0.7694 -1.7269  1.3440
  152SAPE  H12Y16933   5.302   1.363   8.437 -0.3154 -1.2077 -0.1744
  152SAPE  C31316934   5.273   1.552   8.537 -0.1689 -0.2372 -0.3128
  152SAPE  H13X16935   5.374   1.587   8.508 -0.8442 -0.4820 -3.3092
  152SAPE  H13Y16936   5.257   1.597   8.637  0.4744  0.4300 -0.5000
  152SAPE  C31416937   5.171   1.619   8.438  0.2071 -0.4498 -0.3432
  152SAPE  H14X16938   5.069   1.581   8.459 -0.1194 -0.1257 -1.2976
  152SAPE  H14Y16939   5.189   1.571   8.339  1.3512 -2.6377  0.8361
  152SAPE  C31516940   5.166   1.770   8.444  0.4523 -1.3204  0.1188
  152SAPE  H15X16941   5.232   1.820   8.370  0.2682  0.8271  1.3272
  152SAPE  H15Y16942   5.193   1.813   8.543  2.7927 -2.1701 -0.1078
  152SAPE  C31616943   5.021   1.819   8.413  0.2908  0.2657 -0.3505
  152SAPE  H16X16944   5.015   1.917   8.465  0.1023  0.1356 -0.1243
  152SAPE  H16Y16945   4.944   1.756   8.464  1.1041 -0.6610 -0.2258
  152SAPE  C31716946   5.004   1.828   8.259  0.0195  0.4079  0.0622
  152SAPE  H17X16947   4.906   1.797   8.217  0.1483  0.0460  0.0207
  152SAPE  H17Y16948   5.072   1.745   8.230  1.2430  0.8807  1.4397
  152SAPE  C31816949   5.033   1.960   8.194 -0.0969 -0.3346  0.3030
  152SAPE  H18X16950   5.134   1.995   8.225  0.6282 -1.3997 -0.7443
  152SAPE  H18Y16951   4.954   2.035   8.213 -1.0487 -1.3064  0.2943
  152SAPE  H18Z16952   5.038   1.951   8.083  1.8761  0.4989  0.2848
  153SAPE     N16953   6.428   2.993  10.807 -0.0247  0.3154 -0.5603
  153SAPE   HN116954   6.506   2.936  10.846 -2.3823 -2.6105  0.2400
  153SAPE   HN216955   6.430   3.088  10.848 -0.7239  0.3209 -0.5315
  153SAPE   HN316956   6.348   2.955  10.861  0.0599  0.9241  0.0054
  153SAPE   C1216957   6.405   3.003  10.660 -1.1204  0.0872 -0.4723
  153SAPE  H12A16958   6.319   3.072  10.650 -0.7444  0.7915  0.9278
  153SAPE  H12B16959   6.378   2.901  10.624  3.7192 -1.1250 -1.3687
  153SAPE   C1116960   6.528   3.056  10.584 -0.1798 -0.5237  0.1149
  153SAPE  H11A16961   6.541   3.164  10.606  1.6492 -0.5302 -0.7056
  153SAPE  H11B16962   6.503   3.059  10.476 -0.6631 -0.8853  0.2151
  153SAPE     P16963   6.667   2.840  10.534  0.4069 -0.4255 -0.0543
  153SAPE   O1316964   6.755   2.853  10.411 -0.3018 -0.3836  0.2498
  153SAPE   O1416965   6.709   2.753  10.643 -0.2088 -0.6305 -0.2826
  153SAPE   O1216966   6.645   2.978  10.601 -0.1081  0.2879  0.3105
  153SAPE   O1116967   6.527   2.800  10.490  0.0692  0.1533 -0.0638
  153SAPE    C116968   6.467   2.673  10.472  0.0354  0.3836 -0.4463
  153SAPE    HA16969   6.529   2.590  10.513 -1.5162 -0.8555 -0.5434
  153SAPE    HB16970   6.373   2.682  10.530  0.8217  1.1146  0.7779
  153SAPE    C216971   6.447   2.651  10.320 -0.1742  0.2626 -0.1142
  153SAPE    HS16972   6.383   2.561  10.315  1.0388 -0.5562 -1.9176
  153SAPE   O2116973   6.567   2.638  10.249 -0.1819 -0.5122 -0.4970
  153SAPE   C2116974   6.631   2.524  10.258  0.2328  0.8040  0.1142
  153SAPE   O2216975   6.579   2.415  10.290  0.2131  0.2049 -0.3544
  153SAPE   C2216976   6.771   2.541  10.192  0.3303 -0.4492 -0.5227
  153SAPE   H2R16977   6.789   2.648  10.170  0.7390 -0.3560  0.2211
  153SAPE   H2S16978   6.847   2.514  10.268 -0.4924  0.3336  0.6160
  153SAPE    C316979   6.366   2.770  10.256  0.5745  0.1191  0.1386
  153SAPE    HX16980   6.440   2.853  10.264  0.9251 -0.2623  1.0424
  153SAPE    HY16981   6.283   2.790  10.327 -0.1596  0.0477 -0.6820
  153SAPE   O3116982   6.313   2.741  10.117  0.2169 -0.2558 -0.1255
  153SAPE   C3116983   6.206   2.666  10.112  0.1889  0.0740 -0.0915
  153SAPE   O3216984   6.151   2.612  10.208 -0.2565  0.1171  0.0937
  153SAPE   C3216985   6.144   2.671   9.971  0.3605  0.1604 -0.5854
  153SAPE   H2X16986   6.209   2.737   9.909  0.9576 -0.1805 -0.3307
  153SAPE   H2Y16987   6.040   2.711   9.967 -0.3408 -1.4971  0.2509
  153SAPE   C2316988   6.778   2.462  10.057 -0.0278 -0.3855 -0.6534
  153SAPE   H3R16989   6.845   2.516   9.987 -2.2705  1.1006 -1.7828
  153SAPE   H3S16990   6.673   2.470  10.021 -0.0068 -0.3921 -0.7144
  153SAPE   C2416991   6.809   2.310  10.066  0.5150 -0.0088 -1.0476
  153SAPE   H4R16992   6.777   2.257   9.974 -0.2536 -1.0426 -0.2086
  153SAPE   H4S16993   6.755   2.268  10.154  1.8810 -1.0299 -0.6762
  153SAPE   C2516994   6.953   2.285  10.092 -0.4156 -0.0251  0.3625
  153SAPE   H5R16995   7.003   2.372  10.136 -2.6201  1.4463  0.1186
  153SAPE   C2616996   7.027   2.179  10.060 -0.1107  0.0373  0.0091
  153SAPE   H6R16997   7.131   2.169  10.095 -0.3467  2.8456  1.9095
  153SAPE   C2716998   6.964   2.051   9.999 -0.3867  0.1664 -0.3704
  153SAPE   H7R16999   6.942   2.065   9.891  0.6608 -1.0376 -0.7672
  153SAPE   H7S17000   6.875   2.013  10.054 -1.0187  2.7448  0.5321
  153SAPE   C2817001   7.057   1.934  10.025 -0.6528  0.3611 -0.2589
  153SAPE   H8R17002   7.111   1.941  10.120  1.6867  0.8686 -1.5560
  153SAPE   C2917003   7.063   1.821   9.956 -0.3310  0.1879  0.0044
  153SAPE   H9R17004   7.140   1.743   9.965 -0.4873 -0.0191 -0.3882
  153SAPE  C21017005   6.991   1.805   9.827 -0.0650  0.5422 -0.4277
  153SAPE  H10R17006   7.040   1.714   9.787 -1.4036 -0.0744 -0.7373
  153SAPE  H10S17007   7.005   1.891   9.757  1.8156 -0.1136 -0.9127
  153SAPE  C21117008   6.846   1.765   9.848 -0.5175  0.7790  0.4974
  153SAPE  H11R17009   6.812   1.722   9.944  0.3445 -0.2666  0.3548
  153SAPE  C21217010   6.755   1.771   9.747  0.2565  0.2570 -0.8397
  153SAPE  H12R17011   6.651   1.749   9.776  0.1992  1.5024 -0.0416
  153SAPE  C21317012   6.784   1.821   9.614 -0.0311 -0.3843 -0.3829
  153SAPE  H13R17013   6.876   1.773   9.573 -0.5308 -1.4951 -0.2300
  153SAPE  H13S17014   6.823   1.925   9.615  1.3619 -0.8792 -0.9109
  153SAPE  C21417015   6.671   1.803   9.515  0.0267 -0.0480 -0.6406
  153SAPE  H14R17016   6.573   1.765   9.549  0.2793 -0.4334 -0.3368
  153SAPE  C21517017   6.688   1.824   9.380 -0.0180 -0.1839  0.0208
  153SAPE  H15R17018   6.606   1.801   9.311  2.2583 -0.2442 -2.8838
  153SAPE  C21617019   6.818   1.874   9.319 -0.3304  0.5622  0.1092
  153SAPE  H16R17020   6.898   1.877   9.396 -0.2710 -0.3587  0.0933
  153SAPE  H16S17021   6.818   1.982   9.290  0.9326  0.8848  1.1840
  153SAPE  C21717022   6.861   1.796   9.198  0.2732  0.3264  0.5890
  153SAPE  H17R17023   6.837   1.688   9.205 -0.2445  0.4695  1.2118
  153SAPE  H17S17024   6.971   1.807   9.190  0.0349  1.7249 -1.4023
  153SAPE  C21817025   6.800   1.833   9.064  0.2371 -0.1144 -0.2477
  153SAPE  H18R17026   6.831   1.938   9.051 -0.6264  0.5811  2.6092
  153SAPE  H18S17027   6.689   1.827   9.067  0.3217 -2.5157  1.4060
  153SAPE  C21917028   6.845   1.738   8.947  0.0239 -0.4399  0.6088
  153SAPE  H19R17029   6.794   1.641   8.964  0.4740 -0.7100  0.4674
  153SAPE  H19S17030   6.954   1.716   8.938  0.0160  0.0381 -0.8914
  153SAPE  C22017031   6.797   1.799   8.808  0.6329  0.3384  0.2240
  153SAPE  H20R17032   6.828   1.906   8.802 -0.7683  0.7445 -0.1841
  153SAPE  H20S17033   6.686   1.804   8.809  0.5483 -0.9167 -0.8416
  153SAPE  H20T17034   6.838   1.744   8.721  1.8343  1.4371  0.0667
  153SAPE   C3317035   6.141   2.533   9.904 -0.4943 -0.1562  0.1978
  153SAPE   H3X17036   6.070   2.481   9.972 -1.9003  1.1148 -0.2495
  153SAPE   H3Y17037   6.234   2.478   9.929 -0.6100  0.1026  1.2775
  153SAPE   C3417038   6.104   2.535   9.758 -0.2091  0.1064  0.0734
  153SAPE   H4X17039   6.011   2.594   9.748  0.0129  0.4192 -0.1446
  153SAPE   H4Y17040   6.071   2.431   9.734  0.2915  0.0739 -0.4887
  153SAPE   C3517041   6.205   2.578   9.655 -0.0951  0.7397 -0.1498
  153SAPE   H5X17042   6.286   2.502   9.665 -0.7026 -0.0483 -1.0416
  153SAPE   H5Y17043   6.256   2.675   9.672 -0.5851  0.5668  2.8097
  153SAPE   C3617044   6.144   2.572   9.514  0.2972  0.7550 -0.6641
  153SAPE   H6X17045   6.079   2.661   9.499 -1.3572 -0.0597  1.2330
  153SAPE   H6Y17046   6.071   2.488   9.513 -1.5482  2.2885 -0.3373
  153SAPE   C3717047   6.242   2.566   9.403  0.4849  0.4822 -0.4907
  153SAPE   H7X17048   6.312   2.479   9.400  0.3861  0.3263  0.9305
  153SAPE   H7Y17049   6.311   2.652   9.410  0.9942  0.2843 -2.4306
  153SAPE   C3817050   6.176   2.557   9.264  0.0507  1.0524 -0.3896
  153SAPE   H8X17051   6.257   2.570   9.189  0.6196 -0.1359 -0.0134
  153SAPE   H8Y17052   6.105   2.642   9.254 -0.3874  1.2155  2.9473
  153SAPE   C3917053   6.116   2.423   9.229 -0.7635  0.4351  0.1429
  153SAPE   H9X17054   6.044   2.403   9.311 -0.7499  3.5768  1.0475
  153SAPE   H9Y17055   6.194   2.344   9.223 -1.7084 -0.4088 -2.5080
  153SAPE  C31017056   6.042   2.416   9.096  0.0514  0.5891  0.0826
  153SAPE  H10X17057   6.107   2.472   9.024  1.7671 -1.7811 -0.3517
  153SAPE  H10Y17058   5.940   2.459   9.105  0.3030  0.8458  1.9568
  153SAPE  C31117059   6.041   2.264   9.052  0.1200 -0.4420  0.5631
  153SAPE  H11X17060   5.997   2.197   9.129  2.6992 -1.9182  0.8893
  153SAPE  H11Y17061   6.140   2.214   9.050  0.1936 -0.3716  1.8893
  153SAPE  C31217062   5.983   2.235   8.906  0.0759  0.2919  0.5042
  153SAPE  H12X17063   6.043   2.286   8.828 -1.0694  0.6309 -0.1685
  153SAPE  H12Y17064   5.880   2.273   8.894  0.7137  2.7353  2.0665
  153SAPE  C31317065   5.983   2.082   8.888 -0.1329 -0.5536  0.3892
  153SAPE  H13X17066   5.937   2.045   8.981  0.6086  2.5167  2.1027
  153SAPE  H13Y17067   6.090   2.052   8.888  0.3140  0.8959  1.5389
  153SAPE  C31417068   5.921   2.044   8.751 -0.1430  0.3249  0.0328
  153SAPE  H14X17069   5.974   2.114   8.684  0.7464  1.0727  1.4823
  153SAPE  H14Y17070   5.811   2.057   8.761 -0.1916 -0.6693  1.0898
  153SAPE  C31517071   5.951   1.898   8.711  0.2499  0.0873  0.4326
  153SAPE  H15X17072   6.062   1.892   8.718  0.1599  0.0102  2.1941
  153SAPE  H15Y17073   5.922   1.868   8.608  0.5827 -0.1264  0.3985
  153SAPE  C31617074   5.877   1.796   8.804 -0.2817  0.1750  0.4203
  153SAPE  H16X17075   5.772   1.831   8.802 -0.8787 -1.3036  2.2942
  153SAPE  H16Y17076   5.900   1.797   8.912 -0.4386  3.4525  0.5023
  153SAPE  C31717077   5.886   1.656   8.762 -0.0801  0.3399  0.3211
  153SAPE  H17X17078   5.994   1.632   8.765 -0.2888 -0.6030  0.7235
  153SAPE  H17Y17079   5.862   1.649   8.653 -0.8739  0.4946  0.4826
  153SAPE  C31817080   5.793   1.561   8.832  0.6683  0.1593 -0.0336
  153SAPE  H18X17081   5.806   1.574   8.942 -1.4843 -0.9603  0.4142
  153SAPE  H18Y17082   5.815   1.457   8.803 -0.5107  0.2650 -1.4388
  153SAPE  H18Z17083   5.687   1.580   8.804  0.4401 -0.3617  0.4481
  154SAPE     N17084   0.187   2.783  10.411  0.1647 -0.3614  0.2356
  154SAPE   HN117085   0.086   2.807  10.405 -0.1122 -1.5631 -0.3494
  154SAPE   HN217086   0.226   2.833  10.328  0.8242 -1.2892 -0.0304
  154SAPE   HN317087   0.186   2.683  10.382  1.4885  0.0416 -1.3666
  154SAPE   C1217088   0.257   2.840  10.535  0.5221 -0.1197 -0.3372
  154SAPE  H12A17089   0.366   2.819  10.527  1.1166  2.2593  0.6854
  154SAPE  H12B17090   0.216   2.793  10.626  0.1961  0.3519 -0.2348
  154SAPE   C1117091   0.236   2.993  10.549 -0.4088 -0.6541  0.1068
  154SAPE  H11A17092   0.290   3.016  10.643  0.2923  1.8812 -0.8440
  154SAPE  H11B17093   0.128   3.020  10.554 -0.4526 -0.8138  0.0439
  154SAPE     P17094   0.414   3.168  10.462  0.4103 -0.0147  0.5812
  154SAPE   O1317095   0.342   3.287  10.504  0.0330  0.1650  0.5503
  154SAPE   O1417096   0.517   3.128  10.556 -0.4894 -0.2642 -0.3952
  154SAPE   O1217097   0.313   3.053  10.441  0.2047  0.1662  0.4769
  154SAPE   O1117098   0.473   3.190  10.311  0.6669  0.6265 -0.2947
  154SAPE    C117099   0.581   3.115  10.259 -0.3976  0.3328 -0.4401
  154SAPE    HA17100   0.632   3.176  10.182  0.4214  1.0199  0.6158
  154SAPE    HB17101   0.666   3.097  10.329  0.7453  0.3807 -1.7626
  154SAPE    C217102   0.536   2.986  10.201  0.2810 -0.4499  0.3315
  154SAPE    HS17103   0.481   2.919  10.270  0.1096 -2.6527 -1.8046
  154SAPE   O2117104   0.651   2.922  10.143  0.0417  0.2759  0.0875
  154SAPE   C2117105   0.651   2.786  10.124 -0.7222 -0.7427  0.3974
  154SAPE   O2217106   0.567   2.708  10.164 -0.5175 -0.2366  0.2739
  154SAPE   C2217107   0.798   2.746  10.079 -0.0913 -0.0224  0.2709
  154SAPE   H2R17108   0.844   2.827  10.018 -1.3579 -0.5698 -1.4758
  154SAPE   H2S17109   0.846   2.725  10.177 -1.6345  2.4998  1.6549
  154SAPE    C317110   0.428   3.028  10.089 -0.3625 -0.1442  0.1916
  154SAPE    HX17111   0.484   3.103  10.028  3.5951  0.0729  3.6199
  154SAPE    HY17112   0.350   3.090  10.137 -0.8243  0.8426 -1.6973
  154SAPE   O3117113   0.381   2.920  10.005 -0.9012  0.1317 -0.0205
  154SAPE   C3117114   0.279   2.863  10.058  0.5493  0.1428 -0.3144
  154SAPE   O3217115   0.228   2.879  10.172  0.0660 -0.1864  0.1232
  154SAPE   C3217116   0.223   2.761   9.962  0.2062  0.6845  0.0616
  154SAPE   H2X17117   0.122   2.796   9.931  0.3879 -0.5729 -2.0816
  154SAPE   H2Y17118   0.209   2.669  10.023  0.3909 -0.9937 -2.3012
  154SAPE   C2317119   0.803   2.615   9.987 -0.2273  0.1766  0.1569
  154SAPE   H3R17120   0.771   2.523  10.041  2.8119 -1.2308 -0.2008
  154SAPE   H3S17121   0.912   2.599   9.971 -0.1762  0.5885  0.0851
  154SAPE   C2417122   0.720   2.625   9.855  0.8387 -0.0048  0.2504
  154SAPE   H4R17123   0.716   2.733   9.828 -0.9725 -0.2919 -0.7812
  154SAPE   H4S17124   0.612   2.613   9.880  0.3808  1.2918 -0.9748
  154SAPE   C2517125   0.777   2.534   9.753  0.3099  0.0985 -0.5975
  154SAPE   H5R17126   0.868   2.487   9.795  1.5139  3.0338  0.3230
  154SAPE   C2617127   0.732   2.506   9.630 -0.6144 -0.2813 -0.1510
  154SAPE   H6R17128   0.785   2.437   9.563  2.2710  1.8884 -0.2893
  154SAPE   C2717129   0.617   2.576   9.573  1.1992  0.4802 -0.3801
  154SAPE   H7R17130   0.594   2.662   9.640  0.6266  0.1253 -0.1180
  154SAPE   H7S17131   0.522   2.521   9.589  0.9665  1.3239  1.2846
  154SAPE   C2817132   0.609   2.634   9.431  0.3328  0.4733  0.5435
  154SAPE   H8R17133   0.707   2.663   9.389 -0.2285  0.2871 -0.9867
  154SAPE   C2917134   0.497   2.640   9.356 -0.0344 -0.3325 -0.8772
  154SAPE   H9R17135   0.502   2.685   9.256  2.5207  0.4052 -0.4868
  154SAPE  C21017136   0.359   2.590   9.390  0.6678 -0.4387  0.3452
  154SAPE  H10R17137   0.337   2.594   9.499 -3.7420  0.6802 -0.3863
  154SAPE  H10S17138   0.354   2.483   9.359  1.0625 -0.1208 -0.8750
  154SAPE  C21117139   0.259   2.675   9.308 -0.1607 -0.1081  0.1718
  154SAPE  H11R17140   0.199   2.751   9.360 -1.6157  0.3079 -1.9452
  154SAPE  C21217141   0.233   2.666   9.172  0.1007 -0.0319 -0.2885
  154SAPE  H12R17142   0.151   2.726   9.128 -0.1377 -1.7232 -2.2873
  154SAPE  C21317143   0.298   2.569   9.075  0.3412  0.1120  0.3978
  154SAPE  H13R17144   0.232   2.492   9.031  0.7432  0.0501 -0.1064
  154SAPE  H13S17145   0.364   2.500   9.132  1.0653  0.0089 -0.5334
  154SAPE  C21417146   0.374   2.655   8.967  0.1135  0.1681 -0.1042
  154SAPE  H14R17147   0.475   2.694   8.988  1.0770 -0.3355 -3.3979
  154SAPE  C21517148   0.314   2.699   8.854 -0.2259  0.1085 -0.3700
  154SAPE  H15R17149   0.385   2.753   8.790  0.0657 -0.9352 -0.9671
  154SAPE  C21617150   0.172   2.680   8.807  0.4095 -0.2434 -0.2732
  154SAPE  H16R17151   0.114   2.633   8.889 -1.7469 -0.8519 -2.0479
  154SAPE  H16S17152   0.165   2.613   8.719  1.3997 -1.8960  0.8538
  154SAPE  C21717153   0.107   2.816   8.754  0.2405  0.0848  0.1980
  154SAPE  H17R17154   0.143   2.890   8.828 -0.4629 -0.4483  1.1049
  154SAPE  H17S17155  -0.002   2.798   8.766  0.3008  1.2255  3.2545
  154SAPE  C21817156   0.140   2.853   8.611 -0.8542  0.2955  0.0182
  154SAPE  H18R17157   0.116   2.767   8.546 -1.5223 -0.2256  0.9332
  154SAPE  H18S17158   0.249   2.872   8.608 -0.9256  0.6558 -0.6392
  154SAPE  C21917159   0.063   2.978   8.561  0.0808  0.2449  0.2827
  154SAPE  H19R17160   0.098   3.058   8.629  0.2508  0.3777  0.0400
  154SAPE  H19S17161  -0.048   2.982   8.569  0.0087 -0.3231 -0.3228
  154SAPE  C22017162   0.111   3.012   8.414 -0.0587 -0.2597  0.3429
  154SAPE  H20R17163   0.075   3.111   8.379 -1.2451 -0.2895  1.4176
  154SAPE  H20S17164   0.071   2.940   8.341 -0.4720 -0.1175  0.4276
  154SAPE  H20T17165   0.222   3.006   8.412  0.2610  2.8604  1.9816
  154SAPE   C3317166   0.310   2.726   9.834 -0.3590  0.0277  0.5402
  154SAPE   H3X17167   0.410   2.711   9.880 -0.5578  2.9280  2.1505
  154SAPE   H3Y17168   0.312   2.803   9.754 -0.0740 -1.7935 -1.2825
  154SAPE   C3417169   0.259   2.594   9.773  0.1809 -0.6884  0.1188
  154SAPE   H4X17170   0.260   2.513   9.849  0.4467 -0.4945  0.3282
  154SAPE   H4Y17171   0.328   2.570   9.690 -3.0334 -1.6781 -2.4576
  154SAPE   C3517172   0.121   2.599   9.709 -0.2318  0.2782  0.8845
  154SAPE   H5X17173   0.116   2.686   9.640 -4.3374  0.2902  0.9012
  154SAPE   H5Y17174   0.035   2.613   9.779 -0.3991  1.0477  0.5369
  154SAPE   C3617175   0.087   2.468   9.641 -0.8769 -0.2584 -0.1499
  154SAPE   H6X17176   0.126   2.402   9.721 -2.0298  1.1799  1.6848
  154SAPE   H6Y17177   0.155   2.450   9.555  0.4627  0.7227  0.6466
  154SAPE   C3717178  -0.065   2.450   9.624  0.5432 -0.1266  0.7010
  154SAPE   H7X17179  -0.111   2.528   9.560  0.7372 -1.6440 -1.3630
  154SAPE   H7Y17180  -0.111   2.461   9.725  1.7978  0.0645  1.2733
  154SAPE   C3817181  -0.097   2.306   9.580  0.4996 -0.3053 -0.0431
  154SAPE   H8X17182  -0.208   2.311   9.570  0.6656  3.0883 -1.5945
  154SAPE   H8Y17183  -0.075   2.233   9.661  2.8178 -1.1492 -1.3328
  154SAPE   C3917184  -0.042   2.260   9.446 -0.4511  0.5823 -0.5253
  154SAPE   H9X17185  -0.058   2.151   9.438  0.2115  0.0538  3.2181
  154SAPE   H9Y17186   0.064   2.293   9.442 -1.0326  2.7035  0.1909
  154SAPE  C31017187  -0.113   2.313   9.325  0.2826  0.5299 -0.3276
  154SAPE  H10X17188  -0.222   2.310   9.344  0.2001  0.3169 -0.8260
  154SAPE  H10Y17189  -0.094   2.253   9.233  1.0795  1.8499 -1.0572
  154SAPE  C31117190  -0.068   2.449   9.274 -0.6015  0.4300 -0.0936
  154SAPE  H11X17191   0.032   2.422   9.234 -0.8559 -1.5878  0.4744
  154SAPE  H11Y17192  -0.036   2.531   9.341  1.3142  1.9310 -2.6707
  154SAPE  C31217193  -0.153   2.500   9.167  0.2287 -0.3168  0.6418
  154SAPE  H12X17194  -0.129   2.608   9.152  1.3474 -0.6760 -0.3008
  154SAPE  H12Y17195  -0.258   2.482   9.198 -0.2685 -2.2947 -1.9409
  154SAPE  C31317196  -0.127   2.443   9.022 -0.4258 -0.7037 -0.1476
  154SAPE  H13X17197  -0.153   2.335   9.023 -1.3891 -0.4790  0.2504
  154SAPE  H13Y17198  -0.016   2.440   9.020 -0.2852 -0.5419  2.8572
  154SAPE  C31417199  -0.202   2.513   8.904 -0.5638  0.0263 -0.5657
  154SAPE  H14X17200  -0.180   2.468   8.805  1.3202 -0.7578  0.1604
  154SAPE  H14Y17201  -0.157   2.614   8.902 -0.5044  0.0564  0.8370
  154SAPE  C31517202  -0.354   2.511   8.909  0.3531  0.2361  0.0314
  154SAPE  H15X17203  -0.393   2.588   8.980 -0.5253 -0.3307  0.1769
  154SAPE  H15Y17204  -0.383   2.409   8.943  1.5546  0.6382  2.5028
  154SAPE  C31617205  -0.424   2.532   8.777  0.0078  0.4284  0.0982
  154SAPE  H16X17206  -0.410   2.458   8.695 -3.3732  1.3678 -1.5181
  154SAPE  H16Y17207  -0.381   2.627   8.736 -0.1849  1.1649  1.5487
  154SAPE  C31717208  -0.572   2.556   8.797  0.2749  0.5020 -0.6860
  154SAPE  H17X17209  -0.585   2.647   8.859 -0.4381  1.0621 -1.6373
  154SAPE  H17Y17210  -0.614   2.470   8.853  1.7334 -0.5801 -1.2075
  154SAPE  C31817211  -0.646   2.563   8.666 -0.0656 -0.4683  0.7427
  154SAPE  H18X17212  -0.606   2.509   8.577  0.4983  1.8727 -0.5197
  154SAPE  H18Y17213  -0.641   2.669   8.633  1.3585 -0.4401  1.0218
  154SAPE  H18Z17214  -0.752   2.532   8.680 -0.0280 -0.7035  0.5227
  155SAPE     N17215   2.900   4.252  10.855 -0.3980  0.6145 -0.5833
  155SAPE   HN117216   2.816   4.310  10.872 -0.6788 -0.4228  2.1090
  155SAPE   HN217217   2.889   4.154  10.889 -0.9084 -0.2028 -2.9020
  155SAPE   HN317218   2.972   4.300  10.911  0.1974 -0.3053 -0.5319
  155SAPE   C1217219   2.940   4.261  10.711 -0.0854 -0.6723 -0.0164
  155SAPE  H12A17220   2.861   4.236  10.638  0.5292 -0.2704 -0.8388
  155SAPE  H12B17221   3.022   4.188  10.693  1.4083  1.2099 -1.3048
  155SAPE   C1117222   2.984   4.409  10.684 -0.4046 -0.4507 -0.2347
  155SAPE  H11A17223   2.902   4.468  10.728 -1.1404 -0.6653 -1.2719
  155SAPE  H11B17224   2.982   4.427  10.575 -4.2469 -1.5064 -0.4833
  155SAPE     P17225   3.245   4.382  10.687 -0.5117  0.2702  0.1684
  155SAPE   O1317226   3.337   4.493  10.703 -0.5406 -0.0191 -0.0487
  155SAPE   O1417227   3.281   4.257  10.758 -0.1538  0.0048 -0.4019
  155SAPE   O1217228   3.104   4.433  10.750  0.1137 -0.5499 -0.0643
  155SAPE   O1117229   3.223   4.362  10.529  0.6260 -0.1599 -0.3828
  155SAPE    C117230   3.204   4.239  10.466 -0.2104  0.4398 -0.1387
  155SAPE    HA17231   3.285   4.171  10.499  0.1290  0.9424  0.0701
  155SAPE    HB17232   3.109   4.197  10.506 -0.0406  1.5208  1.4978
  155SAPE    C217233   3.210   4.261  10.312 -0.1356  0.3506  0.0797
  155SAPE    HS17234   3.278   4.180  10.276 -0.1008  0.9973 -1.3584
  155SAPE   O2117235   3.242   4.396  10.269  0.5782  0.3099 -0.1002
  155SAPE   C2117236   3.377   4.422  10.274 -0.0812  0.3721  0.3620
  155SAPE   O2217237   3.464   4.332  10.291 -0.1380 -0.1788 -0.2497
  155SAPE   C2217238   3.399   4.576  10.264 -0.5817 -0.0874 -0.1091
  155SAPE   H2R17239   3.302   4.624  10.240 -0.2544  1.1213  0.9100
  155SAPE   H2S17240   3.425   4.618  10.363  0.4779 -2.1092  0.5334
  155SAPE    C317241   3.075   4.214  10.248 -0.2019 -0.1540 -0.3634
  155SAPE    HX17242   2.998   4.269  10.305 -2.0806 -2.5071 -0.4907
  155SAPE    HY17243   3.059   4.107  10.275 -0.1616 -0.1695 -0.4000
  155SAPE   O3117244   3.078   4.250  10.112 -0.2557  0.5394 -0.6090
  155SAPE   C3117245   3.111   4.159  10.025  0.2449  0.6596 -0.1476
  155SAPE   O3217246   3.133   4.043  10.048 -0.3178  0.6397 -0.4357
  155SAPE   C3217247   3.099   4.221   9.889 -0.3727 -0.1443  0.4333
  155SAPE   H2X17248   3.163   4.312   9.892 -1.5115  0.6486  2.4970
  155SAPE   H2Y17249   2.998   4.265   9.871  0.8929  1.9122 -2.4784
  155SAPE   C2317250   3.510   4.623  10.163  0.0103  0.5241  1.1299
  155SAPE   H3R17251   3.607   4.574  10.182 -0.2349 -2.1543 -3.2107
  155SAPE   H3S17252   3.536   4.731  10.171 -1.2655  0.8416  1.2705
  155SAPE   C2417253   3.466   4.597  10.011 -0.2700  0.4287  0.1482
  155SAPE   H4R17254   3.451   4.489   9.993 -1.7278  0.6860 -0.3171
  155SAPE   H4S17255   3.537   4.641   9.937  0.6961 -1.0073  0.1924
  155SAPE   C2517256   3.341   4.676   9.991  0.8559 -0.3303  0.8129
  155SAPE   H5R17257   3.300   4.743  10.068  2.6662 -0.1263  1.6563
  155SAPE   C2617258   3.268   4.671   9.876  1.1132 -0.2073  0.1763
  155SAPE   H6R17259   3.171   4.724   9.880  0.7209 -0.7655 -1.2438
  155SAPE   C2717260   3.291   4.590   9.750  0.1898 -0.8866 -0.3136
  155SAPE   H7R17261   3.195   4.580   9.696 -0.0075 -0.8098  0.0219
  155SAPE   H7S17262   3.316   4.486   9.779 -1.3484 -1.1243  0.2652
  155SAPE   C2817263   3.397   4.646   9.655 -0.3142  0.5386 -0.7632
  155SAPE   H8R17264   3.485   4.676   9.715 -0.5804  0.3741 -0.2823
  155SAPE   C2917265   3.394   4.656   9.523 -0.6986 -0.1813  0.0644
  155SAPE   H9R17266   3.479   4.706   9.474 -0.4483 -0.4781  0.1866
  155SAPE  C21017267   3.269   4.625   9.446 -0.3744 -0.3347 -0.5721
  155SAPE  H10R17268   3.243   4.715   9.387  0.4472 -0.1821 -0.7191
  155SAPE  H10S17269   3.179   4.611   9.510 -0.4298 -0.1051 -0.5992
  155SAPE  C21117270   3.292   4.501   9.380 -0.1348  0.8698 -0.5584
  155SAPE  H11R17271   3.279   4.419   9.452 -3.4554 -0.9931 -2.9815
  155SAPE  C21217272   3.312   4.480   9.248  0.1767  0.4212 -0.4105
  155SAPE  H12R17273   3.328   4.377   9.213 -1.0974 -0.2229  0.7981
  155SAPE  C21317274   3.318   4.586   9.141 -0.5563  0.6034 -0.0477
  155SAPE  H13R17275   3.284   4.685   9.180  0.0826  0.4736  0.8591
  155SAPE  H13S17276   3.233   4.554   9.077 -2.0326  0.3200  1.9508
  155SAPE  C21417277   3.446   4.613   9.078  0.1942 -0.0456  0.3480
  155SAPE  H14R17278   3.494   4.706   9.111 -0.0521 -0.3757  1.6824
  155SAPE  C21517279   3.491   4.528   8.979  0.2799 -1.0257 -1.1006
  155SAPE  H15R17280   3.579   4.576   8.933  0.3062  0.4698  0.4045
  155SAPE  C21617281   3.430   4.405   8.914  0.0031 -0.2774  0.2392
  155SAPE  H16R17282   3.415   4.416   8.805 -1.5630 -0.7494  0.3769
  155SAPE  H16S17283   3.326   4.394   8.952  0.6288 -0.7985  1.9100
  155SAPE  C21717284   3.510   4.274   8.945  0.1724  0.2581  0.7974
  155SAPE  H17R17285   3.438   4.195   8.912  1.5268 -1.8226  2.5090
  155SAPE  H17S17286   3.516   4.283   9.056 -0.2256  0.0073  0.8435
  155SAPE  C21817287   3.645   4.260   8.880  0.3046 -0.4467  0.2453
  155SAPE  H18R17288   3.686   4.193   8.958 -1.3830  1.3904  2.9047
  155SAPE  H18S17289   3.710   4.350   8.888 -0.3393  0.2857 -1.9586
  155SAPE  C21917290   3.655   4.196   8.743  0.1550  0.4721 -0.1010
  155SAPE  H19R17291   3.754   4.203   8.693 -0.0458 -0.9996 -0.7780
  155SAPE  H19S17292   3.585   4.246   8.673 -0.0498  0.7918  0.3340
  155SAPE  C22017293   3.631   4.042   8.738 -0.2632  0.1185 -0.6955
  155SAPE  H20R17294   3.647   3.999   8.637 -2.1227 -1.2642 -0.4562
  155SAPE  H20S17295   3.524   4.023   8.760  0.5511 -0.7562  3.2900
  155SAPE  H20T17296   3.680   3.992   8.824  0.6543  2.5087  0.2293
  155SAPE   C3317297   3.142   4.139   9.760 -0.1509 -1.2254  0.2225
  155SAPE   H3X17298   3.092   4.040   9.760  0.8370 -1.7421 -1.0477
  155SAPE   H3Y17299   3.251   4.119   9.769  0.1354 -0.3721 -1.0352
  155SAPE   C3417300   3.114   4.208   9.628 -0.5383 -1.0536  0.2963
  155SAPE   H4X17301   3.179   4.296   9.611 -2.5284  0.7827  1.6092
  155SAPE   H4Y17302   3.013   4.254   9.620  0.7814  2.0160 -0.0288
  155SAPE   C3517303   3.145   4.103   9.518  0.3537  0.1051  0.0326
  155SAPE   H5X17304   3.077   4.016   9.532 -0.5819  0.5180 -1.6058
  155SAPE   H5Y17305   3.246   4.064   9.538  0.0894  0.5284  2.4464
  155SAPE   C3617306   3.127   4.162   9.376 -0.2110  0.4289  0.3464
  155SAPE   H6X17307   3.197   4.245   9.350 -0.0040 -0.1233 -0.8937
  155SAPE   H6Y17308   3.023   4.198   9.363 -0.7520 -1.3221 -0.3980
  155SAPE   C3717309   3.153   4.052   9.271  0.2237  0.3148 -0.7380
  155SAPE   H7X17310   3.070   3.979   9.284  0.0867  0.8361  2.0300
  155SAPE   H7Y17311   3.248   4.005   9.304  1.1338  2.1730 -0.5403
  155SAPE   C3817312   3.165   4.093   9.123 -0.2309 -0.0411 -0.4215
  155SAPE   H8X17313   3.232   4.180   9.108 -1.7096  1.0203 -1.2340
  155SAPE   H8Y17314   3.064   4.118   9.084 -0.2681 -1.2229 -1.1355
  155SAPE   C3917315   3.215   3.979   9.038  0.3655 -0.1312  0.0601
  155SAPE   H9X17316   3.151   3.890   9.057  1.2382 -1.1191 -1.3917
  155SAPE   H9Y17317   3.315   3.944   9.072  0.5583  0.5140  0.1663
  155SAPE  C31017318   3.205   4.003   8.889 -0.4204  0.4054 -0.3311
  155SAPE  H10X17319   3.287   4.070   8.857  0.1273 -0.6695 -1.2797
  155SAPE  H10Y17320   3.108   4.047   8.858 -0.6037 -0.2237 -0.6711
  155SAPE  C31117321   3.217   3.879   8.798 -0.1590  0.0256 -0.3217
  155SAPE  H11X17322   3.137   3.810   8.833  1.3705 -0.1995  3.1780
  155SAPE  H11Y17323   3.316   3.828   8.788 -0.4608 -0.7427  0.4973
  155SAPE  C31217324   3.188   3.909   8.657 -0.3805 -0.2782 -0.3274
  155SAPE  H12X17325   3.224   3.823   8.596 -0.2743  0.8505 -1.9107
  155SAPE  H12Y17326   3.250   3.993   8.619  0.9003 -0.1463  1.8607
  155SAPE  C31317327   3.041   3.926   8.632 -0.6071 -0.1289  0.4965
  155SAPE  H13X17328   2.980   4.008   8.675 -1.8218 -1.2491  0.9853
  155SAPE  H13Y17329   2.985   3.837   8.668  1.9763 -1.2012  2.1765
  155SAPE  C31417330   3.023   3.935   8.472  0.0698  0.0470  0.3714
  155SAPE  H14X17331   3.043   3.836   8.425  0.2671  0.1846  0.1639
  155SAPE  H14Y17332   3.105   4.001   8.436 -1.4013  2.8162  1.7747
  155SAPE  C31517333   2.891   3.994   8.422  0.1781 -0.2790  0.5170
  155SAPE  H15X17334   2.877   4.096   8.463  0.6360 -0.5528  1.3562
  155SAPE  H15Y17335   2.803   3.932   8.449 -1.0154  1.4896  0.8674
  155SAPE  C31617336   2.896   4.018   8.275 -0.3118 -0.6081  0.4638
  155SAPE  H16X17337   2.933   3.929   8.219 -0.6698 -0.8808  0.6571
  155SAPE  H16Y17338   2.977   4.092   8.259 -0.3148 -0.6304  0.3407
  155SAPE  C31717339   2.774   4.096   8.224 -0.5133 -0.1603  0.1265
  155SAPE  H17X17340   2.799   4.162   8.138  1.0393 -0.0236  0.6479
  155SAPE  H17Y17341   2.752   4.166   8.308  0.0319 -0.6858  0.7161
  155SAPE  C31817342   2.656   4.016   8.183  0.8969  0.0434 -0.5254
  155SAPE  H18X17343   2.617   3.960   8.270  0.5913 -0.2035 -0.8159
  155SAPE  H18Y17344   2.677   3.948   8.097 -0.9552 -0.7376 -0.4128
  155SAPE  H18Z17345   2.575   4.084   8.148 -1.0491 -1.5875  0.5705
  156SAPE     N17346   5.155   3.248  10.770 -0.2995 -0.0147 -0.5360
  156SAPE   HN117347   5.217   3.329  10.789  1.1533 -1.0841 -0.5581
  156SAPE   HN217348   5.093   3.266  10.688 -0.0632  0.6410 -0.5767
  156SAPE   HN317349   5.101   3.241  10.858  0.5299 -1.1853 -0.0908
  156SAPE   C1217350   5.218   3.112  10.767  0.0700 -0.1233  0.7444
  156SAPE  H12A17351   5.295   3.111  10.848 -1.2685  1.7311  2.1321
  156SAPE  H12B17352   5.272   3.121  10.671 -1.0125 -3.0277 -0.2500
  156SAPE   C1117353   5.112   2.998  10.751 -0.0870 -0.7524  0.5074
  156SAPE  H11A17354   5.060   2.983  10.847 -0.2343 -3.3628  0.0802
  156SAPE  H11B17355   5.167   2.904  10.730 -3.9035 -3.3898  1.3363
  156SAPE     P17356   4.934   2.912  10.572 -0.1376 -0.4391  0.2883
  156SAPE   O1317357   4.858   2.836  10.672 -0.1756  0.2841  0.1132
  156SAPE   O1417358   4.855   2.968  10.462 -0.0657 -0.5551 -0.3242
  156SAPE   O1217359   5.013   3.027  10.648 -0.2337  0.0651  0.1913
  156SAPE   O1117360   5.049   2.814  10.520  0.1419 -0.1990 -0.0638
  156SAPE    C117361   5.177   2.854  10.476  0.4952  0.6702 -0.1541
  156SAPE    HA17362   5.212   2.954  10.508  1.8753  0.1091  0.1708
  156SAPE    HB17363   5.249   2.780  10.517  0.4241 -0.4168 -1.8984
  156SAPE    C217364   5.204   2.844  10.323  0.0995 -0.2790 -0.3373
  156SAPE    HS17365   5.307   2.880  10.303 -0.1996 -0.1342 -1.6765
  156SAPE   O2117366   5.102   2.931  10.251  0.3630  0.4963  0.2058
  156SAPE   C2117367   5.129   3.059  10.269 -0.0612  0.1682  0.2855
  156SAPE   O2217368   5.213   3.104  10.340  0.4269 -0.1402 -0.0464
  156SAPE   C2217369   5.045   3.151  10.185  0.1760  0.1991  0.0554
  156SAPE   H2R17370   5.028   3.237  10.254  0.2007  0.8765 -0.7677
  156SAPE   H2S17371   5.098   3.173  10.090  1.1138 -0.0496  0.5068
  156SAPE    C317372   5.198   2.707  10.268 -0.6162  0.0402  0.3437
  156SAPE    HX17373   5.089   2.686  10.268 -1.7305  4.6303  2.4018
  156SAPE    HY17374   5.261   2.635  10.324 -1.4337 -0.5239  0.5586
  156SAPE   O3117375   5.249   2.704  10.136 -0.1864 -0.5163  0.6870
  156SAPE   C3117376   5.205   2.615  10.048  0.3424 -0.0501 -1.0731
  156SAPE   O3217377   5.148   2.512  10.081  0.2946 -0.5844 -0.7705
  156SAPE   C3217378   5.252   2.651   9.905  0.3225 -0.3519 -0.3446
  156SAPE   H2X17379   5.355   2.615   9.886  0.9587 -0.4823  2.8088
  156SAPE   H2Y17380   5.266   2.762   9.908 -1.1367 -0.1327 -0.8171
  156SAPE   C2317381   4.916   3.087  10.129  0.1389 -0.5129  0.4567
  156SAPE   H3R17382   4.847   3.041  10.203 -2.2916 -1.4476 -2.1993
  156SAPE   H3S17383   4.956   3.003  10.068  0.2733  0.6264 -1.1011
  156SAPE   C2417384   4.844   3.190  10.046  0.5934  0.7588  0.5076
  156SAPE   H4R17385   4.903   3.222   9.957 -0.3653 -1.3185 -0.9487
  156SAPE   H4S17386   4.824   3.279  10.110 -1.4914  0.3911  0.4122
  156SAPE   C2517387   4.711   3.132  10.002 -0.7233  0.0274  0.2599
  156SAPE   H5R17388   4.629   3.159  10.069 -2.6144  0.6405 -2.1356
  156SAPE   C2617389   4.688   3.087   9.878  0.3043 -0.7761  0.3682
  156SAPE   H6R17390   4.589   3.045   9.859  1.1127 -1.9196 -1.6425
  156SAPE   C2717391   4.793   3.070   9.771 -0.0909 -0.1631  0.5197
  156SAPE   H7R17392   4.877   3.140   9.787  0.2913 -0.5468  0.2226
  156SAPE   H7S17393   4.750   3.104   9.675 -2.1690 -0.3507  1.3069
  156SAPE   C2817394   4.836   2.923   9.772 -0.8137 -0.0893  0.4946
  156SAPE   H8R17395   4.885   2.882   9.861 -0.2082 -1.8702 -0.6017
  156SAPE   C2917396   4.820   2.837   9.664 -0.4057 -0.0358 -0.0483
  156SAPE   H9R17397   4.866   2.738   9.673  0.6012  0.3224 -0.9724
  156SAPE  C21017398   4.759   2.861   9.533  0.3354 -0.4121 -0.1347
  156SAPE  H10R17399   4.787   2.960   9.491 -0.3784 -0.4986 -0.8378
  156SAPE  H10S17400   4.652   2.863   9.562  0.4947  1.3975  0.4332
  156SAPE  C21117401   4.781   2.748   9.446  0.8569  0.8162  0.6736
  156SAPE  H11R17402   4.829   2.656   9.482 -1.7990 -2.1050 -2.5090
  156SAPE  C21217403   4.760   2.758   9.314 -0.0080 -0.4131 -0.6765
  156SAPE  H12R17404   4.764   2.666   9.254 -0.4329  0.0371 -1.4123
  156SAPE  C21317405   4.705   2.877   9.241  0.2495  0.0272 -0.2586
  156SAPE  H13R17406   4.798   2.906   9.187  1.3721 -1.9904  0.4850
  156SAPE  H13S17407   4.673   2.965   9.301  1.6613  1.0481 -0.9241
  156SAPE  C21417408   4.609   2.845   9.132  0.0825  0.2804  1.0304
  156SAPE  H14R17409   4.568   2.743   9.134 -1.5108  0.9041  2.6836
  156SAPE  C21517410   4.555   2.931   9.045 -0.4049  0.4128  0.1959
  156SAPE  H15R17411   4.480   2.895   8.973  1.4590 -1.3659 -0.9389
  156SAPE  C21617412   4.587   3.078   9.033 -0.4341 -0.3124  0.2563
  156SAPE  H16R17413   4.664   3.108   9.107  1.2469 -3.0639 -0.2306
  156SAPE  H16S17414   4.491   3.134   9.041  0.4618  1.2844  0.3202
  156SAPE  C21717415   4.637   3.108   8.891 -0.1948  0.6568  0.7559
  156SAPE  H17R17416   4.558   3.085   8.817  0.1935 -0.5648  0.7006
  156SAPE  H17S17417   4.728   3.047   8.870  1.1635  2.2691  1.7136
  156SAPE  C21817418   4.657   3.256   8.860 -0.2561  0.3540 -0.1634
  156SAPE  H18R17419   4.734   3.302   8.925 -1.6374  1.0627  1.0147
  156SAPE  H18S17420   4.561   3.303   8.887 -0.6422 -1.4801  1.9338
  156SAPE  C21917421   4.690   3.289   8.722 -0.4641  0.4504 -0.2186
  156SAPE  H19R17422   4.600   3.274   8.659 -1.9700  0.3645  1.8656
  156SAPE  H19S17423   4.766   3.214   8.693 -0.7648 -1.3021  3.0214
  156SAPE  C22017424   4.746   3.440   8.698  0.0106  0.4718 -0.8367
  156SAPE  H20R17425   4.665   3.508   8.732  0.3091 -0.0116  0.9923
  156SAPE  H20S17426   4.775   3.452   8.592 -2.6363 -1.1297 -1.8410
  156SAPE  H20T17427   4.836   3.448   8.764 -0.4263 -0.6575 -0.0573
  156SAPE   C3317428   5.154   2.633   9.790  0.1758 -0.0755 -0.3783
  156SAPE   H3X17429   5.048   2.640   9.825  0.6597  1.0125  0.9599
  156SAPE   H3Y17430   5.168   2.530   9.752 -1.5883 -0.1999 -0.7826
  156SAPE   C3417431   5.189   2.724   9.675 -0.0411  0.6521  0.1482
  156SAPE   H4X17432   5.299   2.744   9.678  1.0417 -4.1208  0.8390
  156SAPE   H4Y17433   5.139   2.822   9.690 -0.3739  0.6667 -0.9463
  156SAPE   C3517434   5.143   2.673   9.537 -0.0615 -0.0568 -0.1166
  156SAPE   H5X17435   5.090   2.760   9.494 -0.7608 -0.6886 -0.5640
  156SAPE   H5Y17436   5.082   2.580   9.540 -0.1557  0.0147  0.1707
  156SAPE   C3617437   5.266   2.645   9.446  0.0531 -0.0728 -0.5732
  156SAPE   H6X17438   5.303   2.541   9.452  1.7801  0.5486  0.3435
  156SAPE   H6Y17439   5.356   2.702   9.476 -0.0761  0.3642 -1.0000
  156SAPE   C3717440   5.223   2.684   9.306 -0.3890 -0.0118  0.2054
  156SAPE   H7X17441   5.188   2.789   9.315  0.4706  0.1628  1.9178
  156SAPE   H7Y17442   5.136   2.621   9.276 -0.6068  0.1481  0.4999
  156SAPE   C3817443   5.335   2.664   9.199  0.6913 -0.4492  0.0334
  156SAPE   H8X17444   5.336   2.559   9.161  0.8214 -0.4515  0.0421
  156SAPE   H8Y17445   5.434   2.667   9.250  0.1205 -0.1832  1.1565
  156SAPE   C3917446   5.317   2.756   9.083  0.1079  0.5043 -0.4043
  156SAPE   H9X17447   5.403   2.747   9.013  0.4174  4.1525 -0.7133
  156SAPE   H9Y17448   5.316   2.858   9.127 -1.8803  0.0560  0.6923
  156SAPE  C31017449   5.174   2.736   9.014  0.2934  0.0743  1.0062
  156SAPE  H10X17450   5.097   2.750   9.093 -1.3285 -1.1160 -0.3154
  156SAPE  H10Y17451   5.164   2.632   8.977  0.9759  0.0569  0.8631
  156SAPE  C31117452   5.136   2.831   8.905  0.2741  0.0596  0.7180
  156SAPE  H11X17453   5.210   2.821   8.823 -0.1865 -0.0702  0.3138
  156SAPE  H11Y17454   5.160   2.931   8.948 -1.0396  1.0858 -0.8016
  156SAPE  C31217455   4.993   2.825   8.847  0.1171 -0.0673  0.4653
  156SAPE  H12X17456   4.918   2.861   8.921  2.1897  1.7293  1.8442
  156SAPE  H12Y17457   4.967   2.721   8.820 -1.1512  0.9175 -2.5629
  156SAPE  C31317458   4.985   2.904   8.714 -0.5097  0.5571  0.0736
  156SAPE  H13X17459   4.890   2.867   8.670  0.4583 -4.0111  1.2227
  156SAPE  H13Y17460   5.070   2.871   8.651  0.7894  0.6181  1.7044
  156SAPE  C31417461   4.997   3.052   8.744  0.3117  0.2772 -0.5892
  156SAPE  H14X17462   5.082   3.072   8.813 -1.7571 -0.6845  2.4305
  156SAPE  H14Y17463   4.905   3.086   8.797 -0.4203 -1.0634 -0.9518
  156SAPE  C31517464   5.018   3.123   8.616  0.5976 -0.0977  0.7861
  156SAPE  H15X17465   4.985   3.228   8.631 -0.1397 -0.2459  0.2793
  156SAPE  H15Y17466   4.948   3.085   8.539  0.5861  1.7794 -0.1743
  156SAPE  C31617467   5.155   3.128   8.559  0.3074  0.2890 -0.1965
  156SAPE  H16X17468   5.210   3.033   8.544  2.6133  1.5846 -0.5389
  156SAPE  H16Y17469   5.214   3.174   8.641  0.1560  2.5514 -1.2744
  156SAPE  C31717470   5.155   3.226   8.439 -0.9354  0.7477  0.4868
  156SAPE  H17X17471   5.074   3.210   8.364 -0.1586  1.8494 -0.6377
  156SAPE  H17Y17472   5.250   3.202   8.387 -1.4026  1.1095 -0.5758
  156SAPE  C31817473   5.148   3.372   8.471 -0.0853 -0.1551 -0.2766
  156SAPE  H18X17474   5.217   3.399   8.554  1.1707 -3.0503 -0.2462
  156SAPE  H18Y17475   5.044   3.404   8.497 -0.2447  0.7410 -1.9009
  156SAPE  H18Z17476   5.186   3.425   8.381  2.0734  1.7169  1.6167
  157SAPE     N17477   6.634   3.599  10.483 -0.0011  0.6108 -0.3985
  157SAPE   HN117478   6.683   3.509  10.465  0.0635  0.1261  1.9223
  157SAPE   HN217479   6.537   3.577  10.453  0.0322 -1.1579  0.6330
  157SAPE   HN317480   6.675   3.669  10.419 -1.8144  1.8405 -0.2696
  157SAPE   C1217481   6.648   3.628  10.627 -0.4130  0.0754 -0.2576
  157SAPE  H12A17482   6.567   3.698  10.657  0.2360  0.3093  1.0324
  157SAPE  H12B17483   6.747   3.678  10.637 -1.3669  2.0009 -0.0235
  157SAPE   C1117484   6.636   3.500  10.717 -0.2433  0.3181  0.3711
  157SAPE  H11A17485   6.663   3.521  10.823 -0.1082  3.1313 -0.1453
  157SAPE  H11B17486   6.722   3.439  10.681 -0.1730 -0.6293  2.0413
  157SAPE     P17487   6.415   3.376  10.801 -0.2044 -0.3205  0.2469
  157SAPE   O1317488   6.473   3.263  10.876 -0.9388 -0.7139  0.1095
  157SAPE   O1417489   6.366   3.484  10.895  0.2689 -0.4186 -0.2475
  157SAPE   O1217490   6.520   3.426  10.693 -0.3600 -0.0502 -0.4291
  157SAPE   O1117491   6.286   3.320  10.719  0.3320 -0.0225  0.0529
  157SAPE    C117492   6.226   3.403  10.620  0.0533  0.2312 -0.9811
  157SAPE    HA17493   6.119   3.418  10.645  0.5353  2.4218  0.0028
  157SAPE    HB17494   6.264   3.507  10.625 -0.3113  0.3016  2.1601
  157SAPE    C217495   6.234   3.336  10.481  0.6306  1.0580  0.1800
  157SAPE    HS17496   6.338   3.307  10.457  0.8128  0.9804  1.0267
  157SAPE   O2117497   6.199   3.433  10.380  0.3575 -0.0619 -0.0171
  157SAPE   C2117498   6.297   3.513  10.340 -0.7345 -0.7616 -0.5006
  157SAPE   O2217499   6.412   3.509  10.385 -0.2222 -0.6027 -0.2350
  157SAPE   C2217500   6.248   3.614  10.234 -0.0885  0.3058  0.0100
  157SAPE   H2R17501   6.175   3.562  10.169  1.3817 -0.2112 -1.3077
  157SAPE   H2S17502   6.190   3.685  10.297 -0.5681 -0.5792  0.5787
  157SAPE    C317503   6.141   3.212  10.467  0.0972  0.3521 -0.4403
  157SAPE    HX17504   6.034   3.242  10.456  0.2753  0.3331 -2.8090
  157SAPE    HY17505   6.156   3.144  10.553  6.0275  1.1268 -0.4803
  157SAPE   O3117506   6.181   3.134  10.354 -0.5524 -0.0664  0.7876
  157SAPE   C3117507   6.129   3.172  10.235 -0.2466 -0.0306  0.4959
  157SAPE   O3217508   6.039   3.254  10.221 -0.1543  0.4713 -0.3598
  157SAPE   C3217509   6.202   3.103  10.112 -0.2966  0.1040 -0.0141
  157SAPE   H2X17510   6.211   2.993  10.118  1.3535  0.2766  3.0403
  157SAPE   H2Y17511   6.306   3.142  10.124 -1.3088  2.7058  1.1943
  157SAPE   C2317512   6.367   3.680  10.154  0.0870 -0.1761  0.2387
  157SAPE   H3R17513   6.431   3.737  10.225 -0.0998  2.3064 -1.4622
  157SAPE   H3S17514   6.314   3.754  10.090  2.1620  1.3654  0.1887
  157SAPE   C2417515   6.464   3.571  10.094  0.0419  0.6105  0.5702
  157SAPE   H4R17516   6.410   3.485  10.050 -0.5091  0.9746  0.5247
  157SAPE   H4S17517   6.520   3.538  10.184  0.9841 -0.0920 -0.2502
  157SAPE   C2517518   6.547   3.638   9.991  0.4792  0.4539 -0.2030
  157SAPE   H5R17519   6.654   3.651  10.015  1.2770 -1.9436 -2.1514
  157SAPE   C2617520   6.511   3.657   9.863 -0.5876  0.4662  0.0600
  157SAPE   H6R17521   6.569   3.729   9.803  1.1505  0.1646  1.3017
  157SAPE   C2717522   6.372   3.610   9.814  0.3966  0.2467 -0.2064
  157SAPE   H7R17523   6.348   3.681   9.731 -0.9784 -0.0738 -0.1127
  157SAPE   H7S17524   6.299   3.641   9.892 -0.4720 -1.5251 -0.2490
  157SAPE   C2817525   6.348   3.465   9.773  0.2771 -0.3674 -0.7129
  157SAPE   H8R17526   6.333   3.397   9.859 -0.6164  1.1387  0.3661
  157SAPE   C2917527   6.348   3.417   9.651 -0.4209 -0.2979  0.0691
  157SAPE   H9R17528   6.326   3.310   9.631  1.3864 -0.3808 -1.8502
  157SAPE  C21017529   6.369   3.505   9.526  0.4690  0.5374 -0.2670
  157SAPE  H10R17530   6.478   3.524   9.527  0.8202 -1.0938 -2.1044
  157SAPE  H10S17531   6.300   3.592   9.537 -2.0258 -1.4233  0.8205
  157SAPE  C21117532   6.336   3.426   9.401 -0.1507  0.4813  0.1648
  157SAPE  H11R17533   6.293   3.325   9.410  0.2943  0.3486  0.9348
  157SAPE  C21217534   6.357   3.470   9.272  0.0715 -0.6838 -0.0143
  157SAPE  H12R17535   6.330   3.402   9.190 -1.1515 -0.3528  0.0800
  157SAPE  C21317536   6.406   3.601   9.224 -1.2714 -0.6402 -0.5058
  157SAPE  H13R17537   6.398   3.683   9.298  0.1129  1.2506 -2.3139
  157SAPE  H13S17538   6.345   3.652   9.147 -0.2435  1.3411 -0.0810
  157SAPE  C21417539   6.544   3.599   9.173 -0.0232  0.1907  0.3105
  157SAPE  H14R17540   6.613   3.653   9.239  0.8151  1.3419 -1.4143
  157SAPE  C21517541   6.581   3.556   9.051  0.5834  0.1009 -0.4178
  157SAPE  H15R17542   6.686   3.563   9.017 -0.0756 -0.7334 -2.8732
  157SAPE  C21617543   6.492   3.498   8.940  0.8682  0.1108 -0.0880
  157SAPE  H16R17544   6.393   3.464   8.980  0.0744  2.4060  0.0637
  157SAPE  H16S17545   6.550   3.416   8.894 -0.9235 -1.2155 -0.1130
  157SAPE  C21717546   6.464   3.618   8.846 -0.0269  0.7123 -0.3861
  157SAPE  H17R17547   6.561   3.655   8.807  1.2142  1.4505  3.0166
  157SAPE  H17S17548   6.408   3.695   8.904 -1.8156 -0.8954  0.1278
  157SAPE  C21817549   6.367   3.595   8.730 -0.0030  0.1192 -0.5715
  157SAPE  H18R17550   6.374   3.676   8.654 -1.5178 -1.1610 -2.1518
  157SAPE  H18S17551   6.260   3.587   8.761  0.3205 -1.5894  0.1922
  157SAPE  C21917552   6.405   3.469   8.646  0.1048 -0.5640  0.2785
  157SAPE  H19R17553   6.389   3.378   8.708 -2.0925  0.9190  2.0750
  157SAPE  H19S17554   6.515   3.470   8.631 -0.1690  0.3548 -2.1331
  157SAPE  C22017555   6.337   3.444   8.512  0.7442 -0.3188 -0.6718
  157SAPE  H20R17556   6.369   3.526   8.444 -0.0056  1.2452  0.7739
  157SAPE  H20S17557   6.227   3.438   8.527  1.0793 -1.2052  1.9372
  157SAPE  H20T17558   6.351   3.340   8.475 -1.6382 -0.9018 -0.1477
  157SAPE   C3317559   6.150   3.147   9.967  0.1634 -0.2762  0.6781
  157SAPE   H3X17560   6.162   3.257   9.957  1.1534 -0.3086  1.3413
  157SAPE   H3Y17561   6.043   3.119   9.964  0.7874 -3.0415  0.9122
  157SAPE   C3417562   6.221   3.079   9.847  0.6104  0.2926 -0.4777
  157SAPE   H4X17563   6.222   2.971   9.873 -0.5100 -0.0071 -1.6144
  157SAPE   H4Y17564   6.331   3.096   9.849  0.7336 -0.3010  2.2644
  157SAPE   C3517565   6.157   3.081   9.709  0.4451  0.6030 -0.2342
  157SAPE   H5X17566   6.164   3.186   9.670  0.6064  0.1324 -1.5347
  157SAPE   H5Y17567   6.053   3.046   9.726  1.0054 -1.2200 -0.4000
  157SAPE   C3617568   6.205   2.973   9.615  0.4790  0.0603 -0.5963
  157SAPE   H6X17569   6.186   2.875   9.664 -1.2560  0.4391 -0.4471
  157SAPE   H6Y17570   6.315   2.975   9.600  0.8415 -1.0422  1.4375
  157SAPE   C3717571   6.127   2.959   9.482  1.0670 -0.2955 -0.0768
  157SAPE   H7X17572   6.027   3.008   9.486  1.6467  0.8785  0.9230
  157SAPE   H7Y17573   6.118   2.852   9.453  0.4073 -0.3397  0.3003
  157SAPE   C3817574   6.195   3.044   9.374 -0.2736 -0.4439  0.2020
  157SAPE   H8X17575   6.300   3.060   9.407 -1.0098  3.8113  1.1826
  157SAPE   H8Y17576   6.162   3.150   9.370 -0.6574 -0.5361  0.7188
  157SAPE   C3917577   6.195   2.972   9.241 -0.0530  0.0730 -0.0642
  157SAPE   H9X17578   6.247   2.875   9.254 -0.9768 -0.6479 -1.5527
  157SAPE   H9Y17579   6.261   3.034   9.177  2.4548 -0.1662  2.1222
  157SAPE  C31017580   6.053   2.960   9.189 -0.2062 -0.5337  0.0295
  157SAPE  H10X17581   6.011   3.060   9.162 -2.2412 -0.5790  2.6073
  157SAPE  H10Y17582   5.974   2.921   9.256  0.3617  1.5627  2.0401
  157SAPE  C31117583   6.052   2.877   9.057  0.1602 -0.2199 -0.3142
  157SAPE  H11X17584   6.107   2.782   9.077 -0.0469 -0.4281 -0.7062
  157SAPE  H11Y17585   6.114   2.914   8.973  0.5688  0.5931  0.3378
  157SAPE  C31217586   5.909   2.824   9.022 -0.0224  0.0848  0.0751
  157SAPE  H12X17587   5.835   2.905   9.006  0.4478  0.1700 -1.7986
  157SAPE  H12Y17588   5.867   2.768   9.109 -1.6788 -0.9854 -1.3502
  157SAPE  C31317589   5.900   2.733   8.898  0.0702  0.0029 -0.6152
  157SAPE  H13X17590   5.954   2.638   8.920 -0.6089  0.2316  2.5055
  157SAPE  H13Y17591   5.955   2.775   8.811 -2.4979  1.1040 -1.8249
  157SAPE  C31417592   5.755   2.700   8.862  0.1974  0.4268 -0.6014
  157SAPE  H14X17593   5.695   2.777   8.808 -0.6574 -0.0385 -0.3386
  157SAPE  H14Y17594   5.693   2.687   8.953  0.3459  0.6747 -0.4653
  157SAPE  C31517595   5.745   2.577   8.770 -0.9072  0.0462  0.2151
  157SAPE  H15X17596   5.767   2.493   8.839 -1.6996  0.3954  0.9037
  157SAPE  H15Y17597   5.818   2.584   8.686  0.7923  0.2536  1.6504
  157SAPE  C31617598   5.613   2.531   8.706 -0.6365  0.2675  0.1188
  157SAPE  H16X17599   5.575   2.620   8.649  0.2431  0.0968 -0.7578
  157SAPE  H16Y17600   5.550   2.489   8.787  1.6681  1.3123  2.5817
  157SAPE  C31717601   5.626   2.426   8.595 -0.2978 -0.8133  0.3339
  157SAPE  H17X17602   5.677   2.333   8.628  0.2073 -1.4485 -2.0241
  157SAPE  H17Y17603   5.682   2.474   8.512  0.4097  0.5499  1.5714
  157SAPE  C31817604   5.480   2.390   8.544 -0.0895 -0.4353 -0.3250
  157SAPE  H18X17605   5.416   2.480   8.530 -0.1520 -0.3112  0.7031
  157SAPE  H18Y17606   5.427   2.330   8.621  1.2571 -0.8242  0.3122
  157SAPE  H18Z17607   5.484   2.337   8.446  0.1659  0.0471 -0.5812
  158SAPE     N17608   0.334   0.191  10.390 -0.2421 -0.0141  0.7912
  158SAPE   HN117609   0.429   0.189  10.433  0.0325  0.3460  0.2184
  158SAPE   HN217610   0.284   0.276  10.421 -1.7523 -0.3900 -0.4754
  158SAPE   HN317611   0.283   0.104  10.415 -0.1545 -0.2746  0.1029
  158SAPE   C1217612   0.330   0.186  10.240  0.1735  0.9275 -0.0108
  158SAPE  H12A17613   0.372   0.086  10.216 -1.8542 -0.1816  0.8246
  158SAPE  H12B17614   0.388   0.268  10.194 -0.1262 -0.2059 -2.6073
  158SAPE   C1117615   0.182   0.185  10.203  0.0911 -1.1290 -0.8731
  158SAPE  H11A17616   0.125   0.090  10.195 -2.6379  0.2099  0.8498
  158SAPE  H11B17617   0.198   0.225  10.100  1.3607  2.5595  0.5832
  158SAPE     P17618   0.125   0.440  10.278  0.2208  0.3047 -0.4198
  158SAPE   O1317619  -0.011   0.504  10.261 -0.3398  0.4849  0.0799
  158SAPE   O1417620   0.198   0.474  10.401 -0.2384  0.4702  0.1511
  158SAPE   O1217621   0.103   0.276  10.274  0.3172 -0.0106  0.2040
  158SAPE   O1117622   0.215   0.472  10.153  0.4646  0.0825  0.1609
  158SAPE    C117623   0.301   0.585  10.151  0.5155  0.1906  0.1774
  158SAPE    HA17624   0.265   0.670  10.213  1.3252  0.2279  0.6152
  158SAPE    HB17625   0.386   0.556  10.216  0.3268 -0.0297  0.3304
  158SAPE    C217626   0.334   0.627  10.001 -0.2019  0.2009  0.1048
  158SAPE    HS17627   0.386   0.725  10.012  1.5459 -0.7472  0.7040
  158SAPE   O2117628   0.209   0.631   9.920  0.5520  0.4159 -0.0780
  158SAPE   C2117629   0.157   0.758   9.936  0.2496  0.1452 -0.5025
  158SAPE   O2217630   0.196   0.849  10.008  0.1504 -0.3872  0.3559
  158SAPE   C2217631   0.035   0.781   9.847 -0.0882  0.2617 -0.2350
  158SAPE   H2R17632  -0.009   0.680   9.828 -1.2590  1.0469 -1.9739
  158SAPE   H2S17633  -0.046   0.836   9.898 -0.1750  0.1018 -0.1977
  158SAPE    C317634   0.441   0.545   9.927 -0.2583 -0.5359  0.3040
  158SAPE    HX17635   0.415   0.437   9.936 -1.3723 -0.1589  2.0461
  158SAPE    HY17636   0.537   0.561   9.981 -1.2449 -0.2791  2.0320
  158SAPE   O3117637   0.449   0.590   9.793 -0.5951 -0.3325 -0.1889
  158SAPE   C3117638   0.388   0.516   9.698  0.4112 -0.8505 -0.6990
  158SAPE   O3217639   0.317   0.418   9.713 -0.6164  0.0556 -0.6008
  158SAPE   C3217640   0.416   0.579   9.566  0.1494  0.4518  0.0415
  158SAPE   H2X17641   0.488   0.663   9.575 -0.8532  1.5655 -1.7836
  158SAPE   H2Y17642   0.321   0.635   9.551 -0.1611  0.3138  1.3513
  158SAPE   C2317643   0.072   0.861   9.715  0.3499  0.2689  0.0386
  158SAPE   H3R17644   0.173   0.837   9.676  0.5512 -1.8837  1.6730
  158SAPE   H3S17645   0.071   0.963   9.760 -0.5041 -0.1799  1.0825
  158SAPE   C2417646  -0.033   0.839   9.601 -0.0512 -0.0993  0.1254
  158SAPE   H4R17647  -0.132   0.824   9.649 -0.2486 -2.6518 -0.8998
  158SAPE   H4S17648  -0.027   0.740   9.551 -3.3583  0.3894 -1.5258
  158SAPE   C2517649  -0.024   0.951   9.503  0.2068  0.7201  0.6585
  158SAPE   H5R17650  -0.055   1.049   9.542  0.5702  0.0307  2.7702
  158SAPE   C2617651   0.027   0.940   9.380  0.3831 -0.0839 -0.9041
  158SAPE   H6R17652   0.035   1.022   9.308  0.2917 -0.2451 -1.0987
  158SAPE   C2717653   0.074   0.810   9.315 -0.4843  0.0286 -0.0916
  158SAPE   H7R17654   0.162   0.759   9.359 -1.7666 -1.2451  1.0498
  158SAPE   H7S17655   0.123   0.843   9.220  1.2458 -2.0506 -0.0017
  158SAPE   C2817656  -0.020   0.698   9.293  0.3013  0.3195  0.6573
  158SAPE   H8R17657  -0.057   0.638   9.378  1.0433 -1.1248  0.0038
  158SAPE   C2917658  -0.070   0.669   9.172  0.1245 -0.2803 -0.6932
  158SAPE   H9R17659  -0.125   0.574   9.172  0.1125 -0.2847 -1.5438
  158SAPE  C21017660  -0.045   0.742   9.045 -0.1311 -0.6249  0.3924
  158SAPE  H10R17661   0.059   0.730   9.005 -1.5467  1.1708 -4.5671
  158SAPE  H10S17662  -0.057   0.850   9.064  2.4778 -0.0383 -0.7824
  158SAPE  C21117663  -0.137   0.699   8.930 -0.2328  0.3481 -0.0238
  158SAPE  H11R17664  -0.242   0.690   8.958  0.0036  1.6891  1.4219
  158SAPE  C21217665  -0.101   0.697   8.795  0.2407 -1.1399 -0.1366
  158SAPE  H12R17666  -0.185   0.669   8.729 -0.2332  1.3828 -0.6801
  158SAPE  C21317667   0.029   0.733   8.735  0.5930  0.1913 -0.2278
  158SAPE  H13R17668   0.108   0.682   8.794  1.1174  1.3485  0.1015
  158SAPE  H13S17669   0.048   0.842   8.739  1.6370  0.0920 -1.7479
  158SAPE  C21417670   0.024   0.710   8.590  0.0612  0.3919 -0.6113
  158SAPE  H14R17671   0.097   0.634   8.555 -1.0724 -0.7096 -0.6474
  158SAPE  C21517672  -0.050   0.777   8.497 -0.2032  0.7028  0.5183
  158SAPE  H15R17673  -0.034   0.752   8.391 -0.5364  1.3078  0.3175
  158SAPE  C21617674  -0.156   0.876   8.520 -0.4011  0.0604 -0.3624
  158SAPE  H16R17675  -0.153   0.962   8.450  1.4468  0.7829  0.5291
  158SAPE  H16S17676  -0.150   0.917   8.624  2.0074 -4.7129  1.7029
  158SAPE  C21717677  -0.297   0.818   8.498 -0.9597  0.3558  0.1289
  158SAPE  H17R17678  -0.311   0.732   8.568 -2.2975  1.9371  1.9053
  158SAPE  H17S17679  -0.323   0.783   8.396  0.4521 -0.4343  0.0072
  158SAPE  C21817680  -0.402   0.927   8.526  1.0661  0.2213 -0.2467
  158SAPE  H18R17681  -0.451   0.958   8.432  0.9486  0.2716 -0.1677
  158SAPE  H18S17682  -0.372   1.018   8.582  0.6417  0.5465 -0.5449
  158SAPE  C21917683  -0.529   0.873   8.598 -0.0378 -0.6791  0.6122
  158SAPE  H19R17684  -0.533   0.765   8.570  1.8221 -0.2487 -1.6572
  158SAPE  H19S17685  -0.620   0.928   8.565 -0.7894 -1.0005  2.0747
  158SAPE  C22017686  -0.521   0.885   8.750  0.0271 -0.0968 -0.1127
  158SAPE  H20R17687  -0.491   0.987   8.783 -0.8911 -0.4905  2.1329
  158SAPE  H20S17688  -0.435   0.828   8.790  0.8549  0.2540 -1.3190
  158SAPE  H20T17689  -0.608   0.851   8.810  0.9155  0.5989  1.6430
  158SAPE   C3317690   0.421   0.470   9.451 -0.9079 -0.7155  0.3468
  158SAPE   H3X17691   0.340   0.396   9.465 -0.8827 -0.8060  0.0240
  158SAPE   H3Y17692   0.518   0.415   9.457 -1.0684 -1.4944 -2.5901
  158SAPE   C3417693   0.419   0.520   9.307 -0.2268 -0.1402 -0.4832
  158SAPE   H4X17694   0.516   0.572   9.290  1.1731 -2.3675  0.2498
  158SAPE   H4Y17695   0.332   0.587   9.292 -0.8974 -1.1958 -1.4202
  158SAPE   C3517696   0.426   0.410   9.202 -0.2360 -0.2573 -0.4290
  158SAPE   H5X17697   0.388   0.463   9.113  0.4835  0.4341 -0.3342
  158SAPE   H5Y17698   0.355   0.326   9.222  1.1491 -0.9730  1.9226
  158SAPE   C3617699   0.566   0.364   9.166  0.1750  0.2917  0.1267
  158SAPE   H6X17700   0.619   0.325   9.255  0.4556 -1.4655 -0.7581
  158SAPE   H6Y17701   0.625   0.448   9.123  0.9732 -0.6907 -0.7615
  158SAPE   C3717702   0.570   0.257   9.059 -0.2332 -0.0859 -0.0248
  158SAPE   H7X17703   0.509   0.175   9.101 -1.0305 -1.0518 -2.7973
  158SAPE   H7Y17704   0.675   0.221   9.049  0.3053  1.6257 -1.1817
  158SAPE   C3817705   0.533   0.299   8.916  0.7137 -0.6291 -0.2110
  158SAPE   H8X17706   0.612   0.363   8.872  0.3676 -1.0796 -1.5142
  158SAPE   H8Y17707   0.435   0.352   8.920  0.5142 -1.0406  1.9365
  158SAPE   C3917708   0.493   0.184   8.825 -0.5988  0.1805 -0.2605
  158SAPE   H9X17709   0.389   0.156   8.852 -0.1105 -0.9251  0.5694
  158SAPE   H9Y17710   0.555   0.097   8.856  0.3563  0.5023 -1.1739
  158SAPE  C31017711   0.509   0.200   8.674 -0.5399 -0.4589  0.0677
  158SAPE  H10X17712   0.455   0.289   8.636  1.2069  0.5932 -0.0323
  158SAPE  H10Y17713   0.472   0.107   8.626  1.0651 -0.1329 -1.9185
  158SAPE  C31117714   0.654   0.226   8.635  0.2438  0.0071  0.4435
  158SAPE  H11X17715   0.712   0.144   8.684 -1.2480 -0.3889  1.6101
  158SAPE  H11Y17716   0.685   0.326   8.673  1.1307 -1.1076  2.8801
  158SAPE  C31217717   0.680   0.220   8.480 -0.1926  0.3986 -0.2413
  158SAPE  H12X17718   0.642   0.129   8.427  0.4316 -0.7728  1.2494
  158SAPE  H12Y17719   0.790   0.209   8.471 -0.3601  0.0341 -2.4117
  158SAPE  C31317720   0.645   0.351   8.407 -0.4108  0.1811  0.8090
  158SAPE  H13X17721   0.705   0.431   8.456 -1.1865  1.0095  0.4297
  158SAPE  H13Y17722   0.544   0.387   8.437  0.2563  1.1740  1.9512
  158SAPE  C31417723   0.660   0.360   8.254  0.2316  0.0241 -0.1274
  158SAPE  H14X17724   0.587   0.286   8.215 -0.1793  0.3994 -0.0763
  158SAPE  H14Y17725   0.756   0.315   8.221 -0.5657 -2.7734  1.1279
  158SAPE  C31517726   0.620   0.498   8.205  0.0331 -0.3302 -0.7415
  158SAPE  H15X17727   0.523   0.523   8.253  0.3247 -2.1954  0.9516
  158SAPE  H15Y17728   0.599   0.495   8.096 -2.5529 -2.0902 -0.2980
  158SAPE  C31617729   0.732   0.602   8.226 -0.5911  0.0215  0.4435
  158SAPE  H16X17730   0.810   0.569   8.154 -1.2762  0.3244 -0.4603
  158SAPE  H16Y17731   0.767   0.597   8.331 -0.4967  0.1853  0.4192
  158SAPE  C31717732   0.698   0.741   8.192 -0.6743  0.3449 -0.4878
  158SAPE  H17X17733   0.625   0.779   8.267 -1.7259  1.0908 -1.8386
  158SAPE  H17Y17734   0.656   0.745   8.089  2.0023  1.0146 -1.6619
  158SAPE  C31817735   0.818   0.834   8.180 -0.7311 -0.1259 -0.0082
  158SAPE  H18X17736   0.894   0.819   8.260 -2.2688  0.1360  1.5636
  158SAPE  H18Y17737   0.796   0.942   8.169  3.4970  0.8055 -1.1973
  158SAPE  H18Z17738   0.870   0.813   8.084  1.0849  1.7202  0.4753
  159SAPE     N17739   5.066   3.184   6.281 -0.2815  0.6864 -0.3530
  159SAPE   HN117740   5.137   3.174   6.357 -0.7780  2.7792  0.4517
  159SAPE   HN217741   5.031   3.280   6.296 -0.6613  0.5607 -0.4252
  159SAPE   HN317742   4.988   3.115   6.280  2.5719 -2.9926  2.0607
  159SAPE   C1217743   5.148   3.187   6.152 -0.3622  0.0878  0.0692
  159SAPE  H12A17744   5.080   3.222   6.071  0.7877 -0.6809 -1.2792
  159SAPE  H12B17745   5.183   3.083   6.131 -2.2200 -0.5115 -0.2480
  159SAPE   C1117746   5.270   3.275   6.172 -0.1080 -0.4947 -0.4971
  159SAPE  H11A17747   5.279   3.324   6.072  0.9524 -0.9232 -0.6219
  159SAPE  H11B17748   5.356   3.205   6.183  0.1435 -0.6977 -2.9687
  159SAPE     P17749   5.391   3.433   6.337 -0.2520  0.0855  0.5056
  159SAPE   O1317750   5.493   3.440   6.226  0.1282  0.0714 -0.5853
  159SAPE   O1417751   5.344   3.559   6.393  0.1697  0.3808  0.3462
  159SAPE   O1217752   5.259   3.373   6.281 -0.1003  0.0335  0.7830
  159SAPE   O1117753   5.418   3.319   6.446  0.0839 -0.6135  0.9196
  159SAPE    C117754   5.544   3.320   6.510  0.2537 -0.2016 -0.1848
  159SAPE    HA17755   5.617   3.284   6.435  1.5904  3.4481 -0.8641
  159SAPE    HB17756   5.582   3.424   6.519 -1.2397  0.4988 -1.5576
  159SAPE    C217757   5.538   3.248   6.646 -0.2766 -0.5866  0.0946
  159SAPE    HS17758   5.639   3.253   6.692 -1.2405 -0.4738  2.3254
  159SAPE   O2117759   5.489   3.112   6.636  0.2577  0.4103 -0.7303
  159SAPE   C2117760   5.593   3.025   6.613  0.3868  0.2233 -0.2849
  159SAPE   O2217761   5.708   3.056   6.604  0.5614 -0.5600 -0.9451
  159SAPE   C2217762   5.542   2.885   6.575  0.1393  0.1651 -0.5715
  159SAPE   H2R17763   5.431   2.882   6.587  0.2873  1.2261  1.6486
  159SAPE   H2S17764   5.568   2.869   6.468  1.4464 -0.4436 -0.1791
  159SAPE    C317765   5.450   3.323   6.751 -0.3906  0.0250  0.0438
  159SAPE    HX17766   5.345   3.299   6.721  0.2624 -2.1710 -0.7217
  159SAPE    HY17767   5.457   3.432   6.731 -1.2956  0.0496 -0.2080
  159SAPE   O3117768   5.487   3.290   6.883 -0.6790 -1.2266 -0.0517
  159SAPE   C3117769   5.402   3.212   6.958 -0.0915  0.3227  0.5088
  159SAPE   O3217770   5.300   3.154   6.916 -0.5317 -0.6108 -0.6378
  159SAPE   C3217771   5.464   3.185   7.094 -0.1333 -0.1148 -0.2329
  159SAPE   H2X17772   5.499   3.281   7.137  1.7128 -0.5093 -0.7772
  159SAPE   H2Y17773   5.558   3.129   7.080  0.5303  0.5051  1.4563
  159SAPE   C2317774   5.595   2.769   6.659  0.2566 -0.3980 -0.7504
  159SAPE   H3R17775   5.705   2.765   6.642  0.1335 -1.1514 -1.4333
  159SAPE   H3S17776   5.563   2.669   6.625 -1.4892  0.0579 -0.5489
  159SAPE   C2417777   5.564   2.787   6.809 -0.1302 -0.3450 -0.0090
  159SAPE   H4R17778   5.455   2.779   6.830  0.1594  0.9040  2.2615
  159SAPE   H4S17779   5.593   2.890   6.839  1.0324 -0.7810  0.4081
  159SAPE   C2517780   5.641   2.689   6.895  0.0867 -0.6336  0.4276
  159SAPE   H5R17781   5.651   2.587   6.853 -2.0463 -0.2901 -1.0220
  159SAPE   C2617782   5.697   2.724   7.008  0.3048  0.9304 -0.0355
  159SAPE   H6R17783   5.746   2.648   7.071 -0.8271 -1.9841 -2.4272
  159SAPE   C2717784   5.694   2.858   7.069 -0.4852 -0.5551  0.5936
  159SAPE   H7R17785   5.672   2.839   7.176  1.8868 -0.6375  1.1219
  159SAPE   H7S17786   5.607   2.917   7.034 -1.4311 -1.6929  0.9460
  159SAPE   C2817787   5.835   2.922   7.048  0.1548 -0.0254 -0.5458
  159SAPE   H8R17788   5.889   2.884   6.960 -2.1385 -1.6919 -1.3125
  159SAPE   C2917789   5.887   3.013   7.136  0.9147 -0.5245  0.3751
  159SAPE   H9R17790   5.988   3.049   7.114  0.7902 -1.2308 -1.5268
  159SAPE  C21017791   5.824   3.077   7.257 -0.2784  0.5047 -0.0915
  159SAPE  H10R17792   5.739   3.017   7.296  1.2821 -0.6530  1.6542
  159SAPE  H10S17793   5.774   3.171   7.223  2.2184  2.9359  2.4472
  159SAPE  C21117794   5.919   3.117   7.365 -0.2895 -0.0112 -0.2240
  159SAPE  H11R17795   6.012   3.166   7.333 -0.4322  1.1147  1.0049
  159SAPE  C21217796   5.906   3.109   7.499  0.0198  0.7969  0.3773
  159SAPE  H12R17797   6.002   3.119   7.552  2.0030 -0.2538 -2.7491
  159SAPE  C21317798   5.793   3.055   7.577 -0.1225  0.3098 -0.2419
  159SAPE  H13R17799   5.704   3.075   7.514  0.0085 -2.5998 -1.5090
  159SAPE  H13S17800   5.765   3.107   7.671 -1.3333 -2.0859  0.8072
  159SAPE  C21417801   5.818   2.907   7.609 -0.2720 -0.5513 -0.2739
  159SAPE  H14R17802   5.801   2.836   7.527 -1.5433  0.8370 -1.2568
  159SAPE  C21517803   5.860   2.851   7.724  0.3398 -0.2158  0.5311
  159SAPE  H15R17804   5.855   2.741   7.732 -0.9161 -0.3772 -1.7340
  159SAPE  C21617805   5.886   2.933   7.852 -0.5819  0.0733 -0.1126
  159SAPE  H16R17806   5.888   3.042   7.830  0.7639  0.1074  0.0655
  159SAPE  H16S17807   5.990   2.911   7.885 -0.7052  1.7804  1.5666
  159SAPE  C21717808   5.778   2.939   7.965  0.0989  0.3565  0.2524
  159SAPE  H17R17809   5.685   2.984   7.922 -0.8765 -0.6942  1.1846
  159SAPE  H17S17810   5.832   3.002   8.039  0.7228  1.0179 -0.7471
  159SAPE  C21817811   5.742   2.800   8.032 -0.0059  0.1909  0.2104
  159SAPE  H18R17812   5.840   2.751   8.047  0.8362  1.7646  0.0015
  159SAPE  H18S17813   5.686   2.730   7.967 -0.6263  1.3451 -0.5350
  159SAPE  C21917814   5.690   2.809   8.174  0.2796 -0.1530  0.4321
  159SAPE  H19R17815   5.645   2.711   8.201  0.2393 -1.3793 -3.4774
  159SAPE  H19S17816   5.607   2.882   8.175 -0.0676 -0.5264 -0.3743
  159SAPE  C22017817   5.808   2.837   8.271  0.0159  0.0947  0.3257
  159SAPE  H20R17818   5.859   2.934   8.255  1.8696 -1.1113 -1.5995
  159SAPE  H20S17819   5.888   2.760   8.274  0.4055  0.5351  1.2552
  159SAPE  H20T17820   5.763   2.842   8.372  1.5013  0.7222  0.9730
  159SAPE   C3317821   5.368   3.102   7.187 -0.4259  0.5670 -0.2901
  159SAPE   H3X17822   5.343   3.006   7.138 -0.1521  0.5925 -0.4836
  159SAPE   H3Y17823   5.273   3.158   7.199 -1.2557 -0.8174 -0.2751
  159SAPE   C3417824   5.435   3.059   7.320 -0.0354  0.3519 -0.1000
  159SAPE   H4X17825   5.479   3.151   7.364 -0.4615  0.7038 -0.3998
  159SAPE   H4Y17826   5.512   2.983   7.295  0.0760  1.1731 -2.5432
  159SAPE   C3517827   5.337   2.991   7.415 -0.5170  0.1820 -0.3317
  159SAPE   H5X17828   5.307   2.892   7.374 -1.1717  0.0048  0.5690
  159SAPE   H5Y17829   5.245   3.053   7.413 -0.0328  1.0862  1.9954
  159SAPE   C3617830   5.389   2.992   7.562  0.8841 -0.6013  0.1539
  159SAPE   H6X17831   5.399   3.100   7.588 -0.4916 -0.6873  1.1589
  159SAPE   H6Y17832   5.491   2.949   7.556  0.8166 -0.5740 -1.7275
  159SAPE   C3717833   5.303   2.924   7.668  0.4864 -0.3492  0.2417
  159SAPE   H7X17834   5.297   2.814   7.653  0.0902 -0.2769 -0.1168
  159SAPE   H7Y17835   5.198   2.959   7.662  0.4554 -0.7122 -2.3523
  159SAPE   C3817836   5.345   2.957   7.809 -0.6650 -0.1477 -0.6381
  159SAPE   H8X17837   5.355   3.067   7.806  2.0347 -0.3297 -2.6199
  159SAPE   H8Y17838   5.446   2.912   7.825  0.3340  3.0088  4.0416
  159SAPE   C3917839   5.261   2.906   7.922 -0.3357 -0.0093 -0.3553
  159SAPE   H9X17840   5.247   2.796   7.917  0.9450 -0.1772 -0.5164
  159SAPE   H9Y17841   5.159   2.950   7.922 -0.1710  0.3776 -0.3924
  159SAPE  C31017842   5.321   2.945   8.068  0.7773  0.0721  0.6295
  159SAPE  H10X17843   5.303   3.054   8.083  2.0921  0.2434  1.0680
  159SAPE  H10Y17844   5.431   2.937   8.058  0.6887 -0.2199 -0.2645
  159SAPE  C31117845   5.269   2.859   8.183  0.1632 -1.3441 -0.6758
  159SAPE  H11X17846   5.334   2.879   8.271  0.4179  0.9661 -1.3120
  159SAPE  H11Y17847   5.271   2.751   8.157 -2.0452 -1.9437  1.2902
  159SAPE  C31217848   5.130   2.917   8.235  0.2698  0.9332  0.0838
  159SAPE  H12X17849   5.060   2.912   8.149  1.0265 -1.8236 -0.4872
  159SAPE  H12Y17850   5.152   3.025   8.249  0.0645  1.1352 -1.0513
  159SAPE  C31317851   5.076   2.848   8.369 -0.8988  0.3863 -0.7493
  159SAPE  H13X17852   4.989   2.898   8.417 -1.4576 -0.1574 -1.1685
  159SAPE  H13Y17853   5.163   2.833   8.437 -1.1972 -0.4374 -0.5373
  159SAPE  C31417854   5.050   2.706   8.332  0.6176  0.2057 -0.1269
  159SAPE  H14X17855   5.127   2.666   8.263 -0.3229  3.9722 -3.7488
  159SAPE  H14Y17856   4.951   2.697   8.281 -0.2340  0.1166  1.4598
  159SAPE  C31517857   5.023   2.620   8.461 -0.4154 -0.0181  0.3795
  159SAPE  H15X17858   4.923   2.644   8.503 -0.0637 -1.1453  1.9450
  159SAPE  H15Y17859   5.102   2.645   8.536  0.9768  0.2321 -1.1069
  159SAPE  C31617860   5.053   2.474   8.437 -0.1578  0.1681 -0.2014
  159SAPE  H16X17861   5.152   2.472   8.386 -1.2786 -0.4271 -2.4978
  159SAPE  H16Y17862   4.980   2.423   8.371  0.2902 -0.9881  0.1771
  159SAPE  C31717863   5.049   2.394   8.572 -0.1795  0.0927 -0.7042
  159SAPE  H17X17864   4.942   2.382   8.600 -0.5797  3.8881 -0.0014
  159SAPE  H17Y17865   5.112   2.440   8.650 -0.2734  3.1587 -2.2661
  159SAPE  C31817866   5.113   2.254   8.551  0.0691 -0.1234  0.4168
  159SAPE  H18X17867   5.062   2.198   8.470  1.4446 -3.5973  1.7523
  159SAPE  H18Y17868   5.124   2.179   8.632  1.8909 -2.9382 -2.2147
  159SAPE  H18Z17869   5.217   2.273   8.516 -0.2364 -1.5936 -1.4090
  160SAPE     N17870   5.991   5.524   6.070  0.6085  0.4848  0.3963
  160SAPE   HN117871   6.048   5.502   6.154  0.8138  1.6728  0.5866
  160SAPE   HN217872   5.967   5.440   6.012 -1.2791  0.4156  1.2240
  160SAPE   HN317873   6.057   5.573   6.006 -0.9423  0.4939 -1.2797
  160SAPE   C1217874   5.863   5.599   6.101  0.6393  0.0708 -0.0138
  160SAPE  H12A17875   5.783   5.537   6.146 -0.9238  1.6368 -0.5319
  160SAPE  H12B17876   5.817   5.639   6.008 -1.7340 -0.9449  0.6547
  160SAPE   C1117877   5.890   5.727   6.195  0.4406  0.0323 -0.1415
  160SAPE  H11A17878   5.926   5.702   6.297 -0.8565 -0.7417  0.1492
  160SAPE  H11B17879   5.789   5.773   6.197  0.8189  1.2392 -3.2259
  160SAPE     P17880   6.024   5.949   6.224 -0.0145  0.2199  0.0227
  160SAPE   O1317881   6.147   5.901   6.293  0.0447 -0.2102 -0.6083
  160SAPE   O1417882   6.028   6.070   6.143  0.4262 -0.2142  0.3834
  160SAPE   O1217883   5.982   5.820   6.146  0.0775 -0.2878  0.1172
  160SAPE   O1117884   5.913   5.970   6.333 -0.3355 -0.4114 -0.3597
  160SAPE    C117885   5.834   6.087   6.316  0.5684  0.0378  0.7087
  160SAPE    HA17886   5.888   6.181   6.339  1.3963 -0.4572  0.8117
  160SAPE    HB17887   5.808   6.099   6.209 -0.1786 -0.3879  0.8334
  160SAPE    C217888   5.706   6.085   6.406 -0.5153  0.5938 -0.2452
  160SAPE    HS17889   5.629   6.156   6.370  0.7012  1.7509 -0.6748
  160SAPE   O2117890   5.740   6.111   6.543 -0.1074 -0.3198  0.1929
  160SAPE   C2117891   5.649   6.179   6.617 -0.9998  1.1923  0.5627
  160SAPE   O2217892   5.550   6.225   6.573  0.5567 -0.1535  0.5868
  160SAPE   C2217893   5.681   6.188   6.769 -1.0023 -0.0984  0.3279
  160SAPE   H2R17894   5.761   6.113   6.789 -1.4223 -1.2165 -1.8722
  160SAPE   H2S17895   5.718   6.293   6.775  0.6068 -0.3874 -2.7500
  160SAPE    C317896   5.644   5.945   6.399 -0.1400 -0.1423 -0.4556
  160SAPE    HX17897   5.719   5.883   6.453  0.0843  0.1248 -0.4552
  160SAPE    HY17898   5.636   5.914   6.293  1.4114 -1.5133 -0.2132
  160SAPE   O3117899   5.519   5.941   6.472 -0.0987 -0.2854  0.1663
  160SAPE   C3117900   5.490   5.818   6.519 -0.7642  0.3748  0.1974
  160SAPE   O3217901   5.540   5.710   6.496  0.1349 -0.3750  0.0465
  160SAPE   C3217902   5.380   5.837   6.626 -1.0513  0.0441  0.3472
  160SAPE   H2X17903   5.282   5.837   6.573 -0.0600  1.2999 -1.5952
  160SAPE   H2Y17904   5.391   5.937   6.673 -1.0474  0.2215 -0.0274
  160SAPE   C2317905   5.557   6.167   6.860  0.4551 -0.2376  0.5281
  160SAPE   H3R17906   5.502   6.074   6.833 -1.0867  0.2055  1.9687
  160SAPE   H3S17907   5.482   6.245   6.835 -1.0389 -1.9716 -0.6781
  160SAPE   C2417908   5.591   6.160   7.007 -0.2613 -0.0719  0.0630
  160SAPE   H4R17909   5.649   6.249   7.040  0.6698 -0.6381 -0.0031
  160SAPE   H4S17910   5.657   6.073   7.023  0.6756  0.2607 -1.8026
  160SAPE   C2517911   5.465   6.146   7.075  0.5908  0.4063 -0.1366
  160SAPE   H5R17912   5.385   6.095   7.019 -0.2774 -0.5288  1.8523
  160SAPE   C2617913   5.439   6.184   7.202  0.2910  0.3644  0.1583
  160SAPE   H6R17914   5.337   6.164   7.240  0.2769 -0.2689 -0.1947
  160SAPE   C2717915   5.532   6.256   7.294 -0.0641  0.7678 -0.4933
  160SAPE   H7R17916   5.636   6.245   7.257  0.0190  1.7216 -0.5526
  160SAPE   H7S17917   5.520   6.201   7.390  1.1503 -1.4902 -1.5355
  160SAPE   C2817918   5.495   6.404   7.316  0.1151 -0.5491 -0.2463
  160SAPE   H8R17919   5.467   6.444   7.218  1.0779 -1.2862 -0.8427
  160SAPE   C2917920   5.506   6.480   7.428  0.1564 -0.3621  0.0212
  160SAPE   H9R17921   5.490   6.589   7.425 -0.5787 -0.4034  1.5931
  160SAPE  C21017922   5.559   6.428   7.557  0.7345  0.6794  0.7789
  160SAPE  H10R17923   5.628   6.504   7.599 -0.8275  3.0668 -0.7107
  160SAPE  H10S17924   5.611   6.331   7.542  0.7530  0.9219 -1.0268
  160SAPE  C21117925   5.448   6.402   7.654  0.2682 -0.6066 -0.0205
  160SAPE  H11R17926   5.362   6.337   7.635  0.3823 -0.8262  0.2144
  160SAPE  C21217927   5.455   6.459   7.777  0.5610 -0.1273  0.7611
  160SAPE  H12R17928   5.377   6.432   7.849  1.2128 -2.1632  0.7509
  160SAPE  C21317929   5.562   6.545   7.836 -0.2126  0.1031 -0.3042
  160SAPE  H13R17930   5.601   6.616   7.761 -0.5820  1.1946  0.5115
  160SAPE  H13S17931   5.640   6.481   7.885 -0.8731 -0.2380  0.3280
  160SAPE  C21417932   5.489   6.628   7.943  0.8779  0.3723  0.7146
  160SAPE  H14R17933   5.394   6.670   7.906  1.3648 -0.7531 -2.0382
  160SAPE  C21517934   5.512   6.642   8.073  0.3062  0.2433  0.3133
  160SAPE  H15R17935   5.450   6.719   8.121 -0.4364  0.4503 -0.9301
  160SAPE  C21617936   5.620   6.582   8.162 -0.1682  0.3019  0.0616
  160SAPE  H16R17937   5.666   6.489   8.123  0.7500 -0.0799  1.9571
  160SAPE  H16S17938   5.584   6.558   8.264  0.3092  1.0460  0.4160
  160SAPE  C21717939   5.735   6.676   8.181 -0.2551  0.6904  0.2259
  160SAPE  H17R17940   5.703   6.765   8.239  0.8368  2.0553 -1.1656
  160SAPE  H17S17941   5.762   6.707   8.078 -1.0615 -0.4729 -0.3635
  160SAPE  C21817942   5.857   6.607   8.252 -0.0588 -0.3007 -0.2567
  160SAPE  H18R17943   5.822   6.570   8.351  1.4313  0.8088  0.7423
  160SAPE  H18S17944   5.945   6.673   8.269  1.0509 -1.7967 -0.0357
  160SAPE  C21917945   5.932   6.502   8.167  0.1552 -0.7687  0.0602
  160SAPE  H19R17946   5.876   6.406   8.163 -1.1849 -0.0900  1.4209
  160SAPE  H19S17947   6.028   6.489   8.222  0.0584 -0.5850  0.2756
  160SAPE  C22017948   5.971   6.560   8.030  0.3024  0.2289  0.8536
  160SAPE  H20R17949   6.018   6.660   8.035  0.1606  0.3077  0.6632
  160SAPE  H20S17950   5.880   6.563   7.966 -0.2728  1.8868  1.7074
  160SAPE  H20T17951   6.051   6.500   7.981  2.5020  0.9012  3.3819
  160SAPE   C3317952   5.389   5.730   6.743 -0.3001 -0.6047  0.6419
  160SAPE   H3X17953   5.497   5.720   6.768  0.1618  2.6907  0.3866
  160SAPE   H3Y17954   5.351   5.632   6.707  2.0192 -1.5059  0.5061
  160SAPE   C3417955   5.318   5.794   6.865 -0.4583 -0.4199 -0.2891
  160SAPE   H4X17956   5.212   5.820   6.840 -0.4791 -0.1560  0.0701
  160SAPE   H4Y17957   5.377   5.885   6.890  0.6608 -1.3989  0.7236
  160SAPE   C3517958   5.327   5.701   6.986 -0.1417 -0.1042  0.0171
  160SAPE   H5X17959   5.430   5.662   7.000 -0.2540 -0.7191 -0.7870
  160SAPE   H5Y17960   5.272   5.607   6.963 -0.9286  0.1501  0.8240
  160SAPE   C3617961   5.256   5.757   7.105 -0.1175  0.0506  0.5547
  160SAPE   H6X17962   5.148   5.768   7.082  0.0373  0.7255  0.1306
  160SAPE   H6Y17963   5.290   5.862   7.117 -1.5055  0.5206  0.4841
  160SAPE   C3717964   5.283   5.671   7.225 -0.1070 -0.6004 -0.2168
  160SAPE   H7X17965   5.392   5.654   7.235  0.3538  0.2854 -2.9122
  160SAPE   H7Y17966   5.241   5.568   7.214  1.5706 -1.2568 -0.7797
  160SAPE   C3817967   5.229   5.728   7.362 -0.8354 -0.0781  0.3219
  160SAPE   H8X17968   5.251   5.836   7.375  1.5361 -0.3929 -0.4522
  160SAPE   H8Y17969   5.288   5.673   7.438  0.8080  2.1991  0.7930
  160SAPE   C3917970   5.081   5.714   7.393 -0.3309  0.3474  0.3575
  160SAPE   H9X17971   5.045   5.610   7.381  0.6557  0.2815 -3.3878
  160SAPE   H9Y17972   5.028   5.780   7.321 -0.2670  1.3625  1.2190
  160SAPE  C31017973   5.043   5.764   7.538 -0.4998 -0.2070 -0.2438
  160SAPE  H10X17974   4.933   5.771   7.545 -0.4316  0.1374  0.4854
  160SAPE  H10Y17975   5.090   5.864   7.544 -2.0898  0.7540 -2.3425
  160SAPE  C31117976   5.092   5.675   7.650 -0.3965 -0.5691 -1.0193
  160SAPE  H11X17977   5.196   5.705   7.673 -0.6748 -0.2945 -0.0609
  160SAPE  H11Y17978   5.091   5.570   7.614 -0.4839 -0.9723  0.1152
  160SAPE  C31217979   5.013   5.704   7.781  0.3885  0.1995  0.6162
  160SAPE  H12X17980   4.918   5.647   7.782  1.5897 -1.9079  1.4139
  160SAPE  H12Y17981   4.990   5.812   7.792  1.9402  0.5139  1.0276
  160SAPE  C31317982   5.086   5.647   7.903 -0.2159 -0.6625 -0.1548
  160SAPE  H13X17983   5.191   5.683   7.902 -0.8277  1.2330 -1.0462
  160SAPE  H13Y17984   5.097   5.537   7.900  4.3490 -0.4678  1.4357
  160SAPE  C31417985   5.014   5.684   8.032 -0.6068  0.3606 -0.3083
  160SAPE  H14X17986   5.005   5.795   8.042 -0.9178  0.2321  0.9441
  160SAPE  H14Y17987   5.072   5.649   8.119 -3.1044  0.2243  1.4138
  160SAPE  C31517988   4.870   5.629   8.034 -0.0658  0.6431  0.0440
  160SAPE  H15X17989   4.861   5.518   8.033  4.4820  0.0823  0.3608
  160SAPE  H15Y17990   4.811   5.658   7.945  0.6827  1.5034 -0.1938
  160SAPE  C31617991   4.774   5.689   8.139 -0.0686  0.2801 -0.4517
  160SAPE  H16X17992   4.805   5.796   8.138 -1.8832  0.8418 -1.5441
  160SAPE  H16Y17993   4.796   5.654   8.242 -0.7981 -0.9803 -0.7029
  160SAPE  C31717994   4.626   5.664   8.110  0.2766 -0.0625 -0.4366
  160SAPE  H17X17995   4.597   5.557   8.122  0.1073  0.0860  0.5538
  160SAPE  H17Y17996   4.616   5.705   8.007 -1.7177  0.8478  0.0602
  160SAPE  C31817997   4.531   5.737   8.198  0.3292  0.4557 -0.2571
  160SAPE  H18X17998   4.484   5.820   8.140 -1.3196 -0.9021 -0.9427
  160SAPE  H18Y17999   4.574   5.778   8.292 -0.4713 -0.4300  0.5151
  160SAPE  H18Z18000   4.455   5.663   8.231  0.3770 -0.5016 -2.1755
  161SAPE     N18001   2.703   5.560   5.954 -0.6529  0.2809 -0.6561
  161SAPE   HN118002   2.697   5.479   5.889  0.2462 -2.3849  2.3570
  161SAPE   HN218003   2.747   5.525   6.041  1.2365 -1.8071 -2.3159
  161SAPE   HN318004   2.605   5.591   5.968 -1.2286 -1.1627 -1.3762
  161SAPE   C1218005   2.781   5.671   5.900  0.3575 -1.1935  0.1672
  161SAPE  H12A18006   2.729   5.765   5.927 -1.0757 -1.9919  0.2870
  161SAPE  H12B18007   2.785   5.660   5.789  0.8672  0.8349 -0.0394
  161SAPE   C1118008   2.918   5.663   5.966 -0.4930 -0.3414  0.2786
  161SAPE  H11A18009   2.986   5.744   5.931 -1.5287 -0.3396 -1.8634
  161SAPE  H11B18010   2.971   5.568   5.946  0.7883  0.3233  0.3887
  161SAPE     P18011   2.887   5.808   6.185 -0.3215 -0.0618 -0.2392
  161SAPE   O1318012   2.931   5.915   6.095  0.1715 -0.2023  0.3391
  161SAPE   O1418013   2.750   5.819   6.236  0.0855  0.0145  0.2624
  161SAPE   O1218014   2.903   5.667   6.108  0.2108 -0.7167  0.5264
  161SAPE   O1118015   2.995   5.790   6.299 -0.2204  0.4148  0.4827
  161SAPE    C118016   3.057   5.667   6.334 -0.5539  0.5374  0.1007
  161SAPE    HA18017   3.085   5.606   6.245 -0.8745 -1.3450  1.2360
  161SAPE    HB18018   3.157   5.676   6.381  0.4197 -3.2141 -0.9176
  161SAPE    C218019   2.971   5.581   6.427  0.0862  0.1377 -0.2463
  161SAPE    HS18020   2.897   5.533   6.358  0.7930  2.3532 -2.7121
  161SAPE   O2118021   2.902   5.671   6.514 -0.3126  0.1371 -0.2181
  161SAPE   C2118022   2.771   5.655   6.533 -0.1876 -0.1846 -0.3008
  161SAPE   O2218023   2.695   5.573   6.484  0.4903 -0.2708 -0.1270
  161SAPE   C2218024   2.729   5.763   6.635  0.5327  0.5522  0.4621
  161SAPE   H2R18025   2.781   5.750   6.733  1.7013 -0.8017 -0.2946
  161SAPE   H2S18026   2.772   5.852   6.584  0.0130 -0.0504 -1.1046
  161SAPE    C318027   3.044   5.470   6.500 -0.4587 -0.4838 -0.3210
  161SAPE    HX18028   3.137   5.506   6.550 -2.1161  1.8165  1.3175
  161SAPE    HY18029   3.079   5.406   6.417 -1.4400 -0.0270 -1.1104
  161SAPE   O3118030   2.953   5.388   6.572  0.0379 -1.1318  0.0398
  161SAPE   C3118031   2.957   5.389   6.709  0.4034  0.0770 -0.6594
  161SAPE   O3218032   3.055   5.432   6.771  0.5884  0.4139 -0.4357
  161SAPE   C3218033   2.837   5.333   6.773 -0.5010 -0.2119 -0.6839
  161SAPE   H2X18034   2.818   5.227   6.748 -0.0005 -0.7792  1.1944
  161SAPE   H2Y18035   2.749   5.397   6.751  0.4896  0.9740 -1.3224
  161SAPE   C2318036   2.572   5.782   6.667  0.4718 -0.2756 -0.0476
  161SAPE   H3R18037   2.531   5.685   6.704  0.8685 -0.4694 -0.1060
  161SAPE   H3S18038   2.532   5.800   6.565 -0.0325  0.3074  0.2492
  161SAPE   C2418039   2.565   5.897   6.759 -0.2779  0.2171  0.4840
  161SAPE   H4R18040   2.576   5.992   6.701  1.7263 -0.3428 -0.1565
  161SAPE   H4S18041   2.653   5.889   6.827 -0.0106 -3.8060 -0.1149
  161SAPE   C2518042   2.429   5.908   6.816 -0.5407 -0.2924 -0.0478
  161SAPE   H5R18043   2.354   5.886   6.738  3.6568 -1.2176 -4.2934
  161SAPE   C2618044   2.390   5.953   6.939 -0.0465 -1.0790  0.2382
  161SAPE   H6R18045   2.281   5.960   6.955 -0.2868  2.0261 -1.8793
  161SAPE   C2718046   2.475   6.010   7.059  0.2846  0.4503  0.8004
  161SAPE   H7R18047   2.515   6.107   7.023 -1.5561  0.7693 -0.4859
  161SAPE   H7S18048   2.575   5.960   7.059  0.5282  0.9200  0.1857
  161SAPE   C2818049   2.403   6.021   7.196  0.0226 -0.3319  0.5785
  161SAPE   H8R18050   2.380   5.924   7.243  0.4584 -0.4536  0.5461
  161SAPE   C2918051   2.364   6.130   7.264  0.0065 -0.0506  0.1729
  161SAPE   H9R18052   2.314   6.105   7.359 -0.1048 -0.7743 -0.0681
  161SAPE  C21018053   2.378   6.276   7.236 -0.4197  0.3100 -0.2928
  161SAPE  H10R18054   2.299   6.291   7.159  0.3832 -0.6930 -1.3540
  161SAPE  H10S18055   2.473   6.304   7.185  0.7545 -0.6275  1.3003
  161SAPE  C21118056   2.356   6.367   7.355  0.2228  0.1511  0.1150
  161SAPE  H11R18057   2.254   6.407   7.367  0.3627  0.6461 -0.3018
  161SAPE  C21218058   2.436   6.406   7.459 -0.2557 -0.0439  0.7286
  161SAPE  H12R18059   2.410   6.486   7.530  2.2406  2.5057 -1.0331
  161SAPE  C21318060   2.581   6.366   7.476  0.1848 -0.0322 -0.1804
  161SAPE  H13R18061   2.640   6.460   7.488 -1.7670  1.1943  0.1988
  161SAPE  H13S18062   2.623   6.321   7.383  1.9525 -0.8644  0.9601
  161SAPE  C21418063   2.605   6.283   7.598  0.7585 -0.2291  0.1645
  161SAPE  H14R18064   2.614   6.174   7.585  0.4732 -0.3824  1.1590
  161SAPE  C21518065   2.604   6.332   7.732  0.5029  0.3594 -0.1808
  161SAPE  H15R18066   2.610   6.263   7.818 -0.9829 -0.6436 -0.8412
  161SAPE  C21618067   2.602   6.479   7.770  0.4069 -0.0247  0.0222
  161SAPE  H16R18068   2.623   6.537   7.678  0.0695 -1.3241 -0.8975
  161SAPE  H16S18069   2.686   6.495   7.841  1.0639 -1.4699 -0.3885
  161SAPE  C21718070   2.466   6.515   7.831 -0.4554  0.3161 -0.7163
  161SAPE  H17R18071   2.448   6.439   7.910  0.2566  0.0908 -0.7697
  161SAPE  H17S18072   2.379   6.501   7.763 -1.3717  1.0544  0.2663
  161SAPE  C21818073   2.450   6.667   7.867 -0.3948  0.1906 -0.2757
  161SAPE  H18R18074   2.370   6.680   7.943  0.2232 -0.9416  0.6022
  161SAPE  H18S18075   2.420   6.729   7.780  1.6668  0.3122 -0.9411
  161SAPE  C21918076   2.579   6.728   7.926  0.8422  0.0430 -0.2443
  161SAPE  H19R18077   2.665   6.743   7.858  1.8070  3.0056  1.4744
  161SAPE  H19S18078   2.620   6.679   8.017 -1.8120 -0.3595  0.8308
  161SAPE  C22018079   2.542   6.866   7.965  0.8032  0.0869 -0.4360
  161SAPE  H20R18080   2.449   6.860   8.025  0.3348 -0.5739 -1.2086
  161SAPE  H20S18081   2.510   6.928   7.878 -1.4278  0.6847  0.7496
  161SAPE  H20T18082   2.629   6.912   8.018 -0.3432 -0.4127  1.9913
  161SAPE   C3318083   2.851   5.317   6.929 -0.1282 -0.4785  0.6744
  161SAPE   H3X18084   2.948   5.265   6.948  1.0916 -1.0739 -5.1294
  161SAPE   H3Y18085   2.770   5.251   6.966  0.3946 -0.2868  2.2405
  161SAPE   C3418086   2.846   5.447   7.015  0.4384  0.1909  0.4561
  161SAPE   H4X18087   2.917   5.523   6.974  0.0494  0.0447 -0.5176
  161SAPE   H4Y18088   2.883   5.420   7.116 -1.2394 -1.9244  0.5620
  161SAPE   C3518089   2.704   5.508   7.011  0.5897 -0.1936 -0.3258
  161SAPE   H5X18090   2.628   5.435   7.046 -0.7584  0.9086 -0.9025
  161SAPE   H5Y18091   2.685   5.532   6.904 -0.1433 -1.0601 -0.4027
  161SAPE   C3618092   2.700   5.636   7.093  0.2744  0.2115 -0.9039
  161SAPE   H6X18093   2.615   5.697   7.055  0.8706  1.5153 -0.2053
  161SAPE   H6Y18094   2.793   5.696   7.080 -1.4075  2.8703 -1.6753
  161SAPE   C3718095   2.682   5.613   7.247 -0.2266 -0.1663 -0.2027
  161SAPE   H7X18096   2.765   5.553   7.289 -0.2801  0.3386  0.6559
  161SAPE   H7Y18097   2.597   5.548   7.276  1.6597 -2.1948  1.1085
  161SAPE   C3818098   2.678   5.747   7.324  0.5200 -0.6384  0.3615
  161SAPE   H8X18099   2.611   5.810   7.262 -0.2980 -3.2874 -1.6208
  161SAPE   H8Y18100   2.779   5.791   7.312 -0.6281  2.0649 -0.2205
  161SAPE   C3918101   2.642   5.740   7.480 -0.5694 -0.2914 -0.1676
  161SAPE   H9X18102   2.705   5.661   7.526 -0.3129  1.3088  2.4580
  161SAPE   H9Y18103   2.538   5.701   7.487 -0.5518 -0.2317  0.5229
  161SAPE  C31018104   2.646   5.871   7.554  0.0010  0.7898 -0.5140
  161SAPE  H10X18105   2.614   5.957   7.491 -1.4198  0.0661 -0.8318
  161SAPE  H10Y18106   2.754   5.891   7.573  0.3122 -1.3612  0.1814
  161SAPE  C31118107   2.572   5.878   7.694 -0.0347 -0.4268 -0.6242
  161SAPE  H11X18108   2.465   5.902   7.675 -0.6942 -1.8117  1.0299
  161SAPE  H11Y18109   2.605   5.964   7.754 -3.6481  0.1197  0.8472
  161SAPE  C31218110   2.570   5.754   7.776 -0.2683  0.8758 -0.1700
  161SAPE  H12X18111   2.677   5.721   7.780 -0.2236  0.6072 -2.2882
  161SAPE  H12Y18112   2.519   5.674   7.718  1.4573 -1.9053  1.8810
  161SAPE  C31318113   2.507   5.762   7.916 -0.6090  0.1426 -1.0203
  161SAPE  H13X18114   2.412   5.821   7.916 -1.1549 -0.7041  0.3834
  161SAPE  H13Y18115   2.572   5.827   7.978 -0.8614  1.2924 -1.9148
  161SAPE  C31418116   2.503   5.631   7.992  0.5694 -0.0668  0.2387
  161SAPE  H14X18117   2.608   5.597   7.984  0.6459  0.5394 -2.2747
  161SAPE  H14Y18118   2.441   5.559   7.935  0.6642  0.0010  0.0497
  161SAPE  C31518119   2.457   5.648   8.134  0.5480  0.1593  0.0266
  161SAPE  H15X18120   2.517   5.724   8.189  1.6439 -1.1084  0.6475
  161SAPE  H15Y18121   2.487   5.552   8.182  0.1599  0.9113  1.8682
  161SAPE  C31618122   2.309   5.677   8.149  0.4612  0.0349 -0.5729
  161SAPE  H16X18123   2.237   5.618   8.089 -1.5878  0.4449  1.3524
  161SAPE  H16Y18124   2.293   5.783   8.121 -0.1661  0.2066  0.3754
  161SAPE  C31718125   2.261   5.672   8.294  0.1276  0.2955 -0.5502
  161SAPE  H17X18126   2.290   5.763   8.352 -2.4005  0.8052  0.0187
  161SAPE  H17Y18127   2.304   5.591   8.357  0.8213  1.3832  0.4238
  161SAPE  C31818128   2.109   5.669   8.302  0.1063  0.7882 -0.8989
  161SAPE  H18X18129   2.083   5.563   8.323 -0.3846  0.8335 -1.2839
  161SAPE  H18Y18130   2.057   5.718   8.217  0.4318  0.6857 -1.1614
  161SAPE  H18Z18131   2.079   5.720   8.397  0.5277 -3.5881  1.8595
  162SAPE     N18132   0.581   6.499   5.585 -0.2407 -0.0753  0.3072
  162SAPE   HN118133   0.556   6.414   5.529 -0.8730  0.3640 -0.1039
  162SAPE   HN218134   0.576   6.580   5.520 -2.3356  1.4808  2.2439
  162SAPE   HN318135   0.675   6.494   5.629 -0.0042  0.0808 -0.1684
  162SAPE   C1218136   0.462   6.522   5.672 -0.0486  0.1607  0.4938
  162SAPE  H12A18137   0.380   6.469   5.618  1.9180 -2.4678 -0.0956
  162SAPE  H12B18138   0.438   6.628   5.696 -1.0280 -0.0163  0.3409
  162SAPE   C1118139   0.491   6.441   5.799 -0.0251 -0.4136  0.0525
  162SAPE  H11A18140   0.576   6.487   5.854 -0.2304 -1.2166  1.0941
  162SAPE  H11B18141   0.515   6.336   5.772  0.0145 -0.1479 -0.9516
  162SAPE     P18142   0.324   6.548   5.978 -0.1704  0.1066 -0.6791
  162SAPE   O1318143   0.275   6.665   5.903 -0.0769  0.0291  0.2765
  162SAPE   O1418144   0.226   6.502   6.079 -0.2835 -0.5614 -0.6928
  162SAPE   O1218145   0.366   6.436   5.886 -0.4595 -0.7718  0.4106
  162SAPE   O1118146   0.457   6.579   6.049 -0.6888  0.4757 -0.4905
  162SAPE    C118147   0.531   6.494   6.131 -0.7187 -0.5689 -0.9589
  162SAPE    HA18148   0.494   6.390   6.115  1.4643 -1.3955 -0.8830
  162SAPE    HB18149   0.638   6.505   6.105 -0.9198  0.7397 -1.3229
  162SAPE    C218150   0.528   6.532   6.276  0.9350  0.8434 -0.0375
  162SAPE    HS18151   0.592   6.465   6.337  1.5610  0.6538 -0.8851
  162SAPE   O2118152   0.394   6.537   6.321  0.6256  0.1136  0.2442
  162SAPE   C2118153   0.338   6.422   6.337 -0.2719 -1.2899  0.1288
  162SAPE   O2218154   0.392   6.316   6.313  0.2293 -0.5653  0.0516
  162SAPE   C2218155   0.199   6.430   6.401 -0.4356  0.2620 -0.2190
  162SAPE   H2R18156   0.133   6.466   6.319  0.3713  1.1706 -0.4874
  162SAPE   H2S18157   0.171   6.335   6.451 -0.2317  1.5719  2.6069
  162SAPE    C318158   0.582   6.674   6.293 -0.2540  0.2924 -0.1637
  162SAPE    HX18159   0.516   6.737   6.229 -0.1900  1.8124  1.1874
  162SAPE    HY18160   0.683   6.687   6.247  1.0250 -0.8358  2.1628
  162SAPE   O3118161   0.588   6.712   6.430 -0.3381 -0.7795 -0.1840
  162SAPE   C3118162   0.694   6.657   6.502  0.0485 -0.3462 -0.3706
  162SAPE   O3218163   0.781   6.590   6.457 -0.2143  0.2817  0.2665
  162SAPE   C3218164   0.673   6.700   6.648 -0.7214  0.7227 -0.4692
  162SAPE   H2X18165   0.574   6.678   6.693 -0.8360  0.7659 -0.6991
  162SAPE   H2Y18166   0.664   6.811   6.654 -0.2347  0.8544 -1.7629
  162SAPE   C2318167   0.185   6.537   6.515 -0.2705  0.5797 -0.5431
  162SAPE   H3R18168   0.081   6.536   6.552 -1.0159 -2.1758 -2.4222
  162SAPE   H3S18169   0.222   6.634   6.476 -1.2981  0.4914 -1.7905
  162SAPE   C2418170   0.277   6.490   6.637 -1.3250 -0.1490  0.6473
  162SAPE   H4R18171   0.384   6.492   6.606 -1.3868 -0.1327  0.4331
  162SAPE   H4S18172   0.247   6.386   6.660 -1.3037 -0.5555 -1.0064
  162SAPE   C2518173   0.268   6.586   6.749 -0.5328  0.5272 -0.3032
  162SAPE   H5R18174   0.346   6.663   6.732 -0.5614  0.3575 -1.2745
  162SAPE   C2618175   0.186   6.575   6.854  0.3459  0.2630 -0.1041
  162SAPE   H6R18176   0.179   6.659   6.925 -1.6831  0.2980 -0.2832
  162SAPE   C2718177   0.066   6.474   6.872 -0.4874  0.5787 -0.2738
  162SAPE   H7R18178   0.013   6.432   6.783 -0.3282 -1.4781  0.5652
  162SAPE   H7S18179  -0.013   6.529   6.928 -2.3604 -1.4213 -0.7977
  162SAPE   C2818180   0.113   6.354   6.958  0.3703 -0.4264 -0.3841
  162SAPE   H8R18181   0.197   6.297   6.915  0.7180 -2.1124  2.2748
  162SAPE   C2918182   0.068   6.314   7.078 -0.5586 -0.7087 -1.0463
  162SAPE   H9R18183   0.121   6.229   7.124 -1.4512 -1.3516 -1.1721
  162SAPE  C21018184  -0.036   6.373   7.171 -0.2686  0.2384 -0.5171
  162SAPE  H10R18185  -0.129   6.318   7.143  0.9389 -1.8299 -0.6661
  162SAPE  H10S18186  -0.065   6.477   7.147 -2.1385 -0.3380 -0.9634
  162SAPE  C21118187  -0.022   6.335   7.313  0.6935 -0.0018 -0.3296
  162SAPE  H11R18188  -0.054   6.231   7.329  0.7355 -0.1037 -0.8979
  162SAPE  C21218189   0.030   6.405   7.415 -0.0518 -0.3765 -0.3825
  162SAPE  H12R18190   0.030   6.359   7.515  1.4398 -1.1767 -0.7239
  162SAPE  C21318191   0.088   6.545   7.404  0.4404  0.6408  0.5731
  162SAPE  H13R18192   0.020   6.594   7.478  1.3298 -1.1614  2.7163
  162SAPE  H13S18193   0.075   6.589   7.303 -1.0601 -2.0594 -0.5270
  162SAPE  C21418194   0.227   6.567   7.453  0.0389 -0.4821 -0.5096
  162SAPE  H14R18195   0.298   6.578   7.369 -0.2796  1.1469 -0.6136
  162SAPE  C21518196   0.272   6.587   7.579  0.3237 -0.3696  0.3920
  162SAPE  H15R18197   0.376   6.620   7.591  0.5087 -0.8927  0.2467
  162SAPE  C21618198   0.205   6.582   7.711 -0.1351  0.2450 -0.2730
  162SAPE  H16R18199   0.280   6.596   7.791 -2.2173  1.0258  1.6394
  162SAPE  H16S18200   0.159   6.483   7.732 -0.9986  0.8490  0.7502
  162SAPE  C21718201   0.096   6.682   7.737  0.1569  0.2559  0.6296
  162SAPE  H17R18202  -0.005   6.652   7.703 -0.2180 -0.1977  2.0838
  162SAPE  H17S18203   0.126   6.778   7.688 -0.2843 -0.5930 -1.3930
  162SAPE  C21818204   0.092   6.720   7.881 -0.2883 -0.8199  0.0092
  162SAPE  H18R18205   0.033   6.814   7.892  1.7651  0.4820  0.4103
  162SAPE  H18S18206   0.194   6.738   7.921 -0.6862 -0.6899  0.9968
  162SAPE  C21918207   0.014   6.625   7.972 -0.3475 -0.8408  0.3275
  162SAPE  H19R18208   0.056   6.522   7.977  0.9914 -0.3481 -0.1553
  162SAPE  H19S18209  -0.086   6.602   7.928 -0.9735 -0.6546  1.6170
  162SAPE  C22018210  -0.001   6.676   8.114 -0.2813 -0.7347 -0.0544
  162SAPE  H20R18211   0.093   6.684   8.173 -0.5111 -0.8935  0.3395
  162SAPE  H20S18212  -0.078   6.612   8.161  0.9120 -1.7782  0.5270
  162SAPE  H20T18213  -0.039   6.780   8.102  2.3434  0.2137 -0.8891
  162SAPE   C3318214   0.778   6.639   6.743 -0.3634 -0.0584  0.6122
  162SAPE   H3X18215   0.872   6.693   6.719  0.1363  0.1658  2.8680
  162SAPE   H3Y18216   0.805   6.535   6.712  0.9815  0.6510 -0.7928
  162SAPE   C3418217   0.754   6.665   6.890 -0.0447 -0.2533 -0.7174
  162SAPE   H4X18218   0.646   6.654   6.915 -0.0352  1.7055  0.4079
  162SAPE   H4Y18219   0.789   6.765   6.925  1.3578 -0.8129 -0.4471
  162SAPE   C3518220   0.829   6.564   6.992  0.5174 -0.0029  0.8312
  162SAPE   H5X18221   0.938   6.585   6.990  0.0225  2.9326 -0.7836
  162SAPE   H5Y18222   0.801   6.462   6.959  0.3140 -0.7388  3.0794
  162SAPE   C3618223   0.779   6.583   7.136 -0.0803  0.2084  0.5039
  162SAPE   H6X18224   0.668   6.571   7.145 -0.0793  0.4110  0.8269
  162SAPE   H6Y18225   0.804   6.690   7.149  1.9844 -0.1341 -0.2759
  162SAPE   C3718226   0.843   6.482   7.229  0.0725  0.2370 -0.6151
  162SAPE   H7X18227   0.953   6.500   7.223  0.0047  1.8979  1.8267
  162SAPE   H7Y18228   0.830   6.374   7.206  1.0104 -0.2845  1.1046
  162SAPE   C3818229   0.810   6.500   7.380 -0.1443 -0.1897  0.0218
  162SAPE   H8X18230   0.700   6.491   7.392 -0.2468 -0.1192 -0.7913
  162SAPE   H8Y18231   0.830   6.606   7.406 -0.0088  0.1938 -1.5379
  162SAPE   C3918232   0.892   6.402   7.469 -0.4254 -0.1051 -0.0306
  162SAPE   H9X18233   0.997   6.412   7.435 -0.1451 -1.6209  0.3278
  162SAPE   H9Y18234   0.846   6.303   7.448 -0.5169 -0.0986  0.1361
  162SAPE  C31018235   0.884   6.445   7.620 -0.6103 -0.0237 -0.4375
  162SAPE  H10X18236   0.783   6.474   7.655  0.0230  0.6666  0.8951
  162SAPE  H10Y18237   0.944   6.538   7.626 -0.0054 -0.4166 -0.2394
  162SAPE  C31118238   0.940   6.333   7.707  0.6019 -0.0317  0.3770
  162SAPE  H11X18239   1.049   6.314   7.692  0.3200 -3.5208  1.7658
  162SAPE  H11Y18240   0.889   6.239   7.675 -0.5118  0.3769  0.9180
  162SAPE  C31218241   0.901   6.356   7.857 -0.6065  0.0804 -0.1465
  162SAPE  H12X18242   0.956   6.274   7.909  1.4544  1.9138  0.7106
  162SAPE  H12Y18243   0.790   6.355   7.860 -0.6311  0.2868 -0.8924
  162SAPE  C31318244   0.960   6.491   7.911  0.3300 -0.3851  0.0716
  162SAPE  H13X18245   0.898   6.582   7.893  2.2546  1.1285  0.7261
  162SAPE  H13Y18246   1.063   6.503   7.873  0.0070 -1.1257 -1.0838
  162SAPE  C31418247   0.979   6.482   8.062 -0.0617 -0.3727 -0.3286
  162SAPE  H14X18248   0.904   6.414   8.108  0.5057  0.2134  1.5743
  162SAPE  H14Y18249   0.956   6.579   8.112  2.7201 -0.1136  0.5822
  162SAPE  C31518250   1.121   6.443   8.101 -0.0752 -0.9058 -0.8576
  162SAPE  H15X18251   1.165   6.536   8.059 -3.2602 -0.1984 -3.0512
  162SAPE  H15Y18252   1.141   6.366   8.023 -1.2353 -1.6831 -0.4177
  162SAPE  C31618253   1.139   6.410   8.244  0.5748  0.1513 -0.3763
  162SAPE  H16X18254   1.087   6.317   8.274 -0.0286  0.9773  1.2833
  162SAPE  H16Y18255   1.083   6.485   8.304 -0.7299 -0.6039 -0.6219
  162SAPE  C31718256   1.290   6.412   8.287 -0.4690  0.4859 -0.4353
  162SAPE  H17X18257   1.296   6.404   8.397  3.7590 -1.6560 -0.6021
  162SAPE  H17Y18258   1.337   6.509   8.257 -0.0841  0.4991  0.1842
  162SAPE  C31818259   1.371   6.291   8.233 -0.4182  0.4799 -0.5013
  162SAPE  H18X18260   1.353   6.275   8.125 -4.4130  0.4505  0.0141
  162SAPE  H18Y18261   1.335   6.201   8.288  1.2683 -0.7139 -1.2421
  162SAPE  H18Z18262   1.480   6.311   8.239  0.2730 -2.0886 -2.5773
  163SAPE     N18263   4.891   4.215   6.386  0.3580 -0.2834 -0.3434
  163SAPE   HN118264   4.863   4.115   6.391  3.3427 -1.2122 -0.1384
  163SAPE   HN218265   4.832   4.258   6.312 -0.5832 -1.9955 -0.6198
  163SAPE   HN318266   4.992   4.211   6.363  0.9542 -0.0036  1.9397
  163SAPE   C1218267   4.873   4.285   6.514  0.2426  0.0288  0.1278
  163SAPE  H12A18268   4.953   4.242   6.578  1.7927  3.1912  0.5180
  163SAPE  H12B18269   4.769   4.261   6.544  1.1193 -1.1049  2.5327
  163SAPE   C1118270   4.889   4.433   6.496 -0.0293  0.1268  0.3212
  163SAPE  H11A18271   4.919   4.475   6.595  0.7352 -1.2460  0.6922
  163SAPE  H11B18272   4.793   4.478   6.464  0.6178  1.2248 -0.1701
  163SAPE     P18273   5.031   4.609   6.374 -0.0537 -0.1544  0.3300
  163SAPE   O1318274   5.138   4.620   6.271  0.6030  0.2205  0.2265
  163SAPE   O1418275   4.909   4.680   6.343 -0.4096  0.5260  0.2844
  163SAPE   O1218276   4.996   4.460   6.399  0.2239  0.1318 -0.6228
  163SAPE   O1118277   5.085   4.672   6.503  0.1587  0.0479 -0.0412
  163SAPE    C118278   5.181   4.615   6.594 -0.1127  0.4164 -0.5534
  163SAPE    HA18279   5.163   4.507   6.614  0.1780  0.1144 -1.8344
  163SAPE    HB18280   5.286   4.627   6.560  0.9015  0.8840  2.4767
  163SAPE    C218281   5.168   4.678   6.733  0.0597  0.1842 -0.2186
  163SAPE    HS18282   5.178   4.787   6.718  2.2625  0.4806  2.5024
  163SAPE   O2118283   5.274   4.617   6.822  0.1580  0.2059 -0.2721
  163SAPE   C2118284   5.327   4.708   6.902  0.8524  0.3318  0.4359
  163SAPE   O2218285   5.306   4.825   6.901 -0.0940  0.1844 -0.6743
  163SAPE   C2218286   5.430   4.637   6.991  0.3618 -0.0521  0.8888
  163SAPE   H2R18287   5.384   4.537   7.008  0.7223 -0.4621 -0.4495
  163SAPE   H2S18288   5.527   4.617   6.941 -0.6762 -0.1091 -1.2078
  163SAPE    C318289   5.034   4.641   6.798  0.3456 -0.0822 -0.6255
  163SAPE    HX18290   5.029   4.530   6.799  0.2430 -0.0773  0.4916
  163SAPE    HY18291   4.963   4.682   6.722  0.4195 -1.5385 -1.5238
  163SAPE   O3118292   5.011   4.702   6.926 -0.0297 -0.1123 -0.0587
  163SAPE   C3118293   4.973   4.830   6.937 -0.7156 -0.0565 -0.0268
  163SAPE   O3218294   4.931   4.898   6.843  0.9946  0.1876  0.5558
  163SAPE   C3218295   4.998   4.871   7.086 -0.3804 -0.6734 -0.0213
  163SAPE   H2X18296   5.107   4.891   7.082 -0.6980  1.0469 -1.2298
  163SAPE   H2Y18297   4.989   4.788   7.160  2.2412  0.0984  1.2785
  163SAPE   C2318298   5.452   4.708   7.128 -0.0464 -0.3766 -0.2069
  163SAPE   H3R18299   5.353   4.727   7.172  0.0787 -1.2606  0.4658
  163SAPE   H3S18300   5.502   4.803   7.100  2.2648 -0.7548  2.2091
  163SAPE   C2418301   5.551   4.627   7.222  0.7040 -0.0112  0.1375
  163SAPE   H4R18302   5.577   4.694   7.307  1.1986 -1.1318  0.8940
  163SAPE   H4S18303   5.647   4.602   7.171  0.9596  2.7295 -0.8615
  163SAPE   C2518304   5.482   4.507   7.280  0.7796 -0.0445  0.8727
  163SAPE   H5R18305   5.415   4.468   7.202  3.3266 -0.2503 -1.3639
  163SAPE   C2618306   5.492   4.445   7.395 -0.2474  0.2477  0.8758
  163SAPE   H6R18307   5.412   4.372   7.414 -0.1736  0.0686  0.4893
  163SAPE   C2718308   5.586   4.499   7.503  0.4021 -0.8396  0.1353
  163SAPE   H7R18309   5.523   4.514   7.594 -1.7163 -1.6246 -1.1167
  163SAPE   H7S18310   5.627   4.599   7.479 -0.9709  0.1260  1.5881
  163SAPE   C2818311   5.701   4.417   7.550 -0.2026  0.0497 -0.0536
  163SAPE   H8R18312   5.752   4.351   7.478  1.9928 -0.7393  2.0871
  163SAPE   C2918313   5.746   4.404   7.670 -0.7987  0.3505 -0.2629
  163SAPE   H9R18314   5.837   4.345   7.688 -0.9770  0.3219  0.5770
  163SAPE  C21018315   5.684   4.482   7.783  0.4409  0.3007  0.1456
  163SAPE  H10R18316   5.584   4.443   7.814  0.0862  2.0857  1.4193
  163SAPE  H10S18317   5.656   4.585   7.751 -3.9679 -1.0557 -1.2020
  163SAPE  C21118318   5.763   4.481   7.913  0.4290  0.7256 -0.0693
  163SAPE  H11R18319   5.842   4.404   7.919  0.2038  0.6164  2.1956
  163SAPE  C21218320   5.748   4.561   8.016  0.1611 -0.1839 -0.2531
  163SAPE  H12R18321   5.821   4.539   8.095  0.3817  1.2343 -0.0385
  163SAPE  C21318322   5.655   4.683   8.019 -0.3153 -0.0081 -0.3210
  163SAPE  H13R18323   5.648   4.730   7.918 -0.9437 -0.3948 -0.4666
  163SAPE  H13S18324   5.691   4.766   8.083  0.9086  1.6111 -2.9376
  163SAPE  C21418325   5.516   4.634   8.055 -0.7326 -0.4486  0.0768
  163SAPE  H14R18326   5.469   4.591   7.965 -2.1267  0.0686  0.5288
  163SAPE  C21518327   5.458   4.623   8.173  0.3314  0.5728  0.5479
  163SAPE  H15R18328   5.358   4.576   8.179  1.3104 -1.7842 -0.3921
  163SAPE  C21618329   5.520   4.659   8.305 -0.0114  0.7003  0.6755
  163SAPE  H16R18330   5.631   4.659   8.301 -0.0250  0.1442  0.1505
  163SAPE  H16S18331   5.495   4.590   8.388 -0.6677  1.2430  0.9412
  163SAPE  C21718332   5.484   4.796   8.356  0.5547 -0.5273 -0.1834
  163SAPE  H17R18333   5.498   4.868   8.273 -3.2557 -0.0322 -0.5856
  163SAPE  H17S18334   5.550   4.816   8.443  2.9765 -0.0690 -2.0128
  163SAPE  C21818335   5.343   4.810   8.413  0.1055  0.2765  0.0981
  163SAPE  H18R18336   5.342   4.771   8.518 -0.1310  0.8552  0.3112
  163SAPE  H18S18337   5.266   4.754   8.356 -1.5884  2.0346  0.5536
  163SAPE  C21918338   5.291   4.955   8.417 -0.2191  0.2280  0.2802
  163SAPE  H19R18339   5.192   4.955   8.467 -0.3287 -0.8409  0.0922
  163SAPE  H19S18340   5.261   4.999   8.319 -0.9044 -0.6478  0.0795
  163SAPE  C22018341   5.392   5.048   8.484  0.1121  0.2674  0.0238
  163SAPE  H20R18342   5.428   5.017   8.584 -0.3441 -2.0893 -0.4683
  163SAPE  H20S18343   5.339   5.145   8.499 -1.1987 -0.6924  2.0157
  163SAPE  H20T18344   5.483   5.065   8.423  0.3793  2.9642  1.0496
  163SAPE   C3318345   4.910   4.978   7.135 -0.1013 -0.1021  0.8349
  163SAPE   H3X18346   4.905   5.060   7.061 -3.0441 -1.7888 -1.0139
  163SAPE   H3Y18347   4.946   5.028   7.227  0.4594  2.0686 -0.5024
  163SAPE   C3418348   4.765   4.947   7.171  0.2786  0.6181  0.6178
  163SAPE   H4X18349   4.719   4.910   7.077  2.9650  2.8641 -1.7884
  163SAPE   H4Y18350   4.707   5.036   7.204  0.5479  0.7777  0.6639
  163SAPE   C3518351   4.754   4.840   7.277  0.4917  0.4088  0.4648
  163SAPE   H5X18352   4.814   4.748   7.255  3.3138  2.4051 -0.9046
  163SAPE   H5Y18353   4.652   4.798   7.278  0.3578  0.7193  0.0131
  163SAPE   C3618354   4.788   4.903   7.418 -0.0495  0.1061  0.3399
  163SAPE   H6X18355   4.717   4.988   7.432 -0.0776  0.0415  0.5925
  163SAPE   H6Y18356   4.887   4.953   7.422  0.9135 -1.7796  1.9108
  163SAPE   C3718357   4.756   4.807   7.534 -0.0301 -0.0526  0.0248
  163SAPE   H7X18358   4.831   4.726   7.529 -0.7526 -0.8169  1.1154
  163SAPE   H7Y18359   4.659   4.756   7.520 -0.6475  1.5745 -2.2939
  163SAPE   C3818360   4.772   4.872   7.673  0.1990  0.0415  0.1698
  163SAPE   H8X18361   4.692   4.948   7.675  1.5024  1.4671  1.7324
  163SAPE   H8Y18362   4.876   4.913   7.669  1.2723 -2.4347  0.9345
  163SAPE   C3918363   4.764   4.771   7.786  0.7959  0.0330  0.0997
  163SAPE   H9X18364   4.865   4.726   7.795  1.0548  0.4897 -0.4600
  163SAPE   H9Y18365   4.694   4.686   7.770 -0.2301  0.5402  1.7077
  163SAPE  C31018366   4.731   4.821   7.925 -0.2379 -0.2036  0.3348
  163SAPE  H10X18367   4.635   4.871   7.952 -0.5744 -0.7370  0.1248
  163SAPE  H10Y18368   4.812   4.895   7.944 -0.0309 -0.0572 -1.0331
  163SAPE  C31118369   4.726   4.701   8.016  0.5182 -0.3372 -0.2180
  163SAPE  H11X18370   4.800   4.626   7.979 -0.4228 -1.2230 -0.3586
  163SAPE  H11Y18371   4.632   4.643   8.004  0.1659  0.3572 -0.8853
  163SAPE  C31218372   4.743   4.745   8.161  0.2229  0.7186 -0.3005
  163SAPE  H12X18373   4.709   4.650   8.208 -0.6906  0.8090 -0.7640
  163SAPE  H12Y18374   4.678   4.829   8.191  1.3503  1.2372  0.7554
  163SAPE  C31318375   4.890   4.783   8.195 -0.1141  0.0088  0.5290
  163SAPE  H13X18376   4.909   4.867   8.125  0.7738 -3.0729 -3.2882
  163SAPE  H13Y18377   4.966   4.706   8.169  0.8107  1.8791 -2.9118
  163SAPE  C31418378   4.913   4.823   8.346 -0.2580 -0.5965 -0.0601
  163SAPE  H14X18379   5.023   4.834   8.353 -0.4157  2.8503 -1.0612
  163SAPE  H14Y18380   4.889   4.737   8.412  2.2628 -2.5438 -1.5245
  163SAPE  C31518381   4.828   4.948   8.385 -0.6671 -0.7150 -0.7649
  163SAPE  H15X18382   4.724   4.914   8.404 -0.9177  0.8676  0.9479
  163SAPE  H15Y18383   4.831   5.020   8.301  1.8829 -0.2729 -0.3668
  163SAPE  C31618384   4.883   5.009   8.518  0.2859  0.0599  0.1365
  163SAPE  H16X18385   4.987   5.046   8.507  0.6997 -1.2187 -0.3460
  163SAPE  H16Y18386   4.877   4.935   8.600  0.6198  0.9605  0.9853
  163SAPE  C31718387   4.807   5.136   8.565  0.7360 -0.6947  0.5604
  163SAPE  H17X18388   4.837   5.155   8.671 -2.4518 -3.1238  2.1022
  163SAPE  H17Y18389   4.700   5.107   8.579  0.0863  1.2289 -0.1390
  163SAPE  C31818390   4.840   5.257   8.478 -0.6166  0.2737 -0.1648
  163SAPE  H18X18391   4.773   5.261   8.389 -1.7360  1.4772  0.7058
  163SAPE  H18Y18392   4.947   5.254   8.448 -0.5197  0.0229  0.1953
  163SAPE  H18Z18393   4.832   5.355   8.529  1.6755  0.8778 -0.8350
  164SAPE     N18394   0.060   3.298   5.613 -0.0832  0.4677 -0.4620
  164SAPE   HN118395   0.051   3.194   5.607 -1.1032  0.3411  2.2050
  164SAPE   HN218396  -0.029   3.345   5.584 -0.4535  0.2375  0.2831
  164SAPE   HN318397   0.138   3.327   5.550  0.2264  0.6106 -0.0113
  164SAPE   C1218398   0.093   3.335   5.761 -0.2140 -0.1070 -0.4163
  164SAPE  H12A18399  -0.003   3.371   5.803 -1.2711 -0.6162 -2.2901
  164SAPE  H12B18400   0.166   3.419   5.758  0.5811 -0.7856 -0.8193
  164SAPE   C1118401   0.159   3.217   5.829 -0.1695  0.5052 -0.1080
  164SAPE  H11A18402   0.084   3.137   5.839 -0.4520  1.0430  3.0761
  164SAPE  H11B18403   0.189   3.246   5.932  1.6649 -0.1669 -0.4236
  164SAPE     P18404   0.402   3.227   5.743 -0.6135 -0.3577 -0.7766
  164SAPE   O1318405   0.492   3.138   5.662 -0.4484 -0.1653 -0.4890
  164SAPE   O1418406   0.390   3.359   5.684  1.0597 -0.4318  0.6027
  164SAPE   O1218407   0.264   3.158   5.755 -0.3895 -0.5967 -0.0729
  164SAPE   O1118408   0.456   3.239   5.896  0.0734 -0.4628  0.4391
  164SAPE    C118409   0.523   3.130   5.952 -0.0370 -0.4215  0.0762
  164SAPE    HA18410   0.457   3.042   5.967 -2.8150  1.4080 -0.4786
  164SAPE    HB18411   0.605   3.091   5.889  1.4096  2.0538  0.2969
  164SAPE    C218412   0.587   3.175   6.088  0.0478  0.4762 -0.4381
  164SAPE    HS18413   0.642   3.094   6.141  0.5529  1.3589  0.4360
  164SAPE   O2118414   0.482   3.229   6.170  0.1453 -0.2752 -0.5487
  164SAPE   C2118415   0.397   3.137   6.216 -0.1584  0.2416 -0.3028
  164SAPE   O2218416   0.415   3.017   6.204 -0.1163  0.5881  0.3105
  164SAPE   C2218417   0.278   3.202   6.295 -0.1659 -0.3035  0.3571
  164SAPE   H2R18418   0.293   3.312   6.297  0.6000 -0.4057  1.6423
  164SAPE   H2S18419   0.182   3.182   6.244 -0.7711 -1.6277  1.8955
  164SAPE    C318420   0.686   3.281   6.058  0.4975  0.1802  0.8212
  164SAPE    HX18421   0.630   3.359   6.003  0.7479  1.4186  2.2541
  164SAPE    HY18422   0.762   3.245   5.985  0.2131 -0.5741  0.8849
  164SAPE   O3118423   0.743   3.334   6.178 -0.0709 -0.2920 -0.0388
  164SAPE   C3118424   0.705   3.451   6.216  0.0704 -0.3161  0.0969
  164SAPE   O3218425   0.620   3.521   6.166  0.3893 -0.4142  0.4530
  164SAPE   C3218426   0.787   3.476   6.347 -0.1782  0.4283 -0.0699
  164SAPE   H2X18427   0.881   3.517   6.305  0.5427 -0.8091  0.2865
  164SAPE   H2Y18428   0.809   3.377   6.392  0.6422  0.7883  0.3461
  164SAPE   C2318429   0.273   3.160   6.448  1.0159 -0.1628  0.1022
  164SAPE   H3R18430   0.362   3.198   6.503  0.6759 -1.3347  1.5431
  164SAPE   H3S18431   0.270   3.049   6.442 -1.8149 -0.1032 -1.4209
  164SAPE   C2418432   0.148   3.209   6.526 -0.4570 -0.2886  0.1200
  164SAPE   H4R18433   0.176   3.186   6.632  1.8167 -1.5301 -0.6717
  164SAPE   H4S18434   0.061   3.142   6.505 -0.8700  0.0268  0.7722
  164SAPE   C2518435   0.109   3.354   6.504  0.3795 -0.1184 -0.2239
  164SAPE   H5R18436   0.165   3.415   6.432  2.4214 -1.1914  0.3767
  164SAPE   C2618437   0.000   3.405   6.557  0.4449  0.3592 -0.6272
  164SAPE   H6R18438  -0.025   3.512   6.552 -1.2690  0.0417  0.3618
  164SAPE   C2718439  -0.089   3.318   6.645 -0.1871 -0.1185 -0.8200
  164SAPE   H7R18440  -0.082   3.364   6.746  1.5005 -1.1158 -0.4325
  164SAPE   H7S18441  -0.044   3.218   6.663 -0.1621 -0.0133 -0.2677
  164SAPE   C2818442  -0.236   3.302   6.610  0.8004 -0.1628 -0.4301
  164SAPE   H8R18443  -0.273   3.335   6.512  1.9008 -1.9500 -1.5109
  164SAPE   C2918444  -0.320   3.232   6.685  0.3874  0.2325  0.5574
  164SAPE   H9R18445  -0.426   3.231   6.655  0.4345  0.5282  0.3692
  164SAPE  C21018446  -0.296   3.155   6.814 -0.2190 -0.4670 -0.0402
  164SAPE  H10R18447  -0.396   3.153   6.863 -1.3014 -1.6723 -2.1369
  164SAPE  H10S18448  -0.221   3.203   6.881  0.1060 -0.4264 -0.4330
  164SAPE  C21118449  -0.250   3.014   6.788 -0.2551 -0.4106 -0.6506
  164SAPE  H11R18450  -0.266   2.982   6.685  1.7952  1.2777 -1.5838
  164SAPE  C21218451  -0.180   2.939   6.876 -0.1001 -0.5878  0.4382
  164SAPE  H12R18452  -0.144   2.845   6.831  1.1933 -0.3518  0.9229
  164SAPE  C21318453  -0.142   2.973   7.016 -0.0470 -0.3545  0.4342
  164SAPE  H13R18454  -0.218   3.040   7.062  1.3789  1.0525  0.8504
  164SAPE  H13S18455  -0.062   3.050   7.021  0.1270 -0.5417  0.5841
  164SAPE  C21418456  -0.124   2.864   7.110  0.3350  0.5104  0.0986
  164SAPE  H14R18457  -0.153   2.762   7.080 -2.8915  0.7816  1.8827
  164SAPE  C21518458  -0.087   2.884   7.235 -1.0728  0.0853 -0.4444
  164SAPE  H15R18459  -0.050   2.799   7.294 -2.1221  0.0981  0.2432
  164SAPE  C21618460  -0.050   3.015   7.304 -0.0142  0.1923  0.7544
  164SAPE  H16R18461  -0.106   3.093   7.248  2.3263  0.0607 -2.0380
  164SAPE  H16S18462   0.060   3.033   7.299 -0.2548  1.5377 -0.4408
  164SAPE  C21718463  -0.093   3.013   7.452 -0.7197  0.2572  0.0060
  164SAPE  H17R18464  -0.198   2.982   7.468 -0.1220 -0.9428  2.0275
  164SAPE  H17S18465  -0.083   3.112   7.503  2.4973  0.5280 -0.9055
  164SAPE  C21818466   0.003   2.916   7.530 -0.1331 -0.1168 -0.1365
  164SAPE  H18R18467   0.110   2.928   7.504 -0.5014 -0.6036 -1.9670
  164SAPE  H18S18468  -0.025   2.811   7.507  3.0270 -0.8880 -0.9340
  164SAPE  C21918469  -0.016   2.924   7.679 -0.6246 -0.4579 -0.0592
  164SAPE  H19R18470  -0.121   2.902   7.709  0.3948 -2.2118  2.5734
  164SAPE  H19S18471   0.013   3.024   7.717  1.0723 -1.2386  0.7722
  164SAPE  C22018472   0.073   2.824   7.755 -0.3683  0.4848 -0.6317
  164SAPE  H20R18473   0.071   2.844   7.864  0.0842  1.0327 -0.7200
  164SAPE  H20S18474   0.176   2.821   7.714  0.4421  1.5458  1.2052
  164SAPE  H20T18475   0.030   2.722   7.761  0.4754  0.1854  2.0767
  164SAPE   C3318476   0.719   3.572   6.452 -0.2434  0.6524  0.2541
  164SAPE   H3X18477   0.707   3.667   6.396 -2.8013 -0.6928 -1.7074
  164SAPE   H3Y18478   0.791   3.585   6.535  1.9749 -0.1757 -1.4349
  164SAPE   C3418479   0.585   3.518   6.493 -0.1966  0.3717 -0.4605
  164SAPE   H4X18480   0.588   3.408   6.506  0.7979  0.0946 -2.6665
  164SAPE   H4Y18481   0.506   3.536   6.417  0.0027  1.2052 -0.4829
  164SAPE   C3518482   0.532   3.583   6.619 -0.1602 -0.9137 -0.4499
  164SAPE   H5X18483   0.429   3.543   6.620  0.0013 -1.3381  0.6098
  164SAPE   H5Y18484   0.535   3.694   6.618 -2.2043 -0.7650  1.4523
  164SAPE   C3618485   0.610   3.531   6.745  0.0440  0.1523  0.2130
  164SAPE   H6X18486   0.706   3.587   6.755 -0.4304  1.1232 -0.5851
  164SAPE   H6Y18487   0.635   3.422   6.743 -1.2499 -0.1463 -0.3196
  164SAPE   C3718488   0.526   3.561   6.868  0.4973 -0.0968 -0.5429
  164SAPE   H7X18489   0.438   3.495   6.872  0.6369 -0.4975 -2.7628
  164SAPE   H7Y18490   0.501   3.668   6.854  1.3193  0.3222  0.9715
  164SAPE   C3818491   0.597   3.531   7.008 -0.0194  0.6492 -0.5224
  164SAPE   H8X18492   0.692   3.588   7.017  1.2030 -1.1867 -1.1791
  164SAPE   H8Y18493   0.637   3.427   7.006 -0.5581  0.4428 -0.7562
  164SAPE   C3918494   0.511   3.558   7.130  0.3221  0.7196 -0.4033
  164SAPE   H9X18495   0.417   3.499   7.129  1.8576 -1.9687  1.8611
  164SAPE   H9Y18496   0.473   3.662   7.121  0.2364  0.8834  1.4497
  164SAPE  C31018497   0.582   3.537   7.265 -0.1159 -0.1240  0.3747
  164SAPE  H10X18498   0.650   3.624   7.277 -0.3239 -0.1434  1.9014
  164SAPE  H10Y18499   0.632   3.439   7.252  1.2803  0.2179  2.7104
  164SAPE  C31118500   0.477   3.536   7.379 -0.2190  0.1688  0.1033
  164SAPE  H11X18501   0.393   3.463   7.373  0.2644 -0.5418  1.5088
  164SAPE  H11Y18502   0.415   3.627   7.362 -2.0180 -0.8329  1.0132
  164SAPE  C31218503   0.534   3.551   7.519  0.2455 -0.0936  0.3062
  164SAPE  H12X18504   0.602   3.638   7.529  1.5538 -0.8138 -1.7958
  164SAPE  H12Y18505   0.608   3.468   7.531 -0.5096 -0.5978  1.7391
  164SAPE  C31318506   0.433   3.566   7.629  0.2441  0.4100  0.0227
  164SAPE  H13X18507   0.350   3.497   7.602  2.5657 -2.2997 -0.5825
  164SAPE  H13Y18508   0.385   3.666   7.620  1.2363  0.9186  0.2361
  164SAPE  C31418509   0.489   3.547   7.768 -0.3370 -0.4096 -0.2591
  164SAPE  H14X18510   0.556   3.632   7.792 -0.1886 -0.3457 -0.8866
  164SAPE  H14Y18511   0.552   3.455   7.773 -0.2068 -0.3041  0.0408
  164SAPE  C31518512   0.387   3.536   7.885 -0.2496  0.0778  0.1304
  164SAPE  H15X18513   0.311   3.462   7.854 -0.7202  0.3980  0.5191
  164SAPE  H15Y18514   0.332   3.632   7.889  0.2873  0.3857  0.2484
  164SAPE  C31618515   0.458   3.501   8.014  0.3245 -0.3422  0.1258
  164SAPE  H16X18516   0.557   3.551   8.019 -0.5823  1.5979 -0.3774
  164SAPE  H16Y18517   0.491   3.398   7.989 -1.3042 -0.7807 -0.3795
  164SAPE  C31718518   0.379   3.515   8.150 -0.1722 -0.3687  0.4280
  164SAPE  H17X18519   0.333   3.615   8.163  0.0506 -0.4108  1.7504
  164SAPE  H17Y18520   0.447   3.499   8.237  2.4999 -3.3152 -1.9796
  164SAPE  C31818521   0.264   3.420   8.166  0.3258  0.3794  0.4975
  164SAPE  H18X18522   0.232   3.417   8.273 -0.6038  0.1444  0.2253
  164SAPE  H18Y18523   0.298   3.317   8.142 -0.5033  0.3043 -0.4367
  164SAPE  H18Z18524   0.173   3.456   8.114  0.2703  0.4877  0.6683
  165SAPE     N18525   1.317   4.469   5.858 -0.2928 -0.2144  0.1424
  165SAPE   HN118526   1.315   4.438   5.759 -2.8533  0.7468 -0.1931
  165SAPE   HN218527   1.393   4.538   5.872 -1.9098  2.2555 -2.2603
  165SAPE   HN318528   1.329   4.385   5.919 -3.1590 -0.2841  0.7500
  165SAPE   C1218529   1.195   4.553   5.872 -0.1146  0.2712  0.2477
  165SAPE  H12A18530   1.110   4.482   5.865  0.5223 -0.6613  1.6358
  165SAPE  H12B18531   1.195   4.620   5.783  0.3347  0.8490  0.6734
  165SAPE   C1118532   1.187   4.628   6.005 -0.0223 -0.6950  0.2810
  165SAPE  H11A18533   1.082   4.666   6.010 -0.3438 -0.9868 -2.6866
  165SAPE  H11B18534   1.253   4.717   6.011 -0.1817 -0.6738  2.2204
  165SAPE     P18535   1.122   4.479   6.220  0.2330  0.5590 -0.3490
  165SAPE   O1318536   1.146   4.334   6.217 -0.1657  0.6718 -0.0988
  165SAPE   O1418537   1.134   4.553   6.350 -0.1487  0.3755  0.2708
  165SAPE   O1218538   1.212   4.540   6.114  0.2789 -0.5218 -0.9809
  165SAPE   O1118539   0.977   4.490   6.164  0.1942 -0.4547  0.1884
  165SAPE    C118540   0.856   4.418   6.180 -0.1430 -0.2424  0.0577
  165SAPE    HA18541   0.808   4.425   6.079  1.1491  0.4516 -0.5248
  165SAPE    HB18542   0.864   4.310   6.203 -2.2993 -0.4147  0.2035
  165SAPE    C218543   0.772   4.488   6.279  0.1779  0.0983  0.1386
  165SAPE    HS18544   0.771   4.599   6.270 -2.3162  0.4118  2.6975
  165SAPE   O2118545   0.826   4.447   6.410 -0.2895 -0.1946  0.4910
  165SAPE   C2118546   0.775   4.511   6.516 -0.3693 -0.0218  0.1104
  165SAPE   O2218547   0.698   4.605   6.515 -0.9637 -0.0388  0.0930
  165SAPE   C2218548   0.826   4.428   6.641  0.4159 -0.0255  0.4601
  165SAPE   H2R18549   0.793   4.322   6.642 -2.1609  0.6932 -0.8024
  165SAPE   H2S18550   0.937   4.437   6.640  0.7627 -3.1607  0.2647
  165SAPE    C318551   0.626   4.447   6.251 -0.0325 -0.0446 -0.3981
  165SAPE    HX18552   0.584   4.480   6.154 -1.4851 -0.7233 -0.0345
  165SAPE    HY18553   0.564   4.493   6.331  1.5587  0.2955  0.7043
  165SAPE   O3118554   0.610   4.301   6.258 -0.5723 -0.1290 -0.1798
  165SAPE   C3118555   0.553   4.240   6.371 -0.6842 -0.2525 -0.2105
  165SAPE   O3218556   0.482   4.297   6.451 -0.5000 -0.1847 -0.1724
  165SAPE   C3218557   0.581   4.087   6.382 -0.0999 -0.1488 -0.2491
  165SAPE   H2X18558   0.632   4.043   6.294  0.8779  0.0308  0.2220
  165SAPE   H2Y18559   0.484   4.039   6.407  0.0216 -0.9240 -1.2327
  165SAPE   C2318560   0.772   4.490   6.776  0.6109 -0.7423 -0.5867
  165SAPE   H3R18561   0.773   4.601   6.772 -0.8784 -0.6245  0.9846
  165SAPE   H3S18562   0.843   4.454   6.852  0.5266  1.9007  0.8517
  165SAPE   C2418563   0.621   4.465   6.802  0.8995  0.5915  0.0618
  165SAPE   H4R18564   0.581   4.475   6.699 -4.0168  0.2321  1.6887
  165SAPE   H4S18565   0.593   4.554   6.862 -0.2293 -0.4191  1.0920
  165SAPE   C2518566   0.588   4.339   6.876  0.4013  0.1624 -0.1726
  165SAPE   H5R18567   0.577   4.247   6.817  0.2213 -0.2066  0.4275
  165SAPE   C2618568   0.597   4.330   7.009 -0.4123  0.5331 -0.4074
  165SAPE   H6R18569   0.577   4.229   7.047 -1.5221  0.3707 -1.3439
  165SAPE   C2718570   0.636   4.434   7.119 -0.2857  0.0459 -0.6409
  165SAPE   H7R18571   0.589   4.397   7.212  0.1622 -1.9062 -1.1373
  165SAPE   H7S18572   0.584   4.530   7.099  1.4699  1.4901  1.3010
  165SAPE   C2818573   0.781   4.458   7.148  0.3490  0.4968  0.4083
  165SAPE   H8R18574   0.826   4.519   7.069 -0.3411  2.2720  1.3399
  165SAPE   C2918575   0.855   4.411   7.255 -0.4720 -1.3718 -0.3469
  165SAPE   H9R18576   0.959   4.444   7.266 -0.9233 -0.0424  0.1727
  165SAPE  C21018577   0.795   4.319   7.360 -0.5422 -0.3520 -0.6605
  165SAPE  H10R18578   0.869   4.251   7.408 -1.9193 -0.4462  1.5274
  165SAPE  H10S18579   0.715   4.252   7.321 -4.1835  2.8591  0.6027
  165SAPE  C21118580   0.726   4.403   7.464  0.4013 -0.1428 -0.4569
  165SAPE  H11R18581   0.629   4.439   7.426  0.2490  0.3840  0.3994
  165SAPE  C21218582   0.753   4.436   7.594 -0.8551 -0.0546  0.7659
  165SAPE  H12R18583   0.682   4.496   7.652 -2.2505  0.8316 -1.6797
  165SAPE  C21318584   0.874   4.381   7.666 -0.4918  0.6736 -0.2724
  165SAPE  H13R18585   0.958   4.452   7.676  1.7264 -2.0853  3.5582
  165SAPE  H13S18586   0.907   4.284   7.622 -0.8686  0.2134  0.4425
  165SAPE  C21418587   0.841   4.353   7.813  0.0484  0.3774 -0.9955
  165SAPE  H14R18588   0.758   4.283   7.828 -1.0934  1.4537 -2.1741
  165SAPE  C21518589   0.908   4.410   7.920  0.0900 -0.5724 -0.2103
  165SAPE  H15R18590   0.885   4.380   8.023  2.7161  1.4900  1.1047
  165SAPE  C21618591   1.020   4.511   7.910  0.1309  0.2349  0.8000
  165SAPE  H16R18592   0.983   4.613   7.886 -0.5256  0.1597  1.4639
  165SAPE  H16S18593   1.089   4.480   7.828  0.4730 -0.7390  1.4360
  165SAPE  C21718594   1.113   4.518   8.030  0.0617 -1.1713 -0.3504
  165SAPE  H17R18595   1.194   4.588   8.004 -0.1306 -0.4067  0.9858
  165SAPE  H17S18596   1.163   4.420   8.050 -0.0238 -1.5838 -2.0422
  165SAPE  C21818597   1.049   4.571   8.161  0.6455 -0.0272 -0.0310
  165SAPE  H18R18598   1.001   4.488   8.218  0.5606  0.2443  0.3011
  165SAPE  H18S18599   0.984   4.661   8.158  1.5991  0.6919  0.3233
  165SAPE  C21918600   1.155   4.633   8.262 -0.1582  0.3160  0.2425
  165SAPE  H19R18601   1.192   4.725   8.212  2.2007 -0.4041  0.5568
  165SAPE  H19S18602   1.225   4.547   8.268 -2.3560 -1.6479 -0.7194
  165SAPE  C22018603   1.107   4.676   8.403  0.3882  0.2711 -0.6085
  165SAPE  H20R18604   1.055   4.590   8.449  0.2064  0.5552 -0.2805
  165SAPE  H20S18605   1.038   4.761   8.383 -0.2809 -0.4777 -1.5560
  165SAPE  H20T18606   1.199   4.705   8.457  0.6130  0.9680 -1.3427
  165SAPE   C3318607   0.678   4.079   6.498 -0.6069  1.2218 -0.1412
  165SAPE   H3X18608   0.653   4.159   6.571  0.5063  1.9185 -0.5035
  165SAPE   H3Y18609   0.784   4.096   6.471 -1.1129  1.7289 -1.9356
  165SAPE   C3418610   0.674   3.931   6.549  0.5373 -1.1319  0.2868
  165SAPE   H4X18611   0.706   3.861   6.470 -0.1890 -0.0480 -1.0137
  165SAPE   H4Y18612   0.568   3.901   6.561 -0.4108  0.5620 -2.7939
  165SAPE   C3518613   0.745   3.901   6.682 -0.4502  0.3281 -0.2998
  165SAPE   H5X18614   0.838   3.961   6.690 -1.1376  1.3716  0.0733
  165SAPE   H5Y18615   0.768   3.792   6.691 -2.6683 -0.2036 -0.5164
  165SAPE   C3618616   0.655   3.932   6.805  0.0839  0.5869 -0.1270
  165SAPE   H6X18617   0.551   3.899   6.787  0.7553 -2.1225  0.5542
  165SAPE   H6Y18618   0.651   4.043   6.815 -1.1188  0.7687 -2.1097
  165SAPE   C3718619   0.715   3.887   6.941  0.0760 -0.4295 -0.1225
  165SAPE   H7X18620   0.814   3.936   6.932 -1.0254  1.5381 -2.6772
  165SAPE   H7Y18621   0.724   3.776   6.948  1.7432 -0.2442  1.8505
  165SAPE   C3818622   0.635   3.928   7.064  0.1372 -0.2090  0.7480
  165SAPE   H8X18623   0.546   3.862   7.076  0.0924 -0.8510 -2.3374
  165SAPE   H8Y18624   0.601   4.034   7.064 -1.0891 -0.5828  0.1542
  165SAPE   C3918625   0.707   3.890   7.196 -1.2480 -0.0736  0.8383
  165SAPE   H9X18626   0.793   3.959   7.216 -1.2821 -0.6987  3.5407
  165SAPE   H9Y18627   0.726   3.781   7.188  0.0152  0.2368 -1.3373
  165SAPE  C31018628   0.628   3.927   7.323 -0.1570  0.5191  0.9118
  165SAPE  H10X18629   0.554   3.844   7.332 -2.2373  1.8862 -1.8855
  165SAPE  H10Y18630   0.569   4.018   7.298  0.3912  0.4772 -0.6875
  165SAPE  C31118631   0.716   3.950   7.450  0.3928 -0.4640 -0.6458
  165SAPE  H11X18632   0.799   4.023   7.441  0.6848 -0.9099 -1.7486
  165SAPE  H11Y18633   0.772   3.856   7.466 -0.8417 -1.1728 -0.3475
  165SAPE  C31218634   0.626   3.970   7.573  0.2578  0.1225 -0.0688
  165SAPE  H12X18635   0.556   3.883   7.579 -1.3620  1.0783 -2.7454
  165SAPE  H12Y18636   0.555   4.056   7.567 -2.1617 -1.3911  3.3556
  165SAPE  C31318637   0.716   3.977   7.697  0.7733 -0.2092  0.3508
  165SAPE  H13X18638   0.799   4.050   7.686  1.4992 -1.2451 -1.4129
  165SAPE  H13Y18639   0.767   3.879   7.695 -0.9496 -1.1887  1.9233
  165SAPE  C31418640   0.631   3.993   7.827 -0.2921  0.5750 -0.2159
  165SAPE  H14X18641   0.552   3.915   7.819 -0.1201  0.5198 -1.8063
  165SAPE  H14Y18642   0.585   4.094   7.828 -3.0540 -0.5456  2.4039
  165SAPE  C31518643   0.705   3.973   7.958 -0.5287  0.5077  0.0743
  165SAPE  H15X18644   0.773   4.061   7.964 -2.3641  1.9654  0.3769
  165SAPE  H15Y18645   0.770   3.884   7.943  2.0793  2.1192  1.1265
  165SAPE  C31618646   0.613   3.971   8.077 -0.3160 -0.1097  0.3477
  165SAPE  H16X18647   0.567   3.871   8.098 -1.0284  0.7377  3.2798
  165SAPE  H16Y18648   0.536   4.042   8.039  0.1296  1.0299  1.5238
  165SAPE  C31718649   0.690   4.020   8.205 -0.2853 -0.4029 -0.1480
  165SAPE  H17X18650   0.720   4.127   8.197  0.6573 -0.7463 -1.6324
  165SAPE  H17Y18651   0.780   3.956   8.201  0.0822  0.1464 -0.8532
  165SAPE  C31818652   0.619   4.015   8.344 -0.4601 -0.0687  0.0844
  165SAPE  H18X18653   0.516   4.054   8.331 -0.9440 -1.0462  0.8919
  165SAPE  H18Y18654   0.674   4.076   8.418 -0.4436 -0.6030  0.5145
  165SAPE  H18Z18655   0.612   3.911   8.382  1.9983  0.4171  2.1531
  166SAPE     N18656   2.489   5.851   6.261  0.8753 -0.1301 -0.3051
  166SAPE   HN118657   2.413   5.787   6.292  0.0777 -0.2983 -2.4492
  166SAPE   HN218658   2.587   5.815   6.266  0.4806 -1.1496  0.2914
  166SAPE   HN318659   2.485   5.932   6.326  2.2235 -0.2552 -0.0386
  166SAPE   C1218660   2.454   5.891   6.120 -0.2260 -0.4301 -0.2085
  166SAPE  H12A18661   2.526   5.842   6.050  0.2960  0.1589 -0.0947
  166SAPE  H12B18662   2.477   5.998   6.103  2.7844 -0.7638  1.0066
  166SAPE   C1118663   2.303   5.867   6.093 -0.6138  1.2634  0.3673
  166SAPE  H11A18664   2.268   5.897   5.992 -0.5617 -1.6616 -0.6014
  166SAPE  H11B18665   2.238   5.931   6.157 -1.1324 -0.2663  1.4251
  166SAPE     P18666   2.290   5.619   6.010  0.0347  0.2026 -0.7189
  166SAPE   O1318667   2.177   5.629   5.911 -0.2595 -0.2444 -0.2025
  166SAPE   O1418668   2.425   5.638   5.955  0.2477  0.0178 -0.2462
  166SAPE   O1218669   2.270   5.730   6.119 -0.3095 -0.2336 -0.4854
  166SAPE   O1118670   2.272   5.488   6.098  0.6515  0.3138 -0.0653
  166SAPE    C118671   2.348   5.476   6.223 -0.6168 -0.1480  0.4151
  166SAPE    HA18672   2.409   5.386   6.203 -2.2765 -1.9578  2.8767
  166SAPE    HB18673   2.420   5.556   6.250  3.7772 -3.9577  1.2569
  166SAPE    C218674   2.251   5.444   6.341 -0.4649 -0.0121  0.1875
  166SAPE    HS18675   2.191   5.357   6.305 -0.7344  0.5178 -0.6753
  166SAPE   O2118676   2.161   5.553   6.365 -0.2821 -0.6536  0.8273
  166SAPE   C2118677   2.210   5.670   6.415 -0.6722 -0.2765  0.3709
  166SAPE   O2218678   2.330   5.701   6.414 -0.4931  0.2826  0.4965
  166SAPE   C2218679   2.103   5.756   6.481 -0.4120  0.5665  0.0184
  166SAPE   H2R18680   2.155   5.853   6.494  0.6571 -0.0744  0.7148
  166SAPE   H2S18681   2.012   5.777   6.420 -0.3985  2.1811  0.5075
  166SAPE    C318682   2.326   5.398   6.472  0.8298  0.1800  0.3211
  166SAPE    HX18683   2.403   5.476   6.493  0.3682  0.6867  0.1460
  166SAPE    HY18684   2.372   5.298   6.456 -1.4503 -0.7910 -0.6522
  166SAPE   O3118685   2.235   5.399   6.589 -0.0076 -0.2567  0.2986
  166SAPE   C3118686   2.294   5.348   6.701 -0.8252  0.0613  0.4287
  166SAPE   O3218687   2.417   5.330   6.710 -0.5255 -0.6049  0.0300
  166SAPE   C3218688   2.181   5.344   6.806 -0.1319  0.1271 -0.4193
  166SAPE   H2X18689   2.117   5.257   6.778  0.7047 -0.3893 -0.7815
  166SAPE   H2Y18690   2.129   5.442   6.804  0.6104  0.5642  0.6659
  166SAPE   C2318691   2.061   5.694   6.617 -1.3253 -0.2712 -0.6959
  166SAPE   H3R18692   2.153   5.678   6.678 -2.4402  1.4804  1.6060
  166SAPE   H3S18693   2.012   5.598   6.590 -2.8174 -0.0474  0.9918
  166SAPE   C2418694   1.966   5.780   6.705  0.0765 -0.2784 -0.1087
  166SAPE   H4R18695   1.945   5.721   6.796 -2.3916  0.4214 -0.1524
  166SAPE   H4S18696   1.867   5.783   6.654  0.4450  1.6676 -0.8117
  166SAPE   C2518697   2.002   5.930   6.728 -0.0271 -0.1052 -0.9081
  166SAPE   H5R18698   2.032   5.989   6.641  3.6817  1.5811  1.2863
  166SAPE   C2618699   2.017   5.988   6.849  0.2138  0.0013 -0.3984
  166SAPE   H6R18700   2.033   6.095   6.869  1.3887 -0.4905  1.5751
  166SAPE   C2718701   1.991   5.913   6.973 -0.2181  0.1012 -0.1580
  166SAPE   H7R18702   2.065   5.830   6.962 -0.7719 -0.3729 -0.3761
  166SAPE   H7S18703   1.891   5.864   6.972 -0.7043  0.8573  2.5320
  166SAPE   C2818704   2.023   5.980   7.099 -0.0529 -0.4762 -0.2135
  166SAPE   H8R18705   2.036   6.089   7.087  1.0940 -0.7135 -1.3194
  166SAPE   C2918706   2.026   5.928   7.221 -0.0878  0.4123 -0.6416
  166SAPE   H9R18707   2.053   5.991   7.307 -2.1895  0.2336  0.2054
  166SAPE  C21018708   2.010   5.785   7.259  0.4565  0.2642 -0.4841
  166SAPE  H10R18709   1.972   5.712   7.186  0.8323 -0.7028  0.2607
  166SAPE  H10S18710   1.925   5.783   7.331  1.3024  0.5871  0.5524
  166SAPE  C21118711   2.136   5.732   7.318 -0.0422  0.0201  0.0528
  166SAPE  H11R18712   2.211   5.754   7.240 -0.7658  1.3880 -0.2968
  166SAPE  C21218713   2.157   5.664   7.432  0.2315 -0.3495  0.0376
  166SAPE  H12R18714   2.256   5.625   7.459  1.2594  1.5573 -0.7802
  166SAPE  C21318715   2.052   5.624   7.530 -0.3051 -0.9393 -0.0160
  166SAPE  H13R18716   2.028   5.518   7.507  1.9733 -2.4893  3.7206
  166SAPE  H13S18717   1.962   5.689   7.524  0.5528  0.1285 -2.7024
  166SAPE  C21418718   2.098   5.629   7.678 -0.0898  0.2006 -0.4043
  166SAPE  H14R18719   2.186   5.693   7.691  0.6799 -1.0188  0.6044
  166SAPE  C21518720   2.044   5.565   7.784  0.2195  0.4034 -0.5720
  166SAPE  H15R18721   2.095   5.563   7.881  0.0573 -0.4180 -0.4933
  166SAPE  C21618722   1.931   5.464   7.789 -0.1072 -0.5849 -0.5134
  166SAPE  H16R18723   1.945   5.406   7.883  0.2075 -1.7696 -1.2668
  166SAPE  H16S18724   1.938   5.399   7.699  2.5451 -1.5601  0.3001
  166SAPE  C21718725   1.795   5.531   7.804  0.0929  0.9093 -0.4146
  166SAPE  H17R18726   1.707   5.467   7.782 -0.0667  1.6721 -2.1822
  166SAPE  H17S18727   1.780   5.624   7.746  0.5774  2.8699  2.4207
  166SAPE  C21818728   1.772   5.571   7.959 -0.2226 -0.9752 -0.4168
  166SAPE  H18R18729   1.856   5.637   7.992 -1.4220  0.6601 -0.4928
  166SAPE  H18S18730   1.790   5.481   8.021  1.4637 -0.5670 -0.2378
  166SAPE  C21918731   1.642   5.639   7.988 -0.4528  0.2426  0.3563
  166SAPE  H19R18732   1.621   5.733   7.932 -1.3787  1.1056  2.0673
  166SAPE  H19S18733   1.657   5.654   8.097 -0.4019  0.2317  0.3504
  166SAPE  C22018734   1.524   5.550   7.994  0.4211 -0.2097  0.9045
  166SAPE  H20R18735   1.440   5.619   8.018 -0.1586  0.7164 -3.0404
  166SAPE  H20S18736   1.539   5.469   8.067  2.4906 -2.4336 -1.7508
  166SAPE  H20T18737   1.493   5.496   7.902  1.1765  0.9307 -0.0693
  166SAPE   C3318738   2.244   5.327   6.950  0.5283 -0.0777  0.6553
  166SAPE   H3X18739   2.335   5.264   6.952  0.3699 -0.2870  1.4887
  166SAPE   H3Y18740   2.170   5.282   7.020  1.3565 -1.6687  0.5334
  166SAPE   C3418741   2.287   5.460   7.006 -0.2772  0.2067 -0.5345
  166SAPE   H4X18742   2.210   5.540   6.991 -0.9060 -0.0306  1.1911
  166SAPE   H4Y18743   2.379   5.494   6.955 -0.9261  2.2267 -0.4662
  166SAPE   C3518744   2.303   5.456   7.156  0.2658  0.2175 -1.0244
  166SAPE   H5X18745   2.204   5.443   7.206  1.2729 -0.4877  0.9115
  166SAPE   H5Y18746   2.340   5.552   7.198  1.4856 -1.3897  1.8477
  166SAPE   C3618747   2.396   5.343   7.213  0.9768  0.0356  0.0375
  166SAPE   H6X18748   2.492   5.376   7.166  0.0083  1.0010 -1.3766
  166SAPE   H6Y18749   2.363   5.243   7.177 -3.0493  1.1062  0.2078
  166SAPE   C3718750   2.392   5.339   7.365  0.0137  0.0454  0.1474
  166SAPE   H7X18751   2.287   5.337   7.401 -0.2559 -0.5330 -0.6372
  166SAPE   H7Y18752   2.424   5.438   7.405  1.9102  0.5598 -2.4028
  166SAPE   C3818753   2.480   5.231   7.434  0.0046  0.0542  0.2197
  166SAPE   H8X18754   2.583   5.236   7.392  0.3731  1.1718  1.1936
  166SAPE   H8Y18755   2.432   5.133   7.414  0.2490  0.4126 -2.5520
  166SAPE   C3918756   2.485   5.252   7.587  0.3416 -0.1384 -0.4413
  166SAPE   H9X18757   2.496   5.361   7.602  0.0503 -0.1773  0.0540
  166SAPE   H9Y18758   2.574   5.200   7.630  0.6716  1.6260  1.1050
  166SAPE  C31018759   2.359   5.198   7.664  0.1666  0.3978  0.0440
  166SAPE  H10X18760   2.358   5.088   7.682 -0.2010  0.5316  0.9194
  166SAPE  H10Y18761   2.268   5.221   7.604  0.9922  0.1148 -1.3490
  166SAPE  C31118762   2.349   5.256   7.807 -0.2546  0.8263  0.2986
  166SAPE  H11X18763   2.333   5.366   7.801 -0.8830  0.7173 -0.1448
  166SAPE  H11Y18764   2.441   5.239   7.866 -0.8371 -1.8388  0.5321
  166SAPE  C31218765   2.234   5.187   7.880  0.0272  0.0808 -0.7334
  166SAPE  H12X18766   2.256   5.080   7.902 -0.9791  0.2639  1.3935
  166SAPE  H12Y18767   2.144   5.182   7.815 -0.4075 -2.4040 -0.0446
  166SAPE  C31318768   2.195   5.261   8.012 -0.5348 -0.2644 -0.1752
  166SAPE  H13X18769   2.141   5.352   7.979  0.2519  0.3467  0.1781
  166SAPE  H13Y18770   2.283   5.284   8.076 -0.4458  0.6787 -0.6186
  166SAPE  C31418771   2.097   5.184   8.092  0.5788  0.0896 -0.2046
  166SAPE  H14X18772   2.147   5.088   8.117  0.1451 -1.0388 -3.1593
  166SAPE  H14Y18773   2.014   5.162   8.021  1.9682 -1.1219 -1.5469
  166SAPE  C31518774   2.052   5.266   8.211 -0.1100 -0.4774 -0.3667
  166SAPE  H15X18775   1.992   5.346   8.163 -0.1040 -0.2529 -0.0028
  166SAPE  H15Y18776   2.137   5.306   8.271 -1.3604 -0.7308  1.6824
  166SAPE  C31618777   1.951   5.193   8.292  0.3681 -0.1324 -0.2429
  166SAPE  H16X18778   1.970   5.084   8.283 -0.3775 -0.1516 -1.9892
  166SAPE  H16Y18779   1.850   5.204   8.248  1.1334 -2.1308 -2.7355
  166SAPE  C31718780   1.946   5.236   8.442  0.7813 -0.1858  0.1047
  166SAPE  H17X18781   1.970   5.345   8.445  0.6961 -0.1925  1.1629
  166SAPE  H17Y18782   2.019   5.185   8.509  0.4279  0.2246  0.8142
  166SAPE  C31818783   1.805   5.223   8.502 -0.0479  0.2490 -0.2361
  166SAPE  H18X18784   1.725   5.281   8.452 -1.4834  0.9235  2.6161
  166SAPE  H18Y18785   1.800   5.277   8.599 -1.8865  1.6982 -1.0607
  166SAPE  H18Z18786   1.776   5.116   8.508  0.4632  0.1843  2.1365
  167SAPE     N18787   1.593   6.632   6.356  0.0249 -1.0088 -0.5786
  167SAPE   HN118788   1.684   6.607   6.312 -0.0129 -0.8591 -0.7432
  167SAPE   HN218789   1.561   6.563   6.427  0.0173  0.9388  1.4254
  167SAPE   HN318790   1.519   6.646   6.284  0.8284  0.0277 -1.2245
  167SAPE   C1218791   1.619   6.769   6.429 -0.4022 -0.1032 -0.3159
  167SAPE  H12A18792   1.718   6.747   6.475  0.9201  1.8439 -2.0333
  167SAPE  H12B18793   1.545   6.771   6.512 -0.5049 -2.1653 -0.3196
  167SAPE   C1118794   1.619   6.883   6.326 -0.2741 -0.1267  0.0423
  167SAPE  H11A18795   1.634   6.975   6.387  2.4604 -0.8780  0.6696
  167SAPE  H11B18796   1.516   6.882   6.285  0.5643 -2.0562 -2.2407
  167SAPE     P18797   1.868   6.932   6.236  0.0161 -0.3184  0.2529
  167SAPE   O1318798   1.965   6.833   6.185 -0.6194  0.4464  0.5793
  167SAPE   O1418799   1.867   7.067   6.177  0.2242  0.3998 -0.6573
  167SAPE   O1218800   1.719   6.877   6.223  0.3862 -0.5727  0.4009
  167SAPE   O1118801   1.896   6.944   6.392 -0.0234  0.2681 -0.3144
  167SAPE    C118802   2.006   6.882   6.456 -0.2617 -0.4099 -0.3476
  167SAPE    HA18803   2.045   6.790   6.407 -2.4206 -2.2033  1.0931
  167SAPE    HB18804   2.090   6.953   6.470 -0.8574  0.3557 -0.5544
  167SAPE    C218805   1.967   6.842   6.607 -0.0162 -0.8527 -0.1111
  167SAPE    HS18806   2.055   6.858   6.673 -0.4917 -1.6304  0.7181
  167SAPE   O2118807   1.919   6.713   6.611  0.7771  0.4059  0.4632
  167SAPE   C2118808   2.006   6.621   6.604  0.0803 -0.3835  0.7397
  167SAPE   O2218809   2.125   6.638   6.604 -0.4944 -0.4230  0.1930
  167SAPE   C2218810   1.932   6.489   6.590  0.3197  0.0310 -0.4834
  167SAPE   H2R18811   1.821   6.500   6.596  0.4782  1.6306  0.2194
  167SAPE   H2S18812   1.960   6.451   6.490  1.9032  2.0623 -0.8761
  167SAPE    C318813   1.857   6.937   6.655  0.1912  0.3590 -1.0975
  167SAPE    HX18814   1.771   6.928   6.584  1.6877  1.0384 -3.1049
  167SAPE    HY18815   1.899   7.039   6.648 -1.9465  1.4077  0.3408
  167SAPE   O3118816   1.826   6.909   6.796 -0.2209 -0.1029 -0.0981
  167SAPE   C3118817   1.708   6.860   6.819 -0.0858 -0.4596 -1.3668
  167SAPE   O3218818   1.613   6.851   6.742  0.1637  0.0688 -0.3657
  167SAPE   C3218819   1.694   6.833   6.975 -0.2129 -0.5315  0.0752
  167SAPE   H2X18820   1.738   6.924   7.021 -0.7911 -1.4016  2.4878
  167SAPE   H2Y18821   1.740   6.733   6.992  2.4495 -0.1286 -3.5275
  167SAPE   C2318822   1.978   6.381   6.686 -0.6527  0.6081 -0.7243
  167SAPE   H3R18823   2.083   6.352   6.669 -0.8414  0.6277 -2.0346
  167SAPE   H3S18824   1.925   6.285   6.670  0.9443 -0.7862  1.7958
  167SAPE   C2418825   1.966   6.401   6.834  0.2449  0.3715 -0.0256
  167SAPE   H4R18826   2.045   6.472   6.866  0.0472  0.3559  0.5078
  167SAPE   H4S18827   1.988   6.302   6.879 -1.1681 -0.8107 -1.8081
  167SAPE   C2518828   1.827   6.454   6.883  0.2374  0.3441 -0.0674
  167SAPE   H5R18829   1.781   6.537   6.828  1.3372  0.0189 -1.5486
  167SAPE   C2618830   1.775   6.425   7.007 -0.2184  0.5301  0.3987
  167SAPE   H6R18831   1.673   6.464   7.020 -0.4357  0.7568 -1.7115
  167SAPE   C2718832   1.815   6.335   7.119  0.1935  0.1182 -0.0042
  167SAPE   H7R18833   1.790   6.228   7.099 -1.2430  0.4834 -0.2674
  167SAPE   H7S18834   1.759   6.364   7.211  1.5071  0.1016  0.8355
  167SAPE   C2818835   1.961   6.360   7.159  0.0540  0.0928  0.2078
  167SAPE   H8R18836   2.035   6.294   7.113  0.6657  3.8257 -5.0755
  167SAPE   C2918837   2.005   6.456   7.243  0.4905 -0.8896 -0.7686
  167SAPE   H9R18838   2.113   6.464   7.264  0.4429 -3.3527  0.8518
  167SAPE  C21018839   1.923   6.550   7.327  0.0352 -0.8419 -0.5375
  167SAPE  H10R18840   1.838   6.605   7.281  0.3496 -1.0000 -1.3135
  167SAPE  H10S18841   1.988   6.635   7.355  0.7782 -2.0187  1.5715
  167SAPE  C21118842   1.863   6.487   7.448  0.2362  0.2563 -0.1410
  167SAPE  H11R18843   1.796   6.402   7.426 -1.3713  1.5191 -0.3297
  167SAPE  C21218844   1.900   6.512   7.576 -0.2878 -0.2432 -0.6922
  167SAPE  H12R18845   1.839   6.469   7.657  0.8282 -1.1399 -0.3115
  167SAPE  C21318846   2.014   6.608   7.619  0.2948  0.1913  0.1136
  167SAPE  H13R18847   2.058   6.683   7.550  2.1929 -2.7842 -2.1256
  167SAPE  H13S18848   2.105   6.554   7.653 -1.4359 -0.9998  3.3946
  167SAPE  C21418849   1.966   6.681   7.744  1.0001 -0.0742 -0.4386
  167SAPE  H14R18850   1.893   6.761   7.726 -0.4333 -1.5432 -1.4331
  167SAPE  C21518851   1.974   6.628   7.872 -0.0006 -0.3345  0.0684
  167SAPE  H15R18852   1.945   6.698   7.952  0.7438  2.4897 -1.9738
  167SAPE  C21618853   2.045   6.504   7.929 -0.4622  1.0119 -0.0781
  167SAPE  H16R18854   2.141   6.502   7.872 -0.8134 -0.8697 -0.6669
  167SAPE  H16S18855   1.997   6.408   7.900  0.4320  0.4730  0.1601
  167SAPE  C21718856   2.069   6.504   8.086 -0.2256  0.5952  0.5714
  167SAPE  H17R18857   1.970   6.469   8.120 -0.2127  0.7895  0.8090
  167SAPE  H17S18858   2.098   6.608   8.114  1.5955  0.4553 -0.6091
  167SAPE  C21818859   2.172   6.406   8.142 -0.3113  0.0075  0.2233
  167SAPE  H18R18860   2.269   6.443   8.103 -0.6903  0.7812 -0.0125
  167SAPE  H18S18861   2.151   6.307   8.097  0.3412  0.4005 -0.9915
  167SAPE  C21918862   2.178   6.389   8.293  0.3927 -0.6863  1.0237
  167SAPE  H19R18863   2.256   6.314   8.318  1.8374 -0.9200 -3.3510
  167SAPE  H19S18864   2.082   6.342   8.325  0.1385 -0.4194  0.6591
  167SAPE  C22018865   2.219   6.517   8.373 -0.2346 -0.0146 -0.0904
  167SAPE  H20R18866   2.237   6.485   8.478 -0.4910  0.7318  0.1855
  167SAPE  H20S18867   2.134   6.588   8.373 -0.1707  0.0758  0.9545
  167SAPE  H20T18868   2.310   6.562   8.329  0.5570  0.9254  2.3328
  167SAPE   C3318869   1.555   6.825   7.031  0.3562 -0.2552 -0.2209
  167SAPE   H3X18870   1.510   6.746   6.968 -1.2199  0.0780  0.4265
  167SAPE   H3Y18871   1.496   6.916   7.004 -0.7793 -1.1911 -0.9758
  167SAPE   C3418872   1.550   6.795   7.178  0.1451 -0.8083  0.6550
  167SAPE   H4X18873   1.616   6.708   7.199  1.1174 -0.4949 -0.9262
  167SAPE   H4Y18874   1.444   6.766   7.199  0.4879 -1.7690  1.1098
  167SAPE   C3518875   1.595   6.916   7.265 -0.0289  0.4736 -0.2846
  167SAPE   H5X18876   1.509   6.986   7.257 -0.1069  0.5397  0.9099
  167SAPE   H5Y18877   1.685   6.972   7.231 -0.0132  1.4533  1.2994
  167SAPE   C3618878   1.625   6.859   7.400  0.1652 -0.2067 -1.2182
  167SAPE   H6X18879   1.722   6.806   7.410  0.0752 -0.4386 -1.5739
  167SAPE   H6Y18880   1.541   6.794   7.431  0.5614 -0.1047  0.1361
  167SAPE   C3718881   1.638   6.974   7.508  0.0120  0.7423  0.7519
  167SAPE   H7X18882   1.670   7.072   7.467 -2.2356  1.7402  1.2245
  167SAPE   H7Y18883   1.712   6.934   7.581  0.9888  1.5743  0.2445
  167SAPE   C3818884   1.511   7.003   7.587  0.4516  0.0955 -0.4670
  167SAPE   H8X18885   1.464   6.903   7.602 -0.2014  0.3357 -0.8782
  167SAPE   H8Y18886   1.444   7.057   7.517 -1.6141 -0.7669  0.7479
  167SAPE   C3918887   1.533   7.096   7.708  0.2600 -0.0441  0.5167
  167SAPE   H9X18888   1.437   7.130   7.753  1.0202  2.1462  0.6076
  167SAPE   H9Y18889   1.589   7.186   7.673  0.3280  0.1191  1.0318
  167SAPE  C31018890   1.615   7.036   7.816 -0.2904  0.2521 -0.9143
  167SAPE  H10X18891   1.623   7.106   7.902  2.0377 -1.1582  0.1077
  167SAPE  H10Y18892   1.721   7.026   7.782 -0.6935  0.6060 -2.3528
  167SAPE  C31118893   1.568   6.903   7.875 -0.6908 -0.8465  0.0764
  167SAPE  H11X18894   1.586   6.840   7.785  3.0639  2.0191 -1.4628
  167SAPE  H11Y18895   1.461   6.904   7.905 -0.4495 -1.0975  0.9572
  167SAPE  C31218896   1.666   6.851   7.981 -0.0114 -0.1074 -0.3901
  167SAPE  H12X18897   1.639   6.893   8.080 -1.4220 -1.4693 -0.1584
  167SAPE  H12Y18898   1.771   6.874   7.955  0.5229 -1.4260  0.4727
  167SAPE  C31318899   1.646   6.700   8.014 -0.2231 -0.3129  0.2941
  167SAPE  H13X18900   1.672   6.643   7.922  1.8131  1.1612 -0.1084
  167SAPE  H13Y18901   1.543   6.677   8.049  0.7276 -2.9995  1.6136
  167SAPE  C31418902   1.728   6.658   8.136  0.3252  0.5546  0.0629
  167SAPE  H14X18903   1.703   6.722   8.224  2.5928  1.8093 -0.1202
  167SAPE  H14Y18904   1.833   6.696   8.128  0.1719  0.9586 -0.0514
  167SAPE  C31518905   1.699   6.514   8.185 -0.3938  0.4387 -0.5199
  167SAPE  H15X18906   1.719   6.441   8.103 -0.4833 -1.4454  1.0739
  167SAPE  H15Y18907   1.589   6.509   8.197 -0.5135 -1.7625 -1.9656
  167SAPE  C31618908   1.776   6.476   8.314  0.5486  0.1321  0.4091
  167SAPE  H16X18909   1.749   6.557   8.385  2.3214 -1.0609  2.5707
  167SAPE  H16Y18910   1.886   6.484   8.300  1.0751 -2.2963  2.4760
  167SAPE  C31718911   1.756   6.338   8.379  0.2706 -0.0461 -0.0014
  167SAPE  H17X18912   1.812   6.270   8.311  0.1144  2.5385 -2.9331
  167SAPE  H17Y18913   1.647   6.318   8.390  0.4681 -0.6866  0.9714
  167SAPE  C31818914   1.825   6.335   8.519 -0.0362 -0.4196 -0.4749
  167SAPE  H18X18915   1.931   6.370   8.514 -0.6513  1.4231 -1.2914
  167SAPE  H18Y18916   1.823   6.228   8.551 -1.3235 -0.1532  0.4065
  167SAPE  H18Z18917   1.776   6.393   8.600  0.0087  0.1006 -0.8175
  168SAPE     N18918   1.853   3.197   6.415 -0.0486  0.0426 -0.1217
  168SAPE   HN118919   1.910   3.279   6.388  1.2553 -0.5051  0.8652
  168SAPE   HN218920   1.751   3.214   6.427  0.2381  1.1351  0.9582
  168SAPE   HN318921   1.888   3.166   6.508  0.3070  1.1524  0.1264
  168SAPE   C1218922   1.884   3.086   6.319  0.5630 -1.1857 -0.0919
  168SAPE  H12A18923   1.993   3.063   6.323  0.8967  0.3945  0.5875
  168SAPE  H12B18924   1.841   3.116   6.221 -0.8972 -0.5563  0.7042
  168SAPE   C1118925   1.804   2.965   6.364 -0.8647  0.1163  0.1244
  168SAPE  H11A18926   1.703   3.001   6.393 -0.7978  0.6746 -0.3055
  168SAPE  H11B18927   1.850   2.926   6.457 -1.7692 -0.7840  0.2165
  168SAPE     P18928   1.880   2.737   6.269 -0.4323  0.0304  0.0665
  168SAPE   O1318929   1.845   2.665   6.147  0.1869  0.0319 -0.3434
  168SAPE   O1418930   2.019   2.781   6.287 -0.2013 -0.1987  0.4633
  168SAPE   O1218931   1.795   2.870   6.260  0.0892 -0.1092 -0.4365
  168SAPE   O1118932   1.822   2.678   6.398 -0.4975  0.5533 -0.0249
  168SAPE    C118933   1.912   2.597   6.486 -0.0529  0.0102 -0.0477
  168SAPE    HA18934   1.905   2.490   6.459 -0.8062 -0.2537  1.0963
  168SAPE    HB18935   2.020   2.624   6.478 -0.4025  1.2419 -0.7072
  168SAPE    C218936   1.861   2.612   6.631 -0.6354  0.4207 -0.6849
  168SAPE    HS18937   1.928   2.543   6.688 -2.1784 -0.5787 -0.0138
  168SAPE   O2118938   1.719   2.583   6.640 -0.0613  0.0215 -0.2596
  168SAPE   C2118939   1.697   2.459   6.674 -0.3220  0.4189  0.4977
  168SAPE   O2218940   1.778   2.367   6.673  0.1891  0.5204 -0.1221
  168SAPE   C2218941   1.559   2.447   6.733  0.1375  0.7274 -0.1753
  168SAPE   H2R18942   1.561   2.449   6.844 -2.5618 -1.3388  0.0015
  168SAPE   H2S18943   1.494   2.531   6.702  0.0007  0.9902  0.7874
  168SAPE    C318944   1.878   2.748   6.678 -0.6839 -0.3860  0.2071
  168SAPE    HX18945   1.800   2.814   6.634  0.2723  1.7836  1.5771
  168SAPE    HY18946   1.975   2.789   6.644 -1.2359  2.6177  1.8647
  168SAPE   O3118947   1.872   2.757   6.825 -0.2674 -0.0349 -0.5657
  168SAPE   C3118948   1.872   2.873   6.872  0.0799 -0.8888  0.3036
  168SAPE   O3218949   1.857   2.977   6.807 -0.0668  0.5762 -0.3197
  168SAPE   C3218950   1.872   2.874   7.023  0.1592 -0.6199 -0.2652
  168SAPE   H2X18951   1.971   2.849   7.067  0.5336  0.6128 -0.3629
  168SAPE   H2Y18952   1.798   2.803   7.065 -2.1252  2.2222  0.8587
  168SAPE   C2318953   1.500   2.305   6.692  0.3211  0.0459 -0.4032
  168SAPE   H3R18954   1.588   2.237   6.691  0.9718  0.8327  0.3753
  168SAPE   H3S18955   1.449   2.305   6.594  0.3830  2.5548 -0.5164
  168SAPE   C2418956   1.389   2.261   6.797 -0.0635 -0.9973 -0.5772
  168SAPE   H4R18957   1.342   2.166   6.763 -1.2048 -0.8665  0.5932
  168SAPE   H4S18958   1.317   2.345   6.797  1.7760  0.7364  2.3503
  168SAPE   C2518959   1.429   2.254   6.942 -0.2432  1.0094  0.1893
  168SAPE   H5R18960   1.531   2.286   6.968  0.1369  0.4797 -0.6279
  168SAPE   C2618961   1.336   2.253   7.035 -0.0897  0.0872  0.7264
  168SAPE   H6R18962   1.374   2.242   7.138  2.8252 -1.2738 -0.3796
  168SAPE   C2718963   1.187   2.246   7.025 -0.1119  0.1297  0.0092
  168SAPE   H7R18964   1.156   2.176   7.105 -0.7518  0.8976  0.4545
  168SAPE   H7S18965   1.158   2.195   6.931 -0.7949  0.3270  0.1031
  168SAPE   C2818966   1.121   2.375   7.057  1.2389  0.0843  0.4321
  168SAPE   H8R18967   1.105   2.435   6.967 -0.5752 -0.1037  0.5970
  168SAPE   C2918968   1.084   2.429   7.171 -0.0811 -0.5602  0.2204
  168SAPE   H9R18969   1.026   2.522   7.172  2.4470  1.1390 -0.6015
  168SAPE  C21018970   1.112   2.371   7.311 -0.4143 -0.3270  1.3864
  168SAPE  H10R18971   1.111   2.454   7.384 -0.0897  0.7809  0.1600
  168SAPE  H10S18972   1.218   2.340   7.296  0.3491  2.7451 -0.4963
  168SAPE  C21118973   1.015   2.259   7.348 -0.5508 -0.1580 -0.5109
  168SAPE  H11R18974   0.957   2.213   7.267  1.6926 -3.5168 -0.4201
  168SAPE  C21218975   1.000   2.208   7.476 -0.1466  0.0121  0.0772
  168SAPE  H12R18976   0.908   2.151   7.497 -1.2700  1.5761 -0.4202
  168SAPE  C21318977   1.070   2.267   7.593 -0.2016  1.0855  0.0088
  168SAPE  H13R18978   1.021   2.229   7.685 -1.0142 -1.3484 -1.3426
  168SAPE  H13S18979   1.053   2.377   7.589 -1.2433  0.8997 -1.1535
  168SAPE  C21418980   1.222   2.247   7.595  0.3391  0.4521  0.2503
  168SAPE  H14R18981   1.266   2.264   7.496  2.2778 -1.2460  0.7629
  168SAPE  C21518982   1.304   2.199   7.683 -0.4417 -0.4993  0.0488
  168SAPE  H15R18983   1.412   2.213   7.671 -0.5187  0.9319  0.7699
  168SAPE  C21618984   1.270   2.145   7.818  0.0438  0.9366  0.3812
  168SAPE  H16R18985   1.336   2.061   7.850 -2.1307 -1.1847 -0.4342
  168SAPE  H16S18986   1.171   2.096   7.822  0.2617  0.5481  1.1977
  168SAPE  C21718987   1.286   2.256   7.929  0.0740 -0.0331 -0.0456
  168SAPE  H17R18988   1.213   2.338   7.912 -0.8366 -0.6095  0.9711
  168SAPE  H17S18989   1.384   2.310   7.926 -1.0782  2.2058  0.3962
  168SAPE  C21818990   1.261   2.210   8.074 -0.5099  0.3340 -0.1199
  168SAPE  H18R18991   1.328   2.122   8.086  0.3016  0.8187 -0.9764
  168SAPE  H18S18992   1.155   2.177   8.079  0.1631 -1.9103  0.6807
  168SAPE  C21918993   1.284   2.315   8.183  0.3946 -0.4677 -0.0694
  168SAPE  H19R18994   1.390   2.349   8.181  0.0870  0.5434  0.2304
  168SAPE  H19S18995   1.265   2.258   8.277 -0.8478 -1.4633 -0.8825
  168SAPE  C22018996   1.195   2.434   8.174  0.5182  0.4070  0.1423
  168SAPE  H20R18997   1.228   2.503   8.094  0.6046 -2.6305 -2.6397
  168SAPE  H20S18998   1.185   2.482   8.274  0.7603 -0.5017  0.6118
  168SAPE  H20T18999   1.088   2.413   8.151  1.0136 -0.9305 -1.0839
  168SAPE   C3319000   1.819   3.009   7.079  0.2486  0.2948  1.1896
  168SAPE   H3X19001   1.712   3.016   7.049  1.1195  0.7190 -2.3313
  168SAPE   H3Y19002   1.875   3.091   7.029  0.6274  0.6488  2.1843
  168SAPE   C3419003   1.827   3.012   7.235 -0.2466  0.1530 -0.5015
  168SAPE   H4X19004   1.933   3.019   7.267 -0.0772 -2.7902 -0.1772
  168SAPE   H4Y19005   1.792   2.916   7.278 -3.6623  1.3568 -0.2630
  168SAPE   C3519006   1.752   3.129   7.297 -0.1768  0.0228 -0.1556
  168SAPE   H5X19007   1.651   3.128   7.250  0.4696 -1.9937 -1.6331
  168SAPE   H5Y19008   1.800   3.223   7.262 -1.3570  0.8698  0.4381
  168SAPE   C3619009   1.749   3.125   7.454  0.7391  0.3126  0.5763
  168SAPE   H6X19010   1.710   3.218   7.501  2.2434  0.0857  2.3674
  168SAPE   H6Y19011   1.851   3.112   7.495  0.1025  0.7619  2.4181
  168SAPE   C3719012   1.655   3.011   7.503 -0.1171  0.1257  0.1885
  168SAPE   H7X19013   1.682   2.912   7.459 -1.5453  0.8698 -2.5915
  168SAPE   H7Y19014   1.547   3.022   7.482 -0.9155 -3.8996  1.2779
  168SAPE   C3819015   1.681   2.992   7.657  0.2178 -0.2155 -0.7639
  168SAPE   H8X19016   1.787   2.960   7.660 -0.0681 -1.3348 -1.7945
  168SAPE   H8Y19017   1.621   2.911   7.704  0.6497  0.2363  0.6039
  168SAPE   C3919018   1.671   3.117   7.749  0.1721  0.1922  0.2991
  168SAPE   H9X19019   1.570   3.160   7.732 -0.8493 -1.5141  1.5945
  168SAPE   H9Y19020   1.746   3.187   7.707 -1.3217 -0.3395 -3.7134
  168SAPE  C31019021   1.702   3.095   7.899 -0.4861  0.2842  0.2094
  168SAPE  H10X19022   1.638   3.015   7.943  1.1393 -1.6758 -0.8212
  168SAPE  H10Y19023   1.679   3.189   7.952  2.2743  1.2085 -0.1198
  168SAPE  C31119024   1.852   3.049   7.927 -0.2082  0.1108 -0.1001
  168SAPE  H11X19025   1.871   2.954   7.873  1.9342  0.8233 -0.6887
  168SAPE  H11Y19026   1.850   3.040   8.038 -1.9364  0.5870 -0.0689
  168SAPE  C31219027   1.962   3.151   7.887 -0.2491  0.0926 -0.0371
  168SAPE  H12X19028   1.922   3.249   7.922 -0.4791 -0.3938  1.0890
  168SAPE  H12Y19029   1.964   3.154   7.776 -1.9482  3.2558 -0.1302
  168SAPE  C31319030   2.095   3.130   7.959 -0.4902  0.5470 -0.0272
  168SAPE  H13X19031   2.116   3.023   7.934 -2.1259  0.2229 -0.1351
  168SAPE  H13Y19032   2.086   3.132   8.069 -1.7703  2.4717 -0.1180
  168SAPE  C31419033   2.210   3.225   7.916 -0.2561  0.3459 -0.4339
  168SAPE  H14X19034   2.305   3.200   7.968  0.6081  2.0970 -1.0912
  168SAPE  H14Y19035   2.176   3.322   7.959  1.8605  0.4395  1.2168
  168SAPE  C31519036   2.222   3.224   7.762 -0.4766 -0.5946 -0.7897
  168SAPE  H15X19037   2.133   3.271   7.715 -0.2626  0.2433 -0.3681
  168SAPE  H15Y19038   2.249   3.118   7.742  0.5517 -0.2558 -1.2372
  168SAPE  C31619039   2.349   3.307   7.728 -0.0500 -0.9141 -0.3438
  168SAPE  H16X19040   2.432   3.249   7.773 -1.9026 -2.7173  0.9005
  168SAPE  H16Y19041   2.348   3.409   7.771 -0.4238 -1.2729  0.5202
  168SAPE  C31719042   2.382   3.319   7.577  0.0652  0.5021 -0.5209
  168SAPE  H17X19043   2.294   3.363   7.526  0.0718  1.5955  0.3626
  168SAPE  H17Y19044   2.404   3.219   7.535  2.1701  0.8595 -0.4006
  168SAPE  C31819045   2.507   3.401   7.555 -0.0340  0.3558  0.3577
  168SAPE  H18X19046   2.544   3.395   7.450  0.5179 -0.7883  0.6024
  168SAPE  H18Y19047   2.586   3.352   7.615 -0.5679  0.1632  0.9164
  168SAPE  H18Z19048   2.493   3.505   7.589 -0.7415  0.0911  0.9160
  169SAPE     N19049   1.922   5.318   5.902  0.6486  0.1277 -0.4797
  169SAPE   HN119050   1.844   5.385   5.888 -0.1188 -0.1515  1.9891
  169SAPE   HN219051   2.004   5.359   5.853  1.5387 -2.5062 -1.3399
  169SAPE   HN319052   1.897   5.225   5.863  1.8501 -1.0666  1.3971
  169SAPE   C1219053   1.955   5.312   6.048  0.7037 -0.3584  0.0018
  169SAPE  H12A19054   2.059   5.274   6.055  1.0106  0.4375 -0.0823
  169SAPE  H12B19055   1.894   5.231   6.093  0.8287 -0.2461  0.3757
  169SAPE   C1119056   1.923   5.453   6.110  0.5170 -0.6547 -0.3581
  169SAPE  H11A19057   1.991   5.535   6.078  0.4534  0.0320  1.1996
  169SAPE  H11B19058   1.953   5.464   6.216 -1.4269 -0.1146  0.1685
  169SAPE     P19059   1.691   5.563   6.166  0.0501 -0.1906  0.0282
  169SAPE   O1319060   1.739   5.703   6.181 -0.6315  0.1351  0.0732
  169SAPE   O1419061   1.558   5.535   6.103 -0.3567  0.0693 -0.1653
  169SAPE   O1219062   1.794   5.491   6.078  0.2360  0.9003  0.4270
  169SAPE   O1119063   1.693   5.502   6.310  0.1491  0.2930  0.2972
  169SAPE    C119064   1.698   5.363   6.325  1.0072  0.3693  0.6634
  169SAPE    HA19065   1.614   5.304   6.284  0.9038  0.5920  0.5514
  169SAPE    HB19066   1.794   5.319   6.289  1.1630  1.1107  0.1517
  169SAPE    C219067   1.703   5.338   6.479  0.8796  0.0961  0.1862
  169SAPE    HS19068   1.725   5.230   6.491 -1.8399 -0.4390  1.0089
  169SAPE   O2119069   1.572   5.356   6.538  0.0230 -0.4885 -0.0884
  169SAPE   C2119070   1.485   5.255   6.518 -0.1931  0.2567 -0.2383
  169SAPE   O2219071   1.510   5.150   6.458 -0.2641  0.2847  0.2122
  169SAPE   C2219072   1.350   5.289   6.576  0.9199 -0.5993 -0.0647
  169SAPE   H2R19073   1.356   5.291   6.687  0.3659  0.4411 -0.0410
  169SAPE   H2S19074   1.331   5.392   6.540  0.6337 -0.2090  1.1655
  169SAPE    C319075   1.815   5.418   6.549  0.3114 -0.0490  0.0003
  169SAPE    HX19076   1.796   5.524   6.522  0.9802  0.0764  0.0077
  169SAPE    HY19077   1.910   5.378   6.506 -0.2171  0.0526 -1.3077
  169SAPE   O3119078   1.825   5.403   6.689  0.2416 -0.1824 -0.3964
  169SAPE   C3119079   1.744   5.467   6.769  0.6232  0.0021  0.7611
  169SAPE   O3219080   1.664   5.554   6.736 -0.0999  0.3647 -0.3572
  169SAPE   C3219081   1.754   5.412   6.913 -0.2614 -0.2308 -0.3652
  169SAPE   H2X19082   1.861   5.385   6.929 -0.0613  1.2464  1.1853
  169SAPE   H2Y19083   1.691   5.321   6.917 -0.1382 -0.4449 -2.3295
  169SAPE   C2319084   1.244   5.187   6.526  0.3760 -0.4859  0.0470
  169SAPE   H3R19085   1.243   5.173   6.416 -2.5773  0.3312 -0.1196
  169SAPE   H3S19086   1.144   5.234   6.541  0.6342  0.2614 -0.5257
  169SAPE   C2419087   1.259   5.061   6.608 -0.5460 -0.3018 -0.1292
  169SAPE   H4R19088   1.241   5.082   6.716 -0.0823  0.0278 -0.1141
  169SAPE   H4S19089   1.360   5.015   6.604 -1.1890 -1.8014  0.2720
  169SAPE   C2519090   1.156   4.956   6.567  0.4847  0.9047 -0.6313
  169SAPE   H5R19091   1.101   4.963   6.472  1.5861 -1.9740 -1.5812
  169SAPE   C2619092   1.120   4.855   6.647  0.1914 -1.0569 -0.0811
  169SAPE   H6R19093   1.038   4.796   6.602 -2.7383  3.1594 -0.9085
  169SAPE   C2719094   1.180   4.823   6.785 -0.3214 -0.8081  0.5742
  169SAPE   H7R19095   1.167   4.909   6.854 -2.2282 -0.4466 -0.1658
  169SAPE   H7S19096   1.291   4.830   6.781 -0.4131  0.4223 -0.4405
  169SAPE   C2819097   1.157   4.683   6.843 -0.0688 -0.4433  0.1812
  169SAPE   H8R19098   1.176   4.593   6.782  1.0113  0.1443 -0.4022
  169SAPE   C2919099   1.120   4.656   6.966 -0.0094 -0.3009  0.3245
  169SAPE   H9R19100   1.108   4.551   6.996  0.5941  0.5126  3.7824
  169SAPE  C21019101   1.091   4.749   7.074  0.6110  0.5896 -1.0559
  169SAPE  H10R19102   1.161   4.835   7.077  1.8286 -0.3836 -0.8058
  169SAPE  H10S19103   1.095   4.701   7.174  0.2366  1.6424 -0.5243
  169SAPE  C21119104   0.954   4.808   7.078 -0.9073  0.3187 -0.2395
  169SAPE  H11R19105   0.906   4.802   6.979  0.9800  1.7370 -1.3016
  169SAPE  C21219106   0.888   4.859   7.182 -1.1986 -0.7829  0.1520
  169SAPE  H12R19107   0.787   4.896   7.156 -1.0610 -0.8382 -0.4778
  169SAPE  C21319108   0.927   4.870   7.324 -0.0227  0.5895 -0.2109
  169SAPE  H13R19109   0.880   4.957   7.376 -0.6118 -0.5469  1.2448
  169SAPE  H13S19110   1.037   4.890   7.325  0.4557 -1.5649  2.2962
  169SAPE  C21419111   0.905   4.755   7.420  0.1454  0.3678  0.2780
  169SAPE  H14R19112   0.886   4.653   7.383 -1.9397 -0.0458  2.2664
  169SAPE  C21519113   0.894   4.768   7.551 -0.8305  0.4631 -0.4409
  169SAPE  H15R19114   0.867   4.681   7.613 -2.9607  0.6228 -1.0709
  169SAPE  C21619115   0.919   4.885   7.642  0.3822  0.1102 -0.1316
  169SAPE  H16R19116   0.828   4.912   7.699  0.4960  1.8796 -0.7126
  169SAPE  H16S19117   0.936   4.975   7.578 -0.2070 -1.7560 -3.0654
  169SAPE  C21719118   1.035   4.882   7.744  0.1433 -0.0780 -0.1079
  169SAPE  H17R19119   1.131   4.893   7.689 -1.1508  0.4947 -2.3782
  169SAPE  H17S19120   1.035   4.779   7.784  1.9248 -0.4845 -1.0578
  169SAPE  C21819121   1.021   4.988   7.858  0.2490 -0.1793 -0.0366
  169SAPE  H18R19122   0.919   4.984   7.901  0.3255  2.6592  0.6239
  169SAPE  H18S19123   1.037   5.091   7.818  0.4397 -0.4090 -0.5588
  169SAPE  C21919124   1.129   4.982   7.962 -0.2233 -0.4010 -0.8234
  169SAPE  H19R19125   1.231   5.013   7.929  0.4690  1.5995  2.6479
  169SAPE  H19S19126   1.142   4.877   7.997  0.4305 -0.0401  0.0587
  169SAPE  C22019127   1.107   5.075   8.082  0.1814  0.5543 -0.4995
  169SAPE  H20R19128   1.120   5.183   8.058 -0.7896  0.3315 -2.1869
  169SAPE  H20S19129   1.170   5.042   8.167 -0.4903 -2.6985 -1.1132
  169SAPE  H20T19130   1.000   5.069   8.110  0.1693  1.9055 -0.2014
  169SAPE   C3319131   1.695   5.505   7.026  0.0530  0.1641 -0.2537
  169SAPE   H3X19132   1.598   5.553   7.001 -0.1463  1.5468  2.7719
  169SAPE   H3Y19133   1.759   5.595   7.034  2.5954 -1.5052 -0.6303
  169SAPE   C3419134   1.699   5.440   7.175  0.2130 -0.4288 -0.3702
  169SAPE   H4X19135   1.637   5.349   7.158  2.3752 -1.9617 -0.4519
  169SAPE   H4Y19136   1.650   5.500   7.255 -0.3408 -1.5741  0.1775
  169SAPE   C3519137   1.826   5.384   7.226 -0.1161  0.6781 -0.5181
  169SAPE   H5X19138   1.901   5.464   7.207 -0.5610  0.6938 -2.3687
  169SAPE   H5Y19139   1.862   5.300   7.162 -0.6958 -0.0020  0.0372
  169SAPE   C3619140   1.822   5.348   7.373  0.0403  0.8575  0.0510
  169SAPE   H6X19141   1.761   5.420   7.431 -3.5307 -0.3895 -1.8421
  169SAPE   H6Y19142   1.927   5.336   7.407 -0.6561 -0.6178  1.8697
  169SAPE   C3719143   1.754   5.205   7.393  0.2192 -0.3115 -0.6184
  169SAPE   H7X19144   1.822   5.147   7.327  1.5675  0.9270 -0.3825
  169SAPE   H7Y19145   1.650   5.190   7.354 -0.3048  0.9579  0.2245
  169SAPE   C3819146   1.767   5.153   7.540 -1.2081  0.5578  0.2374
  169SAPE   H8X19147   1.858   5.198   7.586 -2.5387  3.1359  0.5341
  169SAPE   H8Y19148   1.761   5.043   7.524 -1.5156  0.6310 -0.1727
  169SAPE   C3919149   1.655   5.191   7.638  0.2571 -0.3278  0.1517
  169SAPE   H9X19150   1.566   5.125   7.630 -0.4384  0.1306  3.0370
  169SAPE   H9Y19151   1.615   5.292   7.615  1.5514  0.2333  0.2972
  169SAPE  C31019152   1.700   5.174   7.785 -0.0953 -0.2447 -0.2691
  169SAPE  H10X19153   1.764   5.264   7.799 -2.3077  1.2041  1.0898
  169SAPE  H10Y19154   1.753   5.078   7.802 -0.7156 -0.5695 -0.1429
  169SAPE  C31119155   1.579   5.179   7.880 -0.0014  0.1831  0.3569
  169SAPE  H11X19156   1.496   5.114   7.846  0.3909 -0.7832  1.1832
  169SAPE  H11Y19157   1.547   5.284   7.900 -1.1484 -0.0822 -0.0371
  169SAPE  C31219158   1.609   5.112   8.023  0.1336  0.0282  0.0734
  169SAPE  H12X19159   1.675   5.190   8.068 -0.6717  0.6869  0.1359
  169SAPE  H12Y19160   1.670   5.020   8.010  0.4401  0.1743  0.4510
  169SAPE  C31319161   1.482   5.101   8.097  0.0252 -0.1168 -0.2141
  169SAPE  H13X19162   1.404   5.112   8.019  1.7865  0.5512 -1.9526
  169SAPE  H13Y19163   1.474   5.190   8.164  0.7748 -0.7083  0.6967
  169SAPE  C31419164   1.452   4.962   8.166  0.1777 -0.0220  0.4990
  169SAPE  H14X19165   1.450   4.883   8.087 -2.8773  0.1297  0.3358
  169SAPE  H14Y19166   1.350   4.953   8.208  0.2956  0.0335  0.7998
  169SAPE  C31519167   1.543   4.936   8.287 -0.1514 -0.1044  0.2690
  169SAPE  H15X19168   1.521   5.023   8.353 -1.5770  1.5706 -2.2378
  169SAPE  H15Y19169   1.650   4.945   8.261 -0.0045  0.5120  1.0466
  169SAPE  C31619170   1.510   4.800   8.354  1.0580 -0.2804  0.2340
  169SAPE  H16X19171   1.526   4.718   8.281  2.7968  0.5798 -0.4183
  169SAPE  H16Y19172   1.409   4.791   8.399  1.5427  1.8938  1.9604
  169SAPE  C31719173   1.609   4.772   8.465  0.0281  0.9078 -0.0425
  169SAPE  H17X19174   1.611   4.857   8.536  0.9625 -0.3002  1.4325
  169SAPE  H17Y19175   1.708   4.744   8.424 -0.0189  0.4724  0.1315
  169SAPE  C31819176   1.554   4.646   8.531 -0.2359  0.3101  0.0557
  169SAPE  H18X19177   1.531   4.566   8.458 -1.6469  0.0162  0.7837
  169SAPE  H18Y19178   1.460   4.680   8.580 -0.0657  0.9271 -0.0379
  169SAPE  H18Z19179   1.619   4.603   8.611 -0.7692 -3.2400 -1.2402
  170SAPE     N19180   4.250   2.867   5.923  0.0491 -0.2003  1.0387
  170SAPE   HN119181   4.249   2.828   5.827  1.9553 -0.0643  0.9455
  170SAPE   HN219182   4.195   2.955   5.926 -1.5704 -1.0943 -0.6349
  170SAPE   HN319183   4.347   2.885   5.954 -0.2147  2.5233  0.5025
  170SAPE   C1219184   4.204   2.761   6.015  0.6004 -0.0556 -0.6931
  170SAPE  H12A19185   4.232   2.660   5.979 -0.4560 -0.8640  0.6463
  170SAPE  H12B19186   4.093   2.756   6.021  0.6312 -0.2688 -0.2629
  170SAPE   C1119187   4.255   2.769   6.159 -0.6214 -0.1230 -0.2230
  170SAPE  H11A19188   4.242   2.673   6.214 -0.5260  0.1961  0.3641
  170SAPE  H11B19189   4.193   2.845   6.211  0.0986  0.6344 -0.4528
  170SAPE     P19190   4.460   2.916   6.239  0.4965  0.0773 -0.0366
  170SAPE   O1319191   4.604   2.901   6.212 -0.2156 -0.3601 -0.3007
  170SAPE   O1419192   4.401   3.044   6.200 -0.8488  0.5403  0.3018
  170SAPE   O1219193   4.394   2.804   6.158  0.0972  0.2467  0.3622
  170SAPE   O1119194   4.420   2.889   6.390 -0.2007 -0.6270 -0.1165
  170SAPE    C119195   4.302   2.950   6.448 -0.6584 -0.7355 -0.4347
  170SAPE    HA19196   4.327   3.058   6.455  1.1517 -1.0739 -1.2412
  170SAPE    HB19197   4.216   2.948   6.378 -0.0759  0.2748 -1.2024
  170SAPE    C219198   4.271   2.884   6.588 -0.2215  0.3147 -0.0257
  170SAPE    HS19199   4.370   2.902   6.635 -0.4088  0.4421  0.3284
  170SAPE   O2119200   4.243   2.747   6.572  0.1270 -0.3391  0.2717
  170SAPE   C2119201   4.133   2.704   6.518  0.8224 -0.1659  0.0371
  170SAPE   O2219202   4.041   2.770   6.471  0.0217 -0.2651  0.6226
  170SAPE   C2219203   4.119   2.557   6.560  0.3523  0.2083  0.9862
  170SAPE   H2R19204   4.039   2.518   6.492  0.7720  0.0818  0.5562
  170SAPE   H2S19205   4.209   2.501   6.528  0.0838 -1.0801  2.3744
  170SAPE    C319206   4.167   2.965   6.664  0.4900 -1.0022 -0.1200
  170SAPE    HX19207   4.084   2.988   6.594 -1.4782 -1.8990  1.7907
  170SAPE    HY19208   4.206   3.067   6.687 -1.5740 -0.1237 -0.3289
  170SAPE   O3119209   4.121   2.897   6.785  0.0930 -0.1690  0.4327
  170SAPE   C3119210   4.029   2.975   6.846 -0.2479  1.0268 -0.4893
  170SAPE   O3219211   4.016   3.094   6.835 -0.2266  0.3709  0.1357
  170SAPE   C3219212   3.936   2.889   6.930  1.1159 -0.7482 -0.0703
  170SAPE   H2X19213   3.874   2.832   6.858 -1.0212  2.9180 -1.3605
  170SAPE   H2Y19214   3.868   2.960   6.981 -1.6149 -2.7098 -0.7491
  170SAPE   C2319215   4.074   2.542   6.709 -0.0697  0.3282 -0.6530
  170SAPE   H3R19216   3.980   2.602   6.716 -0.2782  0.4854 -3.7161
  170SAPE   H3S19217   4.138   2.573   6.794 -0.7167 -0.4735  0.1499
  170SAPE   C2419218   4.054   2.391   6.745  0.1675 -0.2882  0.9738
  170SAPE   H4R19219   4.016   2.346   6.652  3.3617  0.9793 -1.1207
  170SAPE   H4S19220   3.972   2.378   6.820 -0.7778 -2.8619 -0.3753
  170SAPE   C2519221   4.169   2.303   6.795  0.9826 -0.5354 -0.2380
  170SAPE   H5R19222   4.241   2.274   6.717  0.2362  2.5462 -2.2161
  170SAPE   C2619223   4.185   2.260   6.923 -0.3099 -0.5774  0.3579
  170SAPE   H6R19224   4.271   2.194   6.941 -0.2375 -0.7899 -0.7151
  170SAPE   C2719225   4.108   2.285   7.052  0.2945  0.3113 -0.1511
  170SAPE   H7R19226   4.150   2.217   7.128  1.9855  2.8421  1.3470
  170SAPE   H7S19227   4.004   2.251   7.034  0.9140 -1.4367 -0.5952
  170SAPE   C2819228   4.098   2.426   7.102 -0.4669 -0.6934  0.5094
  170SAPE   H8R19229   4.132   2.497   7.024  0.8324 -3.6822 -1.8683
  170SAPE   C2919230   4.061   2.459   7.229 -0.2716 -0.3351  0.0481
  170SAPE   H9R19231   4.071   2.566   7.252 -0.1290 -0.1608 -0.8075
  170SAPE  C21019232   4.022   2.372   7.347  0.4173  0.2087 -0.2791
  170SAPE  H10R19233   3.950   2.296   7.308  0.8690  0.0644 -0.8434
  170SAPE  H10S19234   3.962   2.429   7.421  2.6455 -1.4353  3.0687
  170SAPE  C21119235   4.138   2.315   7.419  0.1728  0.8611  0.3228
  170SAPE  H11R19236   4.225   2.277   7.363  1.0425 -0.6447  2.5856
  170SAPE  C21219237   4.150   2.289   7.548  0.3943  0.0543  0.4901
  170SAPE  H12R19238   4.233   2.223   7.576 -0.1092 -1.9333 -2.2020
  170SAPE  C21319239   4.054   2.301   7.663 -0.6318 -0.1235 -0.0148
  170SAPE  H13R19240   3.962   2.354   7.630 -1.2515 -0.0218  1.8131
  170SAPE  H13S19241   4.109   2.357   7.742 -1.0451  0.0616  0.1442
  170SAPE  C21419242   4.001   2.166   7.700 -0.4815 -0.5817  0.3354
  170SAPE  H14R19243   3.938   2.109   7.630 -0.4544 -0.9215  0.5855
  170SAPE  C21519244   4.024   2.103   7.817 -0.1697  0.1519  0.3484
  170SAPE  H15R19245   3.984   2.001   7.833 -0.8203  0.7134  2.5815
  170SAPE  C21619246   4.099   2.147   7.940 -0.2769  0.6011  0.8643
  170SAPE  H16R19247   4.164   2.232   7.912 -0.7761  0.2888 -1.3997
  170SAPE  H16S19248   4.165   2.065   7.973 -0.4558  0.0596 -0.0849
  170SAPE  C21719249   4.004   2.192   8.046  0.2024 -0.3675 -0.1875
  170SAPE  H17R19250   3.949   2.110   8.098 -0.0723  0.3304  0.6436
  170SAPE  H17S19251   3.927   2.249   7.990  0.4181  0.4902  0.3841
  170SAPE  C21819252   4.069   2.284   8.160  0.3208 -0.5088 -0.0895
  170SAPE  H18R19253   4.115   2.372   8.109  1.3418 -1.7794 -1.4437
  170SAPE  H18S19254   4.143   2.223   8.216  0.5479 -1.8020 -1.7309
  170SAPE  C21919255   3.962   2.311   8.271  0.6469  0.0547  0.0327
  170SAPE  H19R19256   3.926   2.212   8.307  0.0441  0.7222  1.3261
  170SAPE  H19S19257   3.874   2.365   8.231 -0.1907  0.3013  2.0903
  170SAPE  C22019258   3.994   2.386   8.404 -0.6177 -0.3206  0.9720
  170SAPE  H20R19259   3.910   2.375   8.475 -1.4156 -2.8041 -0.2244
  170SAPE  H20S19260   4.032   2.487   8.379  0.1750 -1.0316 -0.8980
  170SAPE  H20T19261   4.080   2.336   8.455 -0.6044 -0.3627  0.9097
  170SAPE   C3319262   4.011   2.803   7.036  0.7057  0.2182  0.5464
  170SAPE   H3X19263   4.086   2.735   6.988  0.9118 -1.7024  3.3839
  170SAPE   H3Y19264   3.929   2.745   7.083  0.2055  1.8345  1.7670
  170SAPE   C3419265   4.073   2.877   7.149 -0.0424 -0.7714 -0.0240
  170SAPE   H4X19266   4.153   2.947   7.118  1.5559 -1.5826  2.0290
  170SAPE   H4Y19267   4.122   2.806   7.219 -0.9406 -0.0570  1.3596
  170SAPE   C3519268   3.978   2.958   7.246 -0.3660 -0.3647 -0.5025
  170SAPE   H5X19269   3.932   3.037   7.185  1.8718  1.0083 -0.5328
  170SAPE   H5Y19270   4.042   3.000   7.327  0.0198 -0.5158 -0.7261
  170SAPE   C3619271   3.883   2.872   7.325  0.3138 -0.1337 -0.2995
  170SAPE   H6X19272   3.820   2.809   7.258 -1.5001  1.6991 -0.4348
  170SAPE   H6Y19273   3.824   2.940   7.391  0.6077 -1.2633  1.1734
  170SAPE   C3719274   3.948   2.777   7.421  0.0943  0.3901  0.7536
  170SAPE   H7X19275   4.031   2.715   7.379  1.3745  1.0878  2.1506
  170SAPE   H7Y19276   3.876   2.706   7.467 -1.8055  0.8322 -1.3535
  170SAPE   C3819277   4.002   2.843   7.554  0.2136  0.0938 -0.0791
  170SAPE   H8X19278   3.921   2.905   7.596 -0.0275 -0.1010 -0.2519
  170SAPE   H8Y19279   4.084   2.909   7.517 -0.0265 -0.6109 -1.9960
  170SAPE   C3919280   4.054   2.739   7.659  0.2961  0.6938 -0.2831
  170SAPE   H9X19281   4.124   2.782   7.734 -1.0574 -0.9230  2.0278
  170SAPE   H9Y19282   4.114   2.652   7.623  1.8363  1.4538  0.3305
  170SAPE  C31019283   3.946   2.673   7.752  0.8714  0.0368 -0.2430
  170SAPE  H10X19284   3.999   2.594   7.809  0.1443 -0.4577 -0.2301
  170SAPE  H10Y19285   3.881   2.626   7.675  2.3850 -0.5078 -1.2288
  170SAPE  C31119286   3.868   2.772   7.840 -0.0172  0.2962 -0.3378
  170SAPE  H11X19287   3.806   2.839   7.776 -0.1312  1.2762  0.7659
  170SAPE  H11Y19288   3.945   2.840   7.882 -1.0508  0.8972  0.6152
  170SAPE  C31219289   3.801   2.694   7.960  0.0406 -0.1784 -0.0168
  170SAPE  H12X19290   3.879   2.631   8.007  0.6718 -1.1161 -2.2153
  170SAPE  H12Y19291   3.721   2.633   7.913 -1.1362  2.0357 -1.0837
  170SAPE  C31319292   3.739   2.796   8.055  0.5844  0.6482  0.2801
  170SAPE  H13X19293   3.687   2.868   7.988  0.5564 -0.8634 -1.3767
  170SAPE  H13Y19294   3.821   2.850   8.107 -0.4933  1.6625  0.9914
  170SAPE  C31419295   3.631   2.739   8.153 -0.4426 -0.0172 -0.0157
  170SAPE  H14X19296   3.529   2.727   8.110 -0.7934  0.3487  0.6816
  170SAPE  H14Y19297   3.621   2.821   8.228  0.6948 -0.6486  0.8571
  170SAPE  C31519298   3.680   2.618   8.224  0.1950 -0.2908 -0.5093
  170SAPE  H15X19299   3.789   2.635   8.240  0.3295 -0.3806 -1.2812
  170SAPE  H15Y19300   3.659   2.532   8.157  0.2737  0.8801 -2.1220
  170SAPE  C31619301   3.609   2.603   8.364 -0.0803  0.7213 -0.1999
  170SAPE  H16X19302   3.650   2.679   8.434 -0.4564 -0.1030  0.9255
  170SAPE  H16Y19303   3.650   2.504   8.391 -1.2159  0.3004  0.0334
  170SAPE  C31719304   3.458   2.611   8.384 -0.0792  0.1719 -0.0338
  170SAPE  H17X19305   3.434   2.569   8.485 -0.6526  2.8461  1.0373
  170SAPE  H17Y19306   3.401   2.547   8.313 -0.4523 -1.9903  2.0695
  170SAPE  C31819307   3.398   2.752   8.381 -0.3875  0.2298  0.0877
  170SAPE  H18X19308   3.287   2.750   8.372 -0.4631  3.9855 -1.6594
  170SAPE  H18Y19309   3.434   2.801   8.288  0.9821 -0.1078  0.4146
  170SAPE  H18Z19310   3.422   2.816   8.468 -1.7808  0.7129  0.1467
  171SAPE     N19311   5.807   1.108   6.190 -0.4124 -0.0282 -0.5275
  171SAPE   HN119312   5.810   1.055   6.100 -1.7196 -1.5728  0.2748
  171SAPE   HN219313   5.708   1.126   6.217 -1.4037 -2.3436 -2.2680
  171SAPE   HN319314   5.853   1.200   6.173 -1.5088  0.1711 -2.7414
  171SAPE   C1219315   5.881   1.032   6.293  0.6135  0.2329 -0.2278
  171SAPE  H12A19316   5.964   0.985   6.236  0.1797 -1.1777  0.2401
  171SAPE  H12B19317   5.819   0.942   6.316  1.3331 -0.9566 -2.6242
  171SAPE   C1119318   5.898   1.106   6.424 -0.4806 -0.5408 -0.2189
  171SAPE  H11A19319   5.955   1.049   6.500 -0.4503  1.4097  1.2913
  171SAPE  H11B19320   5.798   1.106   6.473 -1.2810 -1.8398 -1.7641
  171SAPE     P19321   6.072   1.286   6.344  0.2235  0.1164  0.2462
  171SAPE   O1319322   6.089   1.218   6.214  0.2943  0.1856 -0.2757
  171SAPE   O1419323   6.091   1.430   6.343  0.6639 -0.2818 -0.1344
  171SAPE   O1219324   5.935   1.245   6.411 -0.9752  0.3818 -0.0287
  171SAPE   O1119325   6.179   1.212   6.437 -0.3505 -0.2081  0.7382
  171SAPE    C119326   6.192   1.287   6.560 -0.3091  0.6029  0.3385
  171SAPE    HA19327   6.109   1.358   6.578 -1.7768 -0.9779  0.0761
  171SAPE    HB19328   6.192   1.216   6.646  1.6308 -1.7190 -1.4333
  171SAPE    C219329   6.332   1.362   6.559  0.7988 -0.3389 -0.9908
  171SAPE    HS19330   6.338   1.423   6.467 -0.4792 -1.4223 -1.8297
  171SAPE   O2119331   6.428   1.260   6.563 -0.2781 -0.4441  0.5184
  171SAPE   C2119332   6.539   1.299   6.503 -0.1741 -0.3953  0.0873
  171SAPE   O2219333   6.562   1.404   6.448 -0.2628  0.4655 -0.6090
  171SAPE   C2219334   6.630   1.181   6.517  0.1636  0.1168 -0.4893
  171SAPE   H2R19335   6.642   1.151   6.623 -0.1105 -0.2824 -0.5714
  171SAPE   H2S19336   6.575   1.096   6.472  1.1282 -1.1551  0.6762
  171SAPE    C319337   6.346   1.452   6.685 -0.0220 -0.6508 -0.4382
  171SAPE    HX19338   6.455   1.460   6.704 -0.2813 -0.3443  1.0868
  171SAPE    HY19339   6.313   1.381   6.764 -1.1650 -0.3504 -0.6240
  171SAPE   O3119340   6.282   1.585   6.686  0.3091 -0.6069  0.1841
  171SAPE   C3119341   6.164   1.591   6.758 -0.6678 -0.3799  0.0809
  171SAPE   O3219342   6.103   1.493   6.801  0.2778  0.0369 -0.2580
  171SAPE   C3219343   6.123   1.736   6.751  0.4182  0.1153 -0.7522
  171SAPE   H2X19344   6.047   1.737   6.670  1.2912 -3.1702 -1.7699
  171SAPE   H2Y19345   6.215   1.794   6.731  0.7611 -0.4192 -0.7520
  171SAPE   C2319346   6.759   1.179   6.428  0.3048 -0.0040 -0.1134
  171SAPE   H3R19347   6.813   1.275   6.440  0.5140 -0.0605 -0.5772
  171SAPE   H3S19348   6.749   1.182   6.318  1.7337  1.2507 -0.2347
  171SAPE   C2419349   6.860   1.064   6.461  0.3534 -0.2414 -0.0482
  171SAPE   H4R19350   6.843   0.977   6.394  2.2023 -0.7172  0.0636
  171SAPE   H4S19351   6.836   1.044   6.568  0.7719 -0.7080 -0.0409
  171SAPE   C2519352   7.006   1.099   6.436  0.4601 -0.0672  0.1745
  171SAPE   H5R19353   7.027   1.100   6.329 -0.6259  3.1337 -0.1210
  171SAPE   C2619354   7.093   1.136   6.534 -0.2368 -0.6752 -0.1358
  171SAPE   H6R19355   7.194   1.162   6.500  0.4100 -2.1562  0.5506
  171SAPE   C2719356   7.078   1.159   6.685  0.1437 -0.4851 -0.0671
  171SAPE   H7R19357   7.114   1.064   6.732 -0.6728 -2.1961 -2.6662
  171SAPE   H7S19358   6.973   1.184   6.710  1.3603  1.7043  3.5782
  171SAPE   C2819359   7.160   1.277   6.718  0.8517  0.0454 -0.6453
  171SAPE   H8R19360   7.163   1.357   6.642  0.0417 -1.3411 -2.2073
  171SAPE   C2919361   7.241   1.287   6.823 -0.2985 -0.9804  0.1979
  171SAPE   H9R19362   7.299   1.380   6.833 -0.1726 -0.8628 -1.3797
  171SAPE  C21019363   7.263   1.172   6.924 -0.3022  0.6643  0.4091
  171SAPE  H10R19364   7.321   1.091   6.877 -0.5692 -0.2615  1.6141
  171SAPE  H10S19365   7.169   1.116   6.945  1.3530 -1.4193  2.8506
  171SAPE  C21119366   7.325   1.229   7.053  0.3134 -0.4086 -0.3108
  171SAPE  H11R19367   7.415   1.290   7.034 -0.4244  1.8988  2.8899
  171SAPE  C21219368   7.270   1.228   7.175 -0.2567  0.0604 -0.5223
  171SAPE  H12R19369   7.321   1.283   7.255  2.1642 -0.8986 -1.3092
  171SAPE  C21319370   7.139   1.171   7.215 -0.4300 -0.0476  0.2600
  171SAPE  H13R19371   7.124   1.161   7.325  1.3509 -0.8782  0.4623
  171SAPE  H13S19372   7.123   1.065   7.183 -1.2151  0.0267  0.3821
  171SAPE  C21419373   7.037   1.273   7.164  0.0070 -0.2385 -0.9519
  171SAPE  H14R19374   7.070   1.330   7.076  1.5324  0.9329  0.3209
  171SAPE  C21519375   6.916   1.300   7.224  0.7233  0.0524 -0.7627
  171SAPE  H15R19376   6.864   1.390   7.186  3.4056  1.2507 -1.9567
  171SAPE  C21619377   6.852   1.238   7.352  0.2069  0.0682  0.3794
  171SAPE  H16R19378   6.904   1.141   7.365  1.7421  0.7805 -0.2422
  171SAPE  H16S19379   6.744   1.218   7.333  0.4961 -1.4587  0.2211
  171SAPE  C21719380   6.873   1.324   7.476 -0.6995  0.2766  0.7527
  171SAPE  H17R19381   6.803   1.410   7.465  0.1493  0.7813 -1.2486
  171SAPE  H17S19382   6.976   1.364   7.486 -1.0805  1.5426 -0.1698
  171SAPE  C21819383   6.848   1.253   7.604  0.2579  0.8628 -0.2269
  171SAPE  H18R19384   6.891   1.151   7.595  0.8144  1.0912 -0.1959
  171SAPE  H18S19385   6.738   1.240   7.592  0.2920  0.1790  0.1454
  171SAPE  C21919386   6.885   1.328   7.726  0.3392 -0.1441  0.3742
  171SAPE  H19R19387   6.821   1.419   7.735  2.3714  1.2860  1.1687
  171SAPE  H19S19388   6.991   1.362   7.722  0.2294  0.1070 -0.9367
  171SAPE  C22019389   6.855   1.247   7.855 -0.4693  0.5896 -0.4988
  171SAPE  H20R19390   6.746   1.229   7.845 -0.6079  1.7691 -1.3651
  171SAPE  H20S19391   6.881   1.299   7.950 -0.8643  1.6784 -0.9657
  171SAPE  H20T19392   6.913   1.153   7.857  2.1963  2.1311  1.9536
  171SAPE   C3319393   6.055   1.786   6.875  0.1449  0.0919 -0.1748
  171SAPE   H3X19394   5.969   1.720   6.899 -1.0952  2.5400  2.7514
  171SAPE   H3Y19395   6.002   1.881   6.856 -1.1203 -0.6806 -0.6489
  171SAPE   C3419396   6.139   1.778   7.004 -0.3684 -0.6739  0.1294
  171SAPE   H4X19397   6.226   1.846   6.991  0.4538 -1.8464 -0.6928
  171SAPE   H4Y19398   6.178   1.674   7.005 -0.9120 -0.8852 -0.1971
  171SAPE   C3519399   6.070   1.823   7.129 -0.1057  0.3902 -0.5165
  171SAPE   H5X19400   6.146   1.820   7.210  2.3483  3.9427 -2.3970
  171SAPE   H5Y19401   5.993   1.748   7.158  1.0174  0.1025  2.0291
  171SAPE   C3619402   6.024   1.974   7.137  0.5346  0.1461 -0.0424
  171SAPE   H6X19403   5.963   1.995   7.046 -1.2807 -2.6908  0.3844
  171SAPE   H6Y19404   6.122   2.025   7.133  0.1132  0.9510 -0.4685
  171SAPE   C3719405   5.944   2.009   7.262  0.1894 -0.8324 -0.5478
  171SAPE   H7X19406   6.015   1.977   7.341  4.3117  0.2318 -3.5071
  171SAPE   H7Y19407   5.858   1.938   7.262  1.0400 -1.8918 -0.2548
  171SAPE   C3819408   5.880   2.152   7.264  0.3529  0.4406  0.0257
  171SAPE   H8X19409   5.786   2.157   7.323 -0.7867  3.1832 -1.7755
  171SAPE   H8Y19410   5.864   2.184   7.158 -5.0748  1.2144  0.7557
  171SAPE   C3919411   5.976   2.258   7.311  0.2936 -0.7265  0.4106
  171SAPE   H9X19412   6.060   2.277   7.241 -0.9348 -0.4136 -1.0387
  171SAPE   H9Y19413   6.015   2.219   7.407  0.6274 -1.1279  0.1173
  171SAPE  C31019414   5.894   2.385   7.339 -0.4089 -0.0575 -0.3276
  171SAPE  H10X19415   5.814   2.391   7.416 -1.4656  2.3822 -1.5161
  171SAPE  H10Y19416   5.841   2.409   7.245  0.9336 -1.6943 -1.5692
  171SAPE  C31119417   5.980   2.510   7.358 -0.4589  0.1194 -0.1545
  171SAPE  H11X19418   5.920   2.604   7.359 -0.5531  0.0602 -0.2542
  171SAPE  H11Y19419   6.050   2.514   7.271 -0.3802 -0.1121 -0.1027
  171SAPE  C31219420   6.071   2.499   7.480  0.7125 -0.2553  0.9910
  171SAPE  H12X19421   6.120   2.595   7.506  1.7711 -0.6705  0.6189
  171SAPE  H12Y19422   6.151   2.424   7.459  0.8948  0.0234  0.6754
  171SAPE  C31319423   5.990   2.459   7.603  0.3632 -0.0449 -0.3618
  171SAPE  H13X19424   5.939   2.360   7.595  0.6018 -0.4520  2.1280
  171SAPE  H13Y19425   5.909   2.535   7.611  2.8487  2.9347 -1.4271
  171SAPE  C31419426   6.069   2.476   7.740 -0.0853  1.0727 -0.5779
  171SAPE  H14X19427   6.110   2.580   7.737  1.8143  0.4865  1.8276
  171SAPE  H14Y19428   6.153   2.404   7.748  0.0984  1.2634 -0.7979
  171SAPE  C31519429   5.982   2.446   7.866  0.2476 -0.8514  0.6635
  171SAPE  H15X19430   5.941   2.344   7.852 -0.0356 -0.6293 -0.1645
  171SAPE  H15Y19431   5.889   2.506   7.874  1.5408  1.7320 -1.7759
  171SAPE  C31619432   6.067   2.450   7.995  0.3495  0.7811  0.0721
  171SAPE  H16X19433   6.082   2.558   8.019 -0.6445  0.4814  2.2054
  171SAPE  H16Y19434   6.159   2.390   7.980 -1.0092 -1.3665 -0.1173
  171SAPE  C31719435   6.010   2.382   8.126  0.5494 -0.2306 -0.2696
  171SAPE  H17X19436   6.096   2.391   8.196 -0.6258 -0.6142  1.2741
  171SAPE  H17Y19437   5.986   2.276   8.104  0.7139  0.0562 -1.9052
  171SAPE  C31819438   5.890   2.453   8.186  0.2933 -0.4416  0.1882
  171SAPE  H18X19439   5.805   2.437   8.116 -0.4908  2.0827  0.4828
  171SAPE  H18Y19440   5.902   2.562   8.199  0.8926 -0.6760  1.9202
  171SAPE  H18Z19441   5.878   2.405   8.286 -1.5997 -0.8299 -0.1810
  172SAPE     N19442   3.854   2.447   6.135  0.4668 -0.5504 -0.0521
  172SAPE   HN119443   3.861   2.541   6.092 -0.5563 -1.0286 -1.3426
  172SAPE   HN219444   3.925   2.398   6.077  0.9732 -2.2702  1.9047
  172SAPE   HN319445   3.756   2.423   6.109  0.3210  0.4782 -0.4712
  172SAPE   C1219446   3.881   2.432   6.282  0.0376 -0.4447 -0.2967
  172SAPE  H12A19447   3.973   2.490   6.305 -0.7791  1.2606 -1.1314
  172SAPE  H12B19448   3.894   2.324   6.300  1.0969 -0.8165 -2.7969
  172SAPE   C1119449   3.766   2.499   6.358  0.5462  1.0624 -0.5773
  172SAPE  H11A19450   3.761   2.610   6.357  1.2014  1.1044 -0.1153
  172SAPE  H11B19451   3.779   2.476   6.466 -1.4084 -1.5876 -0.7814
  172SAPE     P19452   3.581   2.314   6.340 -0.2002 -0.6284  0.2366
  172SAPE   O1319453   3.435   2.327   6.347 -0.3826  0.4141  0.3780
  172SAPE   O1419454   3.635   2.228   6.235 -0.7217 -0.1348  0.1926
  172SAPE   O1219455   3.635   2.460   6.316 -0.1126 -0.1483 -0.0477
  172SAPE   O1119456   3.630   2.277   6.485  0.0016 -0.3652  0.7321
  172SAPE    C119457   3.642   2.138   6.518 -0.2511 -0.2647  0.1078
  172SAPE    HA19458   3.681   2.086   6.428  1.7718  0.8915  0.2706
  172SAPE    HB19459   3.718   2.138   6.599 -1.3326  2.6642  1.2543
  172SAPE    C219460   3.519   2.067   6.578 -0.2739  0.0364 -0.7943
  172SAPE    HS19461   3.462   2.027   6.491  0.9021 -4.2509  0.2088
  172SAPE   O2119462   3.439   2.161   6.663 -0.3508 -0.3095 -0.1320
  172SAPE   C2119463   3.313   2.122   6.665  0.9729 -0.2156  0.2038
  172SAPE   O2219464   3.262   2.034   6.595  0.3435 -0.2259  0.0489
  172SAPE   C2219465   3.238   2.190   6.783 -0.1812  0.1888  0.0633
  172SAPE   H2R19466   3.300   2.269   6.831 -1.7324  1.6716 -0.2552
  172SAPE   H2S19467   3.153   2.252   6.747 -1.5767 -0.8185  1.4652
  172SAPE    C319468   3.581   1.945   6.655  0.9965  0.0904 -0.2612
  172SAPE    HX19469   3.610   1.866   6.583 -0.1518 -0.9105  0.3352
  172SAPE    HY19470   3.497   1.887   6.698 -0.3511  1.3278 -1.0980
  172SAPE   O3119471   3.675   1.971   6.752 -0.3916  0.4348 -0.4334
  172SAPE   C3119472   3.644   1.991   6.881 -0.2722 -0.2747  0.2370
  172SAPE   O3219473   3.529   2.000   6.927  0.1275  0.1373 -0.0550
  172SAPE   C3219474   3.784   2.020   6.952  0.0201 -0.4389  0.0589
  172SAPE   H2X19475   3.825   2.122   6.941 -1.6447  0.4822  1.7531
  172SAPE   H2Y19476   3.856   1.951   6.902 -0.7595  0.0173 -1.7737
  172SAPE   C2319477   3.180   2.088   6.882  0.2884  0.0957 -0.1653
  172SAPE   H3R19478   3.249   2.082   6.969  0.8132  1.2074 -0.4898
  172SAPE   H3S19479   3.176   1.988   6.834  1.9280  0.5340 -1.2974
  172SAPE   C2419480   3.035   2.114   6.926 -0.2649  0.4060  0.1465
  172SAPE   H4R19481   2.985   2.022   6.963 -0.3933  0.6887  0.6975
  172SAPE   H4S19482   2.980   2.142   6.834  1.2407 -0.2414 -0.9848
  172SAPE   C2519483   3.025   2.231   7.025  0.4378  0.1672  0.2684
  172SAPE   H5R19484   3.019   2.333   6.984 -0.3286 -0.0135 -0.0797
  172SAPE   C2619485   2.999   2.223   7.160 -0.0613 -0.1424 -0.0717
  172SAPE   H6R19486   2.992   2.320   7.211  1.3110 -0.1155  0.1077
  172SAPE   C2719487   2.971   2.103   7.243  0.0177 -0.7565 -0.7785
  172SAPE   H7R19488   2.960   2.017   7.173  2.0578 -3.0346  1.4666
  172SAPE   H7S19489   2.873   2.121   7.291  0.0864  1.0366 -1.2610
  172SAPE   C2819490   3.067   2.070   7.360 -0.2367 -0.1959  0.7588
  172SAPE   H8R19491   3.138   1.993   7.329  1.3898  1.5188  0.0563
  172SAPE   C2919492   3.071   2.140   7.480 -0.5245  0.6476  0.0836
  172SAPE   H9R19493   3.138   2.114   7.563  0.5394  0.8484 -0.6830
  172SAPE  C21019494   2.979   2.254   7.521 -0.0779 -0.1566 -0.1416
  172SAPE  H10R19495   2.938   2.296   7.426  2.4621  1.4524 -0.6133
  172SAPE  H10S19496   3.034   2.341   7.563  2.9292 -1.3137 -1.3686
  172SAPE  C21119497   2.850   2.229   7.596  0.7230  0.4913  0.9037
  172SAPE  H11R19498   2.786   2.145   7.564  1.5302  0.5609 -0.9936
  172SAPE  C21219499   2.795   2.305   7.696 -0.4287  0.4279 -0.6203
  172SAPE  H12R19500   2.707   2.269   7.753  1.2921  1.7347  3.1710
  172SAPE  C21319501   2.863   2.428   7.751  0.0367 -0.4365  0.7382
  172SAPE  H13R19502   2.973   2.413   7.760  0.2221  1.0074  1.1383
  172SAPE  H13S19503   2.832   2.438   7.858 -0.3970  0.8360  0.5060
  172SAPE  C21419504   2.830   2.549   7.666  0.0989 -1.1738  0.5051
  172SAPE  H14R19505   2.814   2.537   7.558  0.0641  0.9111  0.2434
  172SAPE  C21519506   2.798   2.672   7.705  0.1990  0.4442 -0.3615
  172SAPE  H15R19507   2.765   2.741   7.626 -1.6946 -0.7306 -0.6580
  172SAPE  C21619508   2.781   2.728   7.843 -0.6043  0.2516 -0.0786
  172SAPE  H16R19509   2.802   2.837   7.835  0.5110  0.0196 -0.6077
  172SAPE  H16S19510   2.844   2.679   7.920 -0.0700  1.3007  0.1722
  172SAPE  C21719511   2.638   2.739   7.898 -0.3116 -0.4048  0.0955
  172SAPE  H17R19512   2.640   2.785   7.999 -1.0611  2.4136 -1.0770
  172SAPE  H17S19513   2.600   2.635   7.914  1.0223 -0.9849 -0.3132
  172SAPE  C21819514   2.532   2.824   7.821  0.0339  0.0656  0.3699
  172SAPE  H18R19515   2.474   2.762   7.749  0.1446  0.7528 -0.3346
  172SAPE  H18S19516   2.575   2.909   7.763 -0.1816  1.7112  2.5155
  172SAPE  C21919517   2.437   2.884   7.921  0.7365 -0.1117 -0.4382
  172SAPE  H19R19518   2.389   2.975   7.879 -0.1947  0.2035  1.1966
  172SAPE  H19S19519   2.492   2.917   8.012 -0.2686 -1.3175  0.6418
  172SAPE  C22019520   2.321   2.788   7.964  0.1157  0.5779  0.2852
  172SAPE  H20R19521   2.264   2.825   8.051  2.8977 -1.0225  2.9703
  172SAPE  H20S19522   2.361   2.691   8.001  0.8746  1.0206  0.6462
  172SAPE  H20T19523   2.259   2.764   7.874  0.6568 -1.4448  0.3948
  172SAPE   C3319524   3.781   1.992   7.102 -0.7660  0.6780 -0.3023
  172SAPE   H3X19525   3.714   1.910   7.137  2.0504 -1.7967 -0.2420
  172SAPE   H3Y19526   3.747   2.085   7.151 -2.4770  1.3218 -2.5444
  172SAPE   C3419527   3.921   1.937   7.146  0.9025 -0.9192 -0.3058
  172SAPE   H4X19528   4.005   2.004   7.119 -0.1252  0.5014 -0.0818
  172SAPE   H4Y19529   3.930   1.838   7.097 -1.0532 -0.4163 -1.7956
  172SAPE   C3519530   3.923   1.906   7.296  0.6438 -0.0855  0.1500
  172SAPE   H5X19531   3.845   1.834   7.326 -1.3041  0.2252 -3.5091
  172SAPE   H5Y19532   3.904   1.996   7.358  1.4285  1.1123 -1.2723
  172SAPE   C3619533   4.063   1.838   7.325 -0.1336 -0.1239 -0.3116
  172SAPE   H6X19534   4.127   1.921   7.288  1.4242 -0.8553  0.6742
  172SAPE   H6Y19535   4.095   1.753   7.261  2.8052  2.0191 -1.9256
  172SAPE   C3719536   4.105   1.841   7.472 -0.0304 -0.6119 -0.0612
  172SAPE   H7X19537   4.071   1.929   7.531  1.9376  0.0623  0.1423
  172SAPE   H7Y19538   4.216   1.844   7.476  0.0974 -2.7102 -1.0783
  172SAPE   C3819539   4.058   1.716   7.545  0.0195 -0.3196 -0.4000
  172SAPE   H8X19540   4.085   1.637   7.471 -0.5926  0.5092 -1.5495
  172SAPE   H8Y19541   3.951   1.729   7.570  1.0229  3.4675  2.8945
  172SAPE   C3919542   4.120   1.681   7.682  0.1750 -0.0913 -0.2530
  172SAPE   H9X19543   4.102   1.572   7.690  0.4036 -0.0103  1.8641
  172SAPE   H9Y19544   4.053   1.728   7.757 -0.9896  0.0099 -1.3180
  172SAPE  C31019545   4.266   1.717   7.707 -0.3655  0.4104  0.2847
  172SAPE  H10X19546   4.300   1.819   7.676 -0.6905  1.0450  1.9358
  172SAPE  H10Y19547   4.322   1.651   7.638 -0.8419 -1.6641  1.8102
  172SAPE  C31119548   4.306   1.681   7.854 -0.2262  0.5893  0.1491
  172SAPE  H11X19549   4.417   1.682   7.866  0.1400 -3.0118 -1.6751
  172SAPE  H11Y19550   4.271   1.576   7.867  0.3234  0.3304 -0.4231
  172SAPE  C31219551   4.254   1.786   7.949 -0.2166 -1.0630  0.2833
  172SAPE  H12X19552   4.148   1.804   7.923  0.5238 -0.0598 -2.3656
  172SAPE  H12Y19553   4.309   1.882   7.935 -1.4268  0.0708  2.7664
  172SAPE  C31319554   4.265   1.759   8.097  0.0281 -0.6207 -0.0293
  172SAPE  H13X19555   4.234   1.657   8.129  1.8637 -1.0057  0.6783
  172SAPE  H13Y19556   4.200   1.839   8.138  1.8699  2.4482 -2.5928
  172SAPE  C31419557   4.406   1.809   8.148  0.9720 -0.9804 -0.6458
  172SAPE  H14X19558   4.407   1.920   8.151 -1.4484 -0.8852 -1.4326
  172SAPE  H14Y19559   4.475   1.770   8.070 -0.0042 -0.3283 -1.8677
  172SAPE  C31519560   4.439   1.752   8.283 -0.1978  0.5416  0.5466
  172SAPE  H15X19561   4.451   1.644   8.258  0.2393  1.1519 -2.2600
  172SAPE  H15Y19562   4.356   1.776   8.352 -0.7997  0.5566 -0.1739
  172SAPE  C31619563   4.569   1.806   8.348  0.1393  0.5809 -0.4074
  172SAPE  H16X19564   4.658   1.793   8.284 -0.3906  0.3490 -1.1121
  172SAPE  H16Y19565   4.599   1.753   8.441  2.7054  0.6932 -1.1052
  172SAPE  C31719566   4.560   1.950   8.399 -0.0312 -0.8199 -0.4114
  172SAPE  H17X19567   4.479   1.938   8.474 -0.0239  1.0412 -0.0734
  172SAPE  H17Y19568   4.519   2.008   8.313 -0.6338  1.1231  1.1098
  172SAPE  C31819569   4.683   2.013   8.457  0.3215 -0.1921 -0.1606
  172SAPE  H18X19570   4.721   1.960   8.547 -0.8563 -0.3998  0.2310
  172SAPE  H18Y19571   4.669   2.117   8.491  2.8394 -0.2182  1.1921
  172SAPE  H18Z19572   4.762   2.011   8.379 -2.7006 -5.2337 -3.7575
  173SOPE     N19573   5.279   2.007  10.862 -0.3826  0.3052  0.5978
  173SOPE   HN119574   5.223   1.985  10.776  2.5793 -0.6007 -1.2629
  173SOPE   HN219575   5.362   2.061  10.832  0.1899 -1.9279 -2.4426
  173SOPE   HN319576   5.307   1.912  10.896  0.2703  0.5571  0.7792
  173SOPE   C1219577   5.204   2.076  10.974 -0.3774  0.0523 -0.3900
  173SOPE  H12A19578   5.281   2.128  11.036  0.7870 -1.4060 -0.5452
  173SOPE  H12B19579   5.154   2.001  11.039 -0.5061 -0.6622 -1.2940
  173SOPE   C1119580   5.100   2.175  10.910 -0.0177  0.0970  0.0574
  173SOPE  H11A19581   5.144   2.246  10.837  0.3060 -0.6429 -0.4816
  173SOPE  H11B19582   5.066   2.229  11.001 -0.6898 -1.4495  0.7739
  173SOPE     P19583   4.862   2.052  10.917  0.1003  0.0155  0.4306
  173SOPE   O1319584   4.750   2.102  10.842  0.6945 -0.4376  0.6425
  173SOPE   O1419585   4.863   2.090  11.062  0.3725 -0.4464  0.2696
  173SOPE   O1219586   4.992   2.102  10.845 -0.0433 -0.0203 -0.3873
  173SOPE   O1119587   4.863   1.897  10.905 -0.0692 -0.0138  0.1017
  173SOPE    C119588   4.956   1.817  10.834 -0.3718  0.6513  0.3402
  173SOPE    HA19589   4.955   1.716  10.879  0.5397  0.5427  0.1376
  173SOPE    HB19590   5.057   1.857  10.855 -0.1092  0.6959 -0.9156
  173SOPE    C219591   4.934   1.791  10.682 -0.0933 -0.4614  0.3605
  173SOPE    HS19592   5.017   1.726  10.647 -0.0087  0.0959 -0.4952
  173SOPE   O2119593   4.932   1.907  10.596 -0.0429 -0.9022  0.7906
  173SOPE   C2119594   5.040   1.981  10.588 -0.6612  0.2536  0.9404
  173SOPE   O2219595   5.146   1.951  10.637 -0.1692  0.0610 -0.0871
  173SOPE   C2219596   5.015   2.107  10.492  0.2755  0.2845  0.5133
  173SOPE   H2R19597   5.111   2.161  10.504 -0.2761  1.3803  0.1287
  173SOPE   H2S19598   4.925   2.149  10.542 -0.0516 -0.8781  0.9195
  173SOPE    C319599   4.794   1.716  10.666 -0.1946  0.1520 -0.0601
  173SOPE    HX19600   4.709   1.783  10.690 -2.3846 -2.1707 -0.7970
  173SOPE    HY19601   4.802   1.631  10.737 -1.2754 -0.8222 -1.0715
  173SOPE   O3119602   4.776   1.660  10.532  0.2932 -0.2804 -0.0088
  173SOPE   C3119603   4.825   1.543  10.500 -0.4788 -0.4158 -0.1385
  173SOPE   O3219604   4.910   1.480  10.570  0.2387  0.5204 -0.0540
  173SOPE   C3219605   4.769   1.507  10.363 -0.3667  0.6644  0.4579
  173SOPE   H2X19606   4.821   1.579  10.296  1.4945  0.1505  1.2666
  173SOPE   H2Y19607   4.663   1.539  10.355  0.3171  2.8812 -0.5841
  173SOPE   C2319608   4.981   2.087  10.337 -0.2612 -0.4533  0.2328
  173SOPE   H3R19609   5.057   2.029  10.281  1.4076  0.7156  1.1741
  173SOPE   H3S19610   4.971   2.190  10.296  2.2991  0.4219  1.5662
  173SOPE   C2419611   4.851   2.013  10.319  0.3879  0.7137  0.1563
  173SOPE   H4R19612   4.844   1.913  10.368 -0.1045  1.1702  1.0394
  173SOPE   H4S19613   4.774   2.081  10.361 -0.3955  0.6687 -1.1380
  173SOPE   C2519614   4.808   1.998  10.173 -0.5521 -0.2965 -0.3676
  173SOPE   H5R19615   4.697   1.997  10.174 -0.7844  3.4744 -2.6896
  173SOPE   H5S19616   4.839   2.088  10.115  1.8179 -1.4989 -1.1219
  173SOPE   C2619617   4.863   1.874  10.116 -0.7986  0.5305 -0.2666
  173SOPE   H6R19618   4.966   1.901  10.083 -0.2720 -2.2443 -1.1980
  173SOPE   H6S19619   4.868   1.802  10.201 -0.2701  2.0823  1.0878
  173SOPE   C2719620   4.781   1.821   9.993 -0.1102 -0.2188 -0.6026
  173SOPE   H7R19621   4.679   1.792  10.027 -0.1080  0.6426  0.1663
  173SOPE   H7S19622   4.770   1.895   9.911 -2.0745 -1.2610 -1.3589
  173SOPE   C2819623   4.856   1.697   9.940 -0.2100 -0.6070 -0.1994
  173SOPE   H8R19624   4.945   1.739   9.888 -1.5469  2.4803 -0.1736
  173SOPE   H8S19625   4.892   1.645  10.031 -0.1445  3.2210  2.1543
  173SOPE   C2919626   4.778   1.611   9.848 -0.4164  0.2118 -0.6251
  173SOPE   H9119627   4.683   1.576   9.891 -0.3896  1.7133  0.7810
  173SOPE  C21019628   4.831   1.581   9.726 -0.4776  0.3463 -0.2802
  173SOPE  H10119629   4.779   1.509   9.661 -1.0979  0.5194  0.0106
  173SOPE  C21119630   4.959   1.618   9.660  0.0484  0.5290  0.0924
  173SOPE  H11R19631   5.048   1.554   9.682 -0.7824  0.1838  2.9051
  173SOPE  H11S19632   4.988   1.715   9.705 -1.3990 -0.1626  2.7603
  173SOPE  C21219633   4.950   1.641   9.503  0.4462 -0.3076  0.4724
  173SOPE  H12R19634   4.879   1.724   9.482  0.7617  0.1881  1.3011
  173SOPE  H12S19635   4.925   1.552   9.443  0.8343 -0.3941  0.4355
  173SOPE  C21319636   5.080   1.689   9.447 -0.5156 -0.7690  0.3960
  173SOPE  H13R19637   5.163   1.615   9.445  0.4127  0.2439  0.2843
  173SOPE  H13S19638   5.125   1.774   9.503  1.2847 -0.1126 -1.8852
  173SOPE  C21419639   5.060   1.735   9.304  0.0065 -0.5400 -0.1589
  173SOPE  H14R19640   5.016   1.837   9.314 -1.2136 -1.2147  2.0349
  173SOPE  H14S19641   4.989   1.677   9.241 -1.0166 -0.8761  1.2500
  173SOPE  C21519642   5.195   1.761   9.238 -0.1886 -0.1839  0.1608
  173SOPE  H15R19643   5.243   1.660   9.233  0.7589  0.2191  0.7756
  173SOPE  H15S19644   5.258   1.827   9.300  0.6355  0.2013 -1.0569
  173SOPE  C21619645   5.177   1.805   9.090  0.2141  0.4028 -0.3652
  173SOPE  H16R19646   5.132   1.907   9.089  0.6955  0.6315  0.4349
  173SOPE  H16S19647   5.110   1.739   9.031 -0.2414  0.0081  0.5720
  173SOPE  C21719648   5.310   1.803   9.010  0.4250 -0.2885 -0.1711
  173SOPE  H17R19649   5.358   1.703   9.012 -0.9019 -0.9543 -0.1244
  173SOPE  H17S19650   5.392   1.857   9.061  1.5292 -2.0047 -0.0544
  173SOPE  C21819651   5.293   1.828   8.863  0.1382 -0.8463  0.3177
  173SOPE  H18R19652   5.262   1.931   8.839  1.3880 -0.8568 -1.5317
  173SOPE  H18S19653   5.212   1.768   8.817 -0.7853 -0.2305  1.0898
  173SOPE  H18T19654   5.391   1.817   8.813  0.8790  0.9472  1.2774
  173SOPE   C3319655   4.796   1.365  10.313 -0.5080 -0.7586 -0.5566
  173SOPE   H3X19656   4.729   1.299  10.372  0.3327 -0.6442  0.5515
  173SOPE   H3Y19657   4.897   1.328  10.341  0.0111  1.6034  1.0275
  173SOPE   C3419658   4.775   1.363  10.167 -0.0592  0.3039  0.1870
  173SOPE   H4X19659   4.846   1.433  10.118 -1.6420  1.6792 -0.2401
  173SOPE   H4Y19660   4.680   1.408  10.131  0.7401  0.7820 -1.4227
  173SOPE   C3519661   4.772   1.226  10.101  0.5232 -0.6663  0.6426
  173SOPE   H5X19662   4.680   1.169  10.127 -0.1587  0.3394  0.5024
  173SOPE   H5Y19663   4.856   1.161  10.133  1.3135 -0.8091 -1.5397
  173SOPE   C3619664   4.799   1.224   9.945 -0.0203  0.1167 -0.2907
  173SOPE   H6X19665   4.883   1.295   9.927 -0.1830  0.7062  1.1221
  173SOPE   H6Y19666   4.707   1.270   9.905 -0.0705 -0.8446 -1.3227
  173SOPE   C3719667   4.816   1.082   9.899  0.1863  0.2934 -0.3138
  173SOPE   H7X19668   4.715   1.038   9.895  1.1377 -2.0060 -0.8243
  173SOPE   H7Y19669   4.874   1.015   9.966  0.7515 -1.1376 -2.1376
  173SOPE   C3819670   4.882   1.078   9.763  0.0806  0.6167 -0.5312
  173SOPE   H8X19671   4.894   0.970   9.741 -1.2258  0.5941 -1.2784
  173SOPE   H8Y19672   4.984   1.119   9.779  0.6152 -1.1905  0.9029
  173SOPE   C3919673   4.817   1.165   9.654 -0.1181 -0.6353  0.1341
  173SOPE   H9X19674   4.832   1.269   9.690 -1.7880 -0.0596 -0.7540
  173SOPE   H9Y19675   4.706   1.155   9.656 -0.0122 -2.0657  0.8111
  173SOPE  C31019676   4.869   1.147   9.514 -1.2967  0.7424 -1.5642
  173SOPE  H10X19677   4.850   1.043   9.479 -0.2951 -0.4189  1.1371
  173SOPE  H10Y19678   4.979   1.139   9.527 -1.4615  0.7618  0.0057
  173SOPE  C31119679   4.837   1.266   9.424 -0.1014 -0.0467  0.0425
  173SOPE  H11X19680   4.852   1.362   9.478  0.2692 -0.2050  0.2222
  173SOPE  H11Y19681   4.727   1.262   9.408 -0.1884  2.6225 -0.5888
  173SOPE  C31219682   4.905   1.260   9.291  0.2849  0.0445 -0.4123
  173SOPE  H12X19683   5.015   1.245   9.301 -0.0556 -1.6653  1.7882
  173SOPE  H12Y19684   4.902   1.363   9.249 -0.6781 -0.2196 -1.0149
  173SOPE  C31319685   4.843   1.160   9.184 -0.2382 -0.5653 -0.1170
  173SOPE  H13X19686   4.734   1.180   9.176 -0.1897 -0.6902 -1.1742
  173SOPE  H13Y19687   4.854   1.052   9.211 -0.2854 -0.4628  0.3234
  173SOPE  C31419688   4.899   1.179   9.037 -0.7725 -0.2191  0.3888
  173SOPE  H14X19689   5.006   1.149   9.044 -0.4585  0.4202 -1.1469
  173SOPE  H14Y19690   4.919   1.285   9.008  2.3730 -0.9529 -0.5205
  173SOPE  C31519691   4.819   1.110   8.932 -0.4529  0.0344  0.5706
  173SOPE  H15X19692   4.713   1.143   8.920 -0.6996 -1.1211 -0.7754
  173SOPE  H15Y19693   4.821   1.001   8.955  2.1279 -0.6954 -2.4075
  173SOPE  C31619694   4.883   1.135   8.797  0.2726 -0.5500  0.2496
  173SOPE  H16X19695   4.991   1.113   8.803  0.4542 -0.2393 -1.3657
  173SOPE  H16Y19696   4.859   1.237   8.759 -0.3299 -1.1622 -1.1230
  173SOPE  C31719697   4.834   1.033   8.692  0.8049 -0.1755 -0.0389
  173SOPE  H17X19698   4.731   1.052   8.657  1.3476 -0.4856 -1.9218
  173SOPE  H17Y19699   4.838   0.936   8.746 -0.4019 -0.0035  0.3732
  173SOPE  C31819700   4.925   1.023   8.568 -0.0988 -0.2175 -0.2942
  173SOPE  H18X19701   5.020   0.974   8.598 -0.6302 -0.2211  1.5116
  173SOPE  H18Y19702   4.954   1.122   8.525  0.4213  0.4716  1.5398
  173SOPE  H18Z19703   4.882   0.958   8.489  0.4502 -0.6788 -0.2175
  174SOPE     N19704   6.201   6.667  10.516  0.9451  0.3501 -0.4193
  174SOPE   HN119705   6.285   6.723  10.542  0.0145  2.2352 -1.2296
  174SOPE   HN219706   6.133   6.731  10.469  1.3199 -0.2973 -1.9012
  174SOPE   HN319707   6.149   6.634  10.600  0.6877  0.6906 -0.4404
  174SOPE   C1219708   6.240   6.549  10.430 -0.6244  0.3025  0.9769
  174SOPE  H12A19709   6.317   6.588  10.361  0.9333 -1.7036  1.4868
  174SOPE  H12B19710   6.160   6.491  10.379 -0.1766  0.3475  0.2259
  174SOPE   C1119711   6.327   6.446  10.508  0.6442 -0.8819 -0.3921
  174SOPE  H11A19712   6.255   6.380  10.560 -0.2333 -1.7213 -2.5460
  174SOPE  H11B19713   6.388   6.487  10.592 -0.6992  0.1269  0.1197
  174SOPE     P19714   6.476   6.237  10.448 -0.3144  0.0501  0.0496
  174SOPE   O1319715   6.372   6.127  10.453 -0.6810 -0.0435  0.5683
  174SOPE   O1419716   6.577   6.248  10.560 -0.1959 -0.5410 -0.2095
  174SOPE   O1219717   6.404   6.377  10.414 -0.6987  0.0017  0.1384
  174SOPE   O1119718   6.556   6.206  10.316 -0.5282  0.3480 -0.2518
  174SOPE    C119719   6.625   6.309  10.248 -0.1979 -0.1912  0.3126
  174SOPE    HA19720   6.675   6.382  10.315 -0.3314  1.1879 -1.0295
  174SOPE    HB19721   6.550   6.361  10.185  0.6846  1.6795  0.7311
  174SOPE    C219722   6.730   6.250  10.144  0.2273 -0.6510 -0.3710
  174SOPE    HS19723   6.759   6.334  10.078 -1.4345 -0.9118 -1.4859
  174SOPE   O2119724   6.673   6.143  10.065 -0.2517  0.1373  0.3634
  174SOPE   C2119725   6.589   6.177   9.965 -1.4305  0.7911 -0.3895
  174SOPE   O2219726   6.568   6.292   9.937 -0.0081 -0.0155 -0.2684
  174SOPE   C2219727   6.546   6.052   9.894  0.2452 -0.0451 -0.5777
  174SOPE   H2R19728   6.477   5.983   9.947  0.0778 -0.1741 -0.9621
  174SOPE   H2S19729   6.638   5.991   9.876  1.0336  0.7992  0.4549
  174SOPE    C319730   6.855   6.189  10.217 -0.3864  0.1338  0.2612
  174SOPE    HX19731   6.813   6.124  10.296 -1.4353  1.6354  0.9822
  174SOPE    HY19732   6.901   6.267  10.283 -0.1423 -0.6708  1.0592
  174SOPE   O3119733   6.944   6.135  10.125 -0.4728  0.1964  0.3386
  174SOPE   C3119734   6.955   6.008  10.117 -0.0247 -0.4802 -0.1199
  174SOPE   O3219735   6.906   5.924  10.187 -0.3465  0.4897 -0.2103
  174SOPE   C3219736   7.046   5.975   9.990 -0.2169 -0.6091  0.2143
  174SOPE   H2X19737   7.145   5.994  10.037 -0.4893  4.0030 -0.6361
  174SOPE   H2Y19738   7.024   6.043   9.906  0.9563 -2.0998 -1.3773
  174SOPE   C2319739   6.484   6.072   9.753 -0.2973 -0.0733  0.2035
  174SOPE   H3R19740   6.557   6.123   9.686 -0.7216 -0.3615 -0.4982
  174SOPE   H3S19741   6.395   6.138   9.759  0.2160  0.9944 -2.3412
  174SOPE   C2419742   6.444   5.930   9.695  0.7110 -0.3413 -0.7948
  174SOPE   H4R19743   6.532   5.866   9.717 -1.1459 -3.6243 -2.0533
  174SOPE   H4S19744   6.367   5.888   9.764  1.7893 -1.0403  0.0255
  174SOPE   C2519745   6.432   5.919   9.542  0.8824  0.2179 -0.1004
  174SOPE   H5R19746   6.427   5.812   9.512  0.1485  0.0054  0.7390
  174SOPE   H5S19747   6.350   5.981   9.500 -0.3146 -0.0792  1.6505
  174SOPE   C2619748   6.552   5.980   9.477  0.2781  0.5964  0.0243
  174SOPE   H6R19749   6.535   6.088   9.455 -0.9900  0.7312  1.4627
  174SOPE   H6S19750   6.633   5.991   9.552  0.1189 -1.6211  0.5775
  174SOPE   C2719751   6.593   5.899   9.357 -0.3400 -0.5856  0.6730
  174SOPE   H7R19752   6.681   5.946   9.308 -3.4667  2.6502 -2.4414
  174SOPE   H7S19753   6.628   5.798   9.388  2.6631 -0.5255 -2.0376
  174SOPE   C2819754   6.487   5.890   9.246  0.0320 -0.8314 -0.5447
  174SOPE   H8R19755   6.395   5.844   9.289 -0.6269  1.5168  0.7515
  174SOPE   H8S19756   6.473   5.998   9.223 -0.2869 -0.3280  1.7698
  174SOPE   C2919757   6.523   5.819   9.117 -0.8234  0.1822  0.8179
  174SOPE   H9119758   6.581   5.727   9.129 -1.6473 -0.4461  0.1053
  174SOPE  C21019759   6.500   5.868   8.990 -0.2671 -0.2287 -0.1386
  174SOPE  H10119760   6.518   5.805   8.902 -0.9405 -1.0048  0.2649
  174SOPE  C21119761   6.425   5.998   8.954  0.3471  0.1701 -0.1920
  174SOPE  H11R19762   6.485   6.053   8.878 -0.8777  1.6280 -0.1473
  174SOPE  H11S19763   6.414   6.066   9.041  1.8319  1.8416 -1.2331
  174SOPE  C21219764   6.277   5.965   8.921  0.1776  0.2889 -0.2482
  174SOPE  H12R19765   6.216   5.933   9.009  0.5409  0.6010  0.1184
  174SOPE  H12S19766   6.268   5.878   8.852  0.0980 -0.3015  0.5020
  174SOPE  C21319767   6.195   6.077   8.851  0.1979 -0.0091 -0.2817
  174SOPE  H13R19768   6.263   6.126   8.778 -1.0837 -0.4902 -1.8462
  174SOPE  H13S19769   6.162   6.141   8.935 -1.3416 -0.9416 -0.1537
  174SOPE  C21419770   6.077   6.017   8.770 -0.7290 -0.0779  0.7075
  174SOPE  H14R19771   6.019   5.934   8.816  0.3027 -0.5805  1.1523
  174SOPE  H14S19772   6.129   5.961   8.688 -1.2131  1.1056 -0.4323
  174SOPE  C21519773   5.982   6.117   8.700  0.1335 -0.3311  0.3326
  174SOPE  H15R19774   5.903   6.168   8.759  0.7674  1.7959 -0.5513
  174SOPE  H15S19775   5.942   6.059   8.613  2.4599 -0.0958 -0.9781
  174SOPE  C21619776   6.068   6.227   8.630 -0.0359 -0.0333  0.0061
  174SOPE  H16R19777   6.143   6.172   8.569 -0.3720  0.8840 -1.2881
  174SOPE  H16S19778   6.121   6.276   8.714 -2.6176  1.2850  0.9733
  174SOPE  C21719779   5.985   6.327   8.541 -0.3321 -0.7514 -0.2163
  174SOPE  H17R19780   5.935   6.268   8.461 -1.1700  1.2619 -1.2279
  174SOPE  H17S19781   6.061   6.395   8.497  0.6218 -1.9672 -0.5448
  174SOPE  C21819782   5.881   6.412   8.616 -0.0260  0.6092 -0.3424
  174SOPE  H18R19783   5.944   6.467   8.689 -0.3754  0.0609  0.3767
  174SOPE  H18S19784   5.818   6.348   8.681  0.4141  1.0328  0.5149
  174SOPE  H18T19785   5.814   6.475   8.554  1.3440  1.8078 -0.6776
  174SOPE   C3319786   7.029   5.830   9.951  0.0791 -0.6124 -0.4922
  174SOPE   H3X19787   6.922   5.833   9.919  0.2219 -0.8112 -1.0059
  174SOPE   H3Y19788   7.027   5.761  10.038  0.7385 -1.4216 -1.1037
  174SOPE   C3419789   7.124   5.777   9.846  0.5382  0.1195 -0.1244
  174SOPE   H4X19790   7.101   5.673   9.814  0.9113 -0.3013  0.9569
  174SOPE   H4Y19791   7.227   5.791   9.885 -0.9331  1.3520  3.7126
  174SOPE   C3519792   7.124   5.857   9.717 -0.3549  0.8723 -0.7224
  174SOPE   H5X19793   7.208   5.823   9.653 -1.1603 -2.3216 -0.2690
  174SOPE   H5Y19794   7.137   5.964   9.745  0.4802  0.2554  1.4611
  174SOPE   C3619795   6.993   5.845   9.642 -0.2634  0.5959  0.1136
  174SOPE   H6X19796   6.908   5.880   9.705 -0.4938 -0.7731  0.6097
  174SOPE   H6Y19797   6.969   5.741   9.610  1.2133 -0.2073  1.5059
  174SOPE   C3719798   7.004   5.914   9.511  0.5501 -0.1333 -0.6954
  174SOPE   H7X19799   6.915   5.899   9.446  1.6570  0.5567 -2.4296
  174SOPE   H7Y19800   7.093   5.868   9.464  1.3808 -0.7535  1.3865
  174SOPE   C3819801   7.034   6.063   9.525 -0.3504 -0.1153  0.3968
  174SOPE   H8X19802   7.135   6.066   9.572 -0.3574 -0.4564  0.4299
  174SOPE   H8Y19803   6.962   6.125   9.583 -3.3476 -3.4292  0.5247
  174SOPE   C3919804   7.052   6.129   9.388  0.2594 -0.2763 -0.0283
  174SOPE   H9X19805   7.104   6.055   9.323 -2.0322 -1.1436 -0.9814
  174SOPE   H9Y19806   7.120   6.216   9.403  0.3589 -0.1911 -0.9048
  174SOPE  C31019807   6.924   6.161   9.306  0.1347  0.1926  0.4899
  174SOPE  H10X19808   6.856   6.238   9.348 -0.2146 -0.0563  0.3799
  174SOPE  H10Y19809   6.872   6.065   9.293 -0.9729  1.1040 -2.5933
  174SOPE  C31119810   6.932   6.204   9.155  0.0910  0.0553 -0.4579
  174SOPE  H11X19811   7.000   6.133   9.102 -1.5826 -1.7813 -0.2378
  174SOPE  H11Y19812   6.980   6.304   9.168  1.4868 -0.8376  1.8901
  174SOPE  C31219813   6.799   6.204   9.075 -0.8358 -0.5893 -0.4479
  174SOPE  H12X19814   6.734   6.276   9.129  3.1108  1.8888  1.4025
  174SOPE  H12Y19815   6.758   6.101   9.063  1.5635 -1.4773 -1.5741
  174SOPE  C31319816   6.824   6.266   8.933 -0.9223 -0.0516  0.5046
  174SOPE  H13X19817   6.888   6.356   8.949 -0.1641 -0.4437 -0.2330
  174SOPE  H13Y19818   6.726   6.302   8.896 -0.2859  0.6415 -0.5528
  174SOPE  C31419819   6.900   6.169   8.835  0.2189  0.3909  0.6118
  174SOPE  H14X19820   6.985   6.116   8.882 -1.5907 -2.2711  1.1592
  174SOPE  H14Y19821   6.927   6.226   8.744  0.9350 -0.6579  0.1459
  174SOPE  C31519822   6.809   6.062   8.773 -0.1237 -0.7531 -0.1148
  174SOPE  H15X19823   6.721   6.110   8.725 -1.4928 -2.2674  0.8071
  174SOPE  H15Y19824   6.759   5.993   8.844  1.0991  0.0930  1.6308
  174SOPE  C31619825   6.881   5.976   8.673  0.9479  0.1078 -0.3431
  174SOPE  H16X19826   6.921   6.054   8.605 -1.7525  0.9505 -1.0964
  174SOPE  H16Y19827   6.803   5.919   8.618  1.9030 -1.3373 -0.2445
  174SOPE  C31719828   6.981   5.887   8.728 -0.0687 -0.2987 -0.5002
  174SOPE  H17X19829   6.939   5.831   8.815  1.9132 -0.9189  0.1027
  174SOPE  H17Y19830   7.075   5.932   8.766 -0.3797 -1.0403  1.2359
  174SOPE  C31819831   7.022   5.780   8.622  0.7799  0.4659 -0.0526
  174SOPE  H18X19832   7.081   5.703   8.677  0.6656 -0.1809 -0.8133
  174SOPE  H18Y19833   7.076   5.823   8.535 -1.8498  2.0479 -1.0166
  174SOPE  H18Z19834   6.940   5.724   8.573  2.2658  0.8216 -3.1346
  175SOPE     N19835   6.750   6.532  10.714 -0.1086  0.3418 -0.3634
  175SOPE   HN119836   6.667   6.483  10.754  2.4684 -2.1493  2.4974
  175SOPE   HN219837   6.828   6.503  10.777  1.4326 -1.5564 -2.9349
  175SOPE   HN319838   6.724   6.632  10.706 -1.2462 -0.0107 -1.2555
  175SOPE   C1219839   6.798   6.483  10.580  0.2856 -0.0823  0.6876
  175SOPE  H12A19840   6.712   6.467  10.511 -0.1901 -1.9404  1.6235
  175SOPE  H12B19841   6.841   6.382  10.599  0.3539  0.3964  3.5442
  175SOPE   C1119842   6.908   6.573  10.524 -0.1739  0.3254  0.6424
  175SOPE  H11A19843   6.885   6.682  10.512  0.4634  0.2375 -2.1651
  175SOPE  H11B19844   6.914   6.552  10.415 -2.3082 -0.1893  0.5792
  175SOPE     P19845   7.155   6.638  10.545 -0.4459 -0.0167 -0.0650
  175SOPE   O1319846   7.261   6.607  10.647  0.1392 -0.1396 -0.0426
  175SOPE   O1419847   7.117   6.776  10.519 -0.4777 -0.3475  0.5439
  175SOPE   O1219848   7.027   6.567  10.598  0.0178  0.2689  0.4479
  175SOPE   O1119849   7.173   6.558  10.407 -0.8249  0.4450 -0.0182
  175SOPE    C119850   7.229   6.423  10.409  0.9243 -0.4474 -0.0970
  175SOPE    HA19851   7.157   6.358  10.464  0.8874  0.6012  1.1311
  175SOPE    HB19852   7.324   6.412  10.466  2.1609 -0.8463 -2.1464
  175SOPE    C219853   7.264   6.371  10.268  0.9424 -0.2192  0.2196
  175SOPE    HS19854   7.351   6.434  10.242  0.5383  0.6599  0.9128
  175SOPE   O2119855   7.145   6.381  10.185  1.3690 -0.2756 -0.1203
  175SOPE   C2119856   7.170   6.431  10.065  0.4065  0.9106  0.2106
  175SOPE   O2219857   7.277   6.472  10.028  0.2522 -0.2536  0.9346
  175SOPE   C2219858   7.050   6.405   9.976  0.9731 -0.4754  0.3554
  175SOPE   H2R19859   6.962   6.462  10.012 -0.4967 -0.3509 -3.0151
  175SOPE   H2S19860   7.026   6.297   9.988  0.2044 -0.0731  2.9374
  175SOPE    C319861   7.309   6.223  10.272  0.3570 -0.6432 -0.4243
  175SOPE    HX19862   7.217   6.167  10.298 -0.8638  1.3216 -0.2681
  175SOPE    HY19863   7.383   6.217  10.355 -0.6248  1.0655  0.6366
  175SOPE   O3119864   7.353   6.182  10.144  0.5172 -0.1804  0.3637
  175SOPE   C3119865   7.483   6.205  10.112  0.8486 -0.7761 -0.2063
  175SOPE   O3219866   7.567   6.255  10.184  0.0983  0.3487  0.2952
  175SOPE   C3219867   7.505   6.148   9.975 -0.1051  0.1487 -0.5438
  175SOPE   H2X19868   7.475   6.042   9.983 -0.8971  0.3874 -0.2673
  175SOPE   H2Y19869   7.611   6.169   9.949 -0.3542  0.6610 -1.2152
  175SOPE   C2319870   7.078   6.425   9.824 -0.2769 -0.3237 -0.4479
  175SOPE   H3R19871   7.175   6.379   9.795 -0.4023 -0.1744 -1.1027
  175SOPE   H3S19872   7.076   6.535   9.807  1.4308 -0.2851 -0.5809
  175SOPE   C2419873   6.962   6.373   9.741  0.5199 -0.7043  0.0730
  175SOPE   H4R19874   6.964   6.262   9.738 -2.2060 -0.8256 -2.9903
  175SOPE   H4S19875   6.863   6.394   9.785 -0.3067  0.9705 -2.3542
  175SOPE   C2519876   6.975   6.413   9.591 -0.1840  0.2325 -0.3481
  175SOPE   H5R19877   7.072   6.381   9.546 -0.7855 -0.1881 -1.3869
  175SOPE   H5S19878   6.900   6.347   9.542 -0.9922  2.3045 -2.0937
  175SOPE   C2619879   6.966   6.559   9.566  0.2249 -0.4048  0.4611
  175SOPE   H6R19880   6.875   6.602   9.614  0.9889 -0.3196  1.8772
  175SOPE   H6S19881   7.054   6.593   9.625  0.8970 -1.3857  0.0515
  175SOPE   C2719882   6.976   6.610   9.418 -0.2495  0.0524 -0.6710
  175SOPE   H7R19883   7.077   6.572   9.391  0.3857 -0.5057  2.1631
  175SOPE   H7S19884   6.900   6.571   9.347  0.2944  1.5373 -2.1450
  175SOPE   C2819885   6.964   6.764   9.415 -0.4134  0.5137 -0.2747
  175SOPE   H8R19886   6.861   6.804   9.429 -1.4540 -1.6866 -1.1664
  175SOPE   H8S19887   7.017   6.796   9.507 -0.9169  0.6757 -0.0366
  175SOPE   C2919888   7.029   6.822   9.292  0.0620  0.1184  0.2282
  175SOPE   H9119889   7.136   6.798   9.283  0.2088  0.2590  1.3936
  175SOPE  C21019890   6.974   6.885   9.193 -0.0873  0.1701  0.3162
  175SOPE  H10119891   7.051   6.932   9.130  1.2594  0.2265  1.9157
  175SOPE  C21119892   6.831   6.919   9.164  0.3575 -0.2710  0.1405
  175SOPE  H11R19893   6.770   6.886   9.250 -1.4351 -1.2489 -1.4152
  175SOPE  H11S19894   6.796   6.864   9.074 -0.3156 -0.4405  0.5037
  175SOPE  C21219895   6.816   7.070   9.159 -0.5277 -0.3765 -0.3240
  175SOPE  H12R19896   6.859   7.114   9.251  0.0598  0.5500 -1.0264
  175SOPE  H12S19897   6.708   7.094   9.171 -0.6353 -1.4660  1.1566
  175SOPE  C21319898   6.883   7.150   9.048 -0.1530  0.0322 -1.1365
  175SOPE  H13R19899   6.992   7.134   9.035 -0.3566 -3.1696  0.3115
  175SOPE  H13S19900   6.886   7.257   9.078  0.3286 -0.1201 -0.6322
  175SOPE  C21419901   6.824   7.139   8.905  0.7754  0.2250  0.2321
  175SOPE  H14R19902   6.734   7.204   8.908  0.0169 -0.8068  0.6412
  175SOPE  H14S19903   6.791   7.033   8.897  2.9984 -0.5890  1.0265
  175SOPE  C21519904   6.916   7.176   8.785 -0.6561 -0.1964 -0.1162
  175SOPE  H15R19905   6.998   7.102   8.774 -1.9203 -1.6071 -0.4213
  175SOPE  H15S19906   6.948   7.280   8.804 -1.7647  0.3199 -0.9726
  175SOPE  C21619907   6.835   7.174   8.655 -0.3587  0.1359 -0.7282
  175SOPE  H16R19908   6.784   7.271   8.635 -1.7524 -0.0409  1.5647
  175SOPE  H16S19909   6.745   7.112   8.678 -0.5616  0.9866  0.9465
  175SOPE  C21719910   6.918   7.118   8.532  0.7855  0.1647  0.2622
  175SOPE  H17R19911   6.858   7.103   8.440 -0.2540 -0.6258  1.0353
  175SOPE  H17S19912   6.957   7.023   8.575 -0.3323 -0.3412  0.2041
  175SOPE  C21819913   7.042   7.197   8.495 -0.3450 -0.8489  0.4383
  175SOPE  H18R19914   7.028   7.272   8.414  3.1892 -1.4249 -0.8730
  175SOPE  H18S19915   7.112   7.135   8.436 -1.7763 -0.5476 -1.6881
  175SOPE  H18T19916   7.096   7.237   8.583  0.2284 -0.6835  0.0159
  175SOPE   C3319917   7.420   6.230   9.871 -0.5190 -0.9107 -0.2118
  175SOPE   H3X19918   7.463   6.333   9.868 -2.8175  0.1031 -3.0157
  175SOPE   H3Y19919   7.318   6.269   9.895 -0.0725  1.4397 -1.7344
  175SOPE   C3419920   7.427   6.157   9.741  0.4826 -1.1488  0.1915
  175SOPE   H4X19921   7.355   6.073   9.730 -0.6991 -0.1084 -0.3992
  175SOPE   H4Y19922   7.528   6.112   9.737  0.3387 -1.4041 -1.8671
  175SOPE   C3519923   7.413   6.247   9.620 -0.1696  0.3982 -0.6487
  175SOPE   H5X19924   7.478   6.336   9.631  1.9189 -1.2014  0.5917
  175SOPE   H5Y19925   7.308   6.283   9.620 -0.8716 -1.4604  1.3691
  175SOPE   C3619926   7.439   6.166   9.490 -0.4529  0.3968  0.3824
  175SOPE   H6X19927   7.358   6.089   9.492 -2.2130  2.0879  3.8770
  175SOPE   H6Y19928   7.534   6.108   9.490  1.2859  3.0677 -0.8505
  175SOPE   C3719929   7.429   6.254   9.366  0.4994  0.2104  0.2874
  175SOPE   H7X19930   7.521   6.316   9.360 -1.3003  3.0049 -0.0087
  175SOPE   H7Y19931   7.347   6.327   9.375  1.0043  0.7905  0.2633
  175SOPE   C3819932   7.419   6.181   9.233 -0.2425 -0.4273  0.0893
  175SOPE   H8X19933   7.315   6.144   9.231  0.2105 -1.7246 -0.3673
  175SOPE   H8Y19934   7.484   6.091   9.223 -2.1443 -1.6028 -2.9469
  175SOPE   C3919935   7.443   6.283   9.124  0.3381  0.4429  0.7116
  175SOPE   H9X19936   7.546   6.321   9.142  1.1008 -1.3954  0.4575
  175SOPE   H9Y19937   7.372   6.368   9.119  0.6988  0.8386  1.8615
  175SOPE  C31019938   7.443   6.221   8.978  0.6611 -0.4753 -0.6628
  175SOPE  H10X19939   7.466   6.113   8.989  2.1451 -0.1156 -0.0472
  175SOPE  H10Y19940   7.516   6.276   8.915  1.2097 -0.4041  0.0307
  175SOPE  C31119941   7.302   6.234   8.905  0.2283 -0.0264  0.6751
  175SOPE  H11X19942   7.231   6.151   8.926 -0.4836  0.3855 -0.0647
  175SOPE  H11Y19943   7.323   6.229   8.796  3.4604  0.8844  1.1302
  175SOPE  C31219944   7.217   6.358   8.920  0.7258 -0.0432 -0.4968
  175SOPE  H12X19945   7.183   6.364   9.026 -2.9425  0.8111 -1.5784
  175SOPE  H12Y19946   7.132   6.356   8.849  0.0846  0.3524  0.2351
  175SOPE  C31319947   7.289   6.488   8.896 -0.7950  0.9481 -0.1459
  175SOPE  H13X19948   7.304   6.508   8.788  0.3169 -3.2060 -0.9153
  175SOPE  H13Y19949   7.393   6.477   8.934 -1.4098  0.8480  1.5983
  175SOPE  C31419950   7.227   6.610   8.966  0.0459  0.6310 -0.0506
  175SOPE  H14X19951   7.284   6.705   8.954  1.3362 -0.2183 -0.9592
  175SOPE  H14Y19952   7.228   6.579   9.072  1.2246  1.6185  0.2518
  175SOPE  C31519953   7.082   6.635   8.936 -0.5160 -0.6654  0.2007
  175SOPE  H15X19954   7.043   6.726   8.987 -1.2359  0.0142 -1.5036
  175SOPE  H15Y19955   7.017   6.550   8.965 -1.3185  0.4894  1.9579
  175SOPE  C31619956   7.064   6.652   8.781  0.3655  0.6545 -0.0433
  175SOPE  H16X19957   7.084   6.560   8.722  1.2057 -0.3565  1.7323
  175SOPE  H16Y19958   7.139   6.725   8.744  0.2727  0.1644 -1.2558
  175SOPE  C31719959   6.925   6.709   8.750  0.2906 -0.6879 -0.0600
  175SOPE  H17X19960   6.919   6.813   8.789 -1.4418 -0.7150 -0.1799
  175SOPE  H17Y19961   6.841   6.660   8.803 -1.5088  0.7159 -1.4763
  175SOPE  C31819962   6.894   6.715   8.601 -0.0697  0.2232 -1.6845
  175SOPE  H18X19963   6.808   6.782   8.582 -1.3400  0.1053  2.6631
  175SOPE  H18Y19964   6.869   6.612   8.566  1.1972  0.5713 -3.7936
  175SOPE  H18Z19965   6.989   6.747   8.554  1.3444  1.5280  1.7303
  176SOPE     N19966   4.432   5.653  10.919 -0.1726  0.2789 -0.2316
  176SOPE   HN119967   4.379   5.608  10.997  0.1809 -3.4159 -1.9145
  176SOPE   HN219968   4.523   5.604  10.911  1.0953  2.0876  1.9520
  176SOPE   HN319969   4.448   5.754  10.942  2.0262 -0.3490  1.3259
  176SOPE   C1219970   4.361   5.631  10.789 -0.9836  0.8241  0.0260
  176SOPE  H12A19971   4.275   5.701  10.784  0.2985  2.5464  0.9023
  176SOPE  H12B19972   4.334   5.523  10.790 -0.5040  0.7007  0.6046
  176SOPE   C1119973   4.471   5.658  10.684 -0.0321  0.0420  0.1528
  176SOPE  H11A19974   4.491   5.767  10.690  0.6896 -0.1073  0.5549
  176SOPE  H11B19975   4.424   5.641  10.585  1.6902  2.2417 -1.1386
  176SOPE     P19976   4.726   5.640  10.652 -0.0850  0.1445  0.0773
  176SOPE   O1319977   4.841   5.553  10.680 -0.4753  0.1392 -0.4860
  176SOPE   O1419978   4.730   5.773  10.708 -0.3219 -0.2058  0.1203
  176SOPE   O1219979   4.590   5.584  10.700 -0.0974 -0.5813  0.0585
  176SOPE   O1119980   4.703   5.654  10.496 -0.3856  0.0053 -0.2250
  176SOPE    C119981   4.664   5.530  10.432 -0.0636  0.6758 -0.3837
  176SOPE    HA19982   4.589   5.550  10.352 -4.7029 -0.8517  3.0749
  176SOPE    HB19983   4.605   5.463  10.499 -0.0139  0.3505 -0.6637
  176SOPE    C219984   4.788   5.446  10.380 -0.0420  0.2534 -0.1249
  176SOPE    HS19985   4.841   5.424  10.475 -2.1007  1.3021  1.3355
  176SOPE   O2119986   4.865   5.518  10.286  0.3869  0.2030 -0.1291
  176SOPE   C2119987   4.998   5.515  10.288  0.1871 -0.2387  0.1449
  176SOPE   O2219988   5.068   5.457  10.368 -0.6216  0.2381  0.0198
  176SOPE   C2219989   5.044   5.565  10.158 -0.5737 -0.2103 -0.6622
  176SOPE   H2R19990   5.112   5.650  10.181  0.0908 -0.6609 -0.9258
  176SOPE   H2S19991   4.962   5.602  10.094  1.5607 -0.0352 -3.5042
  176SOPE    C319992   4.737   5.313  10.325 -0.0785 -0.2148  0.8883
  176SOPE    HX19993   4.697   5.259  10.414 -0.8416  0.0684  0.7275
  176SOPE    HY19994   4.827   5.267  10.281  1.1450  2.2290  0.6551
  176SOPE   O3119995   4.640   5.330  10.219  0.0874 -0.2742 -0.2502
  176SOPE   C3119996   4.620   5.230  10.137 -0.5008 -0.3140  0.3615
  176SOPE   O3219997   4.673   5.118  10.145  0.1343 -0.2590 -0.0968
  176SOPE   C3219998   4.518   5.279  10.035  0.3471 -0.6049 -0.5124
  176SOPE   H2X19999   4.489   5.382  10.065  0.3468 -0.3251 -1.4204
  176SOPE   H2Y20000   4.422   5.230  10.061 -0.9391 -0.1448 -3.8712
  176SOPE   C2320001   5.119   5.450  10.081 -0.0557 -0.5887 -0.1250
  176SOPE   H3R20002   5.216   5.420  10.125 -0.7686 -0.0352  1.9512
  176SOPE   H3S20003   5.145   5.503   9.986  1.5351  0.1203  0.6667
  176SOPE   C2420004   5.041   5.331  10.044 -0.2780  0.3320  0.0402
  176SOPE   H4R20005   5.041   5.252  10.121  0.8248  0.9430  0.6904
  176SOPE   H4S20006   4.937   5.358  10.015 -0.6282  1.1637  1.9789
  176SOPE   C2520007   5.107   5.259   9.923  0.0431 -0.3758 -0.4667
  176SOPE   H5R20008   5.096   5.330   9.838 -0.3919  0.2742  0.1265
  176SOPE   H5S20009   5.210   5.228   9.953 -0.2600  0.1861  1.2462
  176SOPE   C2620010   5.020   5.130   9.876  0.4886 -0.0189 -0.1489
  176SOPE   H6R20011   4.994   5.061   9.960 -1.8900 -0.2904 -1.0190
  176SOPE   H6S20012   4.917   5.152   9.840  1.2576 -1.0623 -3.2459
  176SOPE   C2720013   5.090   5.059   9.764  0.3276 -0.6608  0.2557
  176SOPE   H7R20014   5.099   5.130   9.679  1.7609  0.2974  1.1658
  176SOPE   H7S20015   5.190   5.029   9.801  0.8668  0.4732 -0.2254
  176SOPE   C2820016   5.031   4.926   9.719  0.5050  0.6370 -0.3465
  176SOPE   H8R20017   5.107   4.869   9.662  1.5055  1.1510  0.4406
  176SOPE   H8S20018   5.001   4.867   9.809 -0.2137 -0.1206 -1.0569
  176SOPE   C2920019   4.906   4.948   9.643 -0.1523 -0.0580  0.1171
  176SOPE   H9120020   4.866   5.050   9.652 -2.2764 -0.4576 -3.1153
  176SOPE  C21020021   4.861   4.880   9.540 -0.0203 -0.4711 -0.6840
  176SOPE  H10120022   4.766   4.907   9.492 -0.4035  0.2462  0.4533
  176SOPE  C21120023   4.924   4.746   9.491  0.0258 -1.0271  0.8662
  176SOPE  H11R20024   4.841   4.676   9.470 -0.1064 -0.1859 -1.8634
  176SOPE  H11S20025   4.992   4.695   9.562  0.6177 -1.0800  0.2783
  176SOPE  C21220026   5.005   4.760   9.357  0.2635  0.1043 -0.0349
  176SOPE  H12R20027   5.056   4.662   9.343  1.8848  0.5854  2.0489
  176SOPE  H12S20028   5.091   4.827   9.376 -1.7787  2.7724  0.3796
  176SOPE  C21320029   4.928   4.805   9.232 -0.0948 -0.2129  0.3193
  176SOPE  H13R20030   4.865   4.892   9.259  1.9921  0.8790  2.0389
  176SOPE  H13S20031   4.863   4.720   9.205  0.0290  0.3524 -2.0006
  176SOPE  C21420032   5.013   4.842   9.112 -0.2456  0.0606  0.0563
  176SOPE  H14R20033   5.085   4.759   9.093  0.0677  0.0333  1.2754
  176SOPE  H14S20034   5.067   4.926   9.160  0.5278 -1.1297  1.3485
  176SOPE  C21520035   4.941   4.883   8.985  0.4416 -0.0429  0.2488
  176SOPE  H15R20036   4.870   4.964   9.013 -0.0134 -0.0695 -0.7630
  176SOPE  H15S20037   4.875   4.801   8.950 -0.7332  0.8602  0.2959
  176SOPE  C21620038   5.031   4.929   8.865  0.7859  0.0047 -0.0474
  176SOPE  H16R20039   4.959   4.919   8.781  1.1486  0.3133 -0.3981
  176SOPE  H16S20040   5.097   4.840   8.856 -0.8123 -1.2229 -0.1048
  176SOPE  C21720041   5.099   5.065   8.882  0.1215  0.2395 -0.1489
  176SOPE  H17R20042   5.120   5.080   8.990 -1.1322  2.9255 -0.1854
  176SOPE  H17S20043   5.024   5.143   8.856  1.7499  2.2312  0.7909
  176SOPE  C21820044   5.217   5.094   8.800  0.7064  0.3489  0.6029
  176SOPE  H18R20045   5.195   5.071   8.693 -1.4580 -1.1972  1.2980
  176SOPE  H18S20046   5.302   5.027   8.823 -0.7065 -1.1515  1.6549
  176SOPE  H18T20047   5.251   5.200   8.801 -1.4725  1.1074  0.5428
  176SOPE   C3320048   4.544   5.283   9.889 -0.2008 -0.6066  0.0983
  176SOPE   H3X20049   4.464   5.337   9.834  0.9596 -0.4181 -1.4439
  176SOPE   H3Y20050   4.552   5.182   9.845 -1.2594 -1.4911  1.8127
  176SOPE   C3420051   4.683   5.347   9.863 -0.4448  0.2800  0.9800
  176SOPE   H4X20052   4.769   5.297   9.912  0.4538  0.5963 -0.2441
  176SOPE   H4Y20053   4.685   5.449   9.906  1.8773  1.0397 -0.7771
  176SOPE   C3520054   4.722   5.352   9.714  0.0461  0.3398 -0.7931
  176SOPE   H5X20055   4.636   5.395   9.659 -0.0159  1.4449  0.1181
  176SOPE   H5Y20056   4.740   5.250   9.674 -0.3954 -0.9557  2.0216
  176SOPE   C3620057   4.840   5.439   9.693 -0.1720 -1.1721  1.0229
  176SOPE   H6X20058   4.893   5.451   9.790  0.9835  0.8490  0.2156
  176SOPE   H6Y20059   4.801   5.543   9.681 -1.2892 -1.7532 -0.6951
  176SOPE   C3720060   4.921   5.399   9.570 -0.0519 -0.0840  0.0649
  176SOPE   H7X20061   4.949   5.292   9.576 -0.8133 -0.4018 -1.4540
  176SOPE   H7Y20062   5.009   5.467   9.573 -0.1017 -0.0108 -0.1195
  176SOPE   C3820063   4.845   5.407   9.439  0.0553 -0.6114 -0.0098
  176SOPE   H8X20064   4.803   5.510   9.437  0.8391 -0.2824 -0.0295
  176SOPE   H8Y20065   4.759   5.338   9.446 -1.2586  1.1582  3.0407
  176SOPE   C3920066   4.921   5.380   9.313 -1.4741  0.5846  0.1409
  176SOPE   H9X20067   4.997   5.299   9.311 -1.3330  0.7215 -1.1195
  176SOPE   H9Y20068   4.975   5.475   9.294  4.0867 -1.5390  3.0819
  176SOPE  C31020069   4.833   5.347   9.186  0.1209 -0.2299 -0.3123
  176SOPE  H10X20070   4.757   5.428   9.188 -0.1845 -0.5199  1.3700
  176SOPE  H10Y20071   4.776   5.255   9.209  0.3014  0.0546  1.4220
  176SOPE  C31120072   4.916   5.339   9.059  0.7500  0.2463  0.4927
  176SOPE  H11X20073   4.853   5.286   8.984  0.8459  0.0785  0.5325
  176SOPE  H11Y20074   5.011   5.283   9.069 -0.6958 -2.6711 -1.0340
  176SOPE  C31220075   4.927   5.484   9.001  0.4552 -0.5251 -0.3954
  176SOPE  H12X20076   4.998   5.540   9.065  0.3844 -1.3679  0.4531
  176SOPE  H12Y20077   4.839   5.552   8.997 -0.3203 -1.3445  1.4510
  176SOPE  C31320078   4.999   5.483   8.862  0.3413  0.2598 -0.5888
  176SOPE  H13X20079   4.930   5.444   8.785 -0.0530  0.0594 -0.1380
  176SOPE  H13Y20080   5.081   5.410   8.881 -0.7676 -0.5540  1.4261
  176SOPE  C31420081   5.063   5.613   8.815  0.6484  0.0571 -0.2775
  176SOPE  H14X20082   5.126   5.594   8.726  0.3622 -3.1645  0.0952
  176SOPE  H14Y20083   5.121   5.662   8.897 -0.9462  1.5671  0.0116
  176SOPE  C31520084   4.951   5.704   8.763  0.4546  0.1228 -0.0846
  176SOPE  H15X20085   4.878   5.725   8.844 -1.8347  0.9023 -2.2128
  176SOPE  H15Y20086   4.893   5.634   8.699 -0.7273 -1.0676  2.1329
  176SOPE  C31620087   5.004   5.827   8.693  0.0609 -0.1623 -0.0538
  176SOPE  H16X20088   5.081   5.791   8.621 -1.3016 -1.7349 -0.7854
  176SOPE  H16Y20089   5.044   5.897   8.770 -1.1049  0.4622  0.0009
  176SOPE  C31720090   4.892   5.909   8.616  0.2622  0.2216 -0.1019
  176SOPE  H17X20091   4.927   6.014   8.606 -0.6722  0.4876 -0.6761
  176SOPE  H17Y20092   4.805   5.908   8.685  0.5257 -0.2830  0.2324
  176SOPE  C31820093   4.863   5.839   8.488 -0.0453 -0.6035 -0.3062
  176SOPE  H18X20094   4.951   5.847   8.420  0.2280 -0.8700  0.0134
  176SOPE  H18Y20095   4.775   5.880   8.433 -0.6476  0.2661  1.2579
  176SOPE  H18Z20096   4.854   5.728   8.494 -0.6444 -0.4529  3.1052
  177SOPE     N20097   4.012   6.071  10.751 -0.0135  0.2964  0.0192
  177SOPE   HN120098   3.912   6.077  10.726  0.6352  1.1364 -2.6708
  177SOPE   HN220099   4.045   6.164  10.785  0.2951  0.4340 -0.6441
  177SOPE   HN320100   4.061   6.052  10.661 -2.3025  0.4614 -1.3372
  177SOPE   C1220101   4.040   5.968  10.860  0.3653  0.6909  0.3257
  177SOPE  H12A20102   4.046   5.874  10.802 -1.7147  0.0699  1.0602
  177SOPE  H12B20103   3.951   5.956  10.925  0.7049 -0.7697  0.5420
  177SOPE   C1120104   4.175   5.987  10.942  0.2013 -0.0120  0.2044
  177SOPE  H11A20105   4.200   5.893  10.995  1.4284  1.2036  1.8938
  177SOPE  H11B20106   4.153   6.069  11.013  0.5356  0.7608 -0.5679
  177SOPE     P20107   4.427   6.037  10.906 -0.2695  0.1505  0.2342
  177SOPE   O1320108   4.477   5.908  10.953 -0.2333 -0.4095  0.1336
  177SOPE   O1420109   4.431   6.143  11.007 -0.1851  0.1985  0.4413
  177SOPE   O1220110   4.273   6.029  10.854  0.1206  0.5813 -0.2186
  177SOPE   O1120111   4.512   6.079  10.779  0.8020  0.1716 -0.3779
  177SOPE    C120112   4.465   6.167  10.675 -0.1670 -0.2124  0.3785
  177SOPE    HA20113   4.554   6.218  10.632  0.6162 -0.4508  1.6731
  177SOPE    HB20114   4.398   6.242  10.720  2.9101  2.8622  0.2529
  177SOPE    C220115   4.379   6.085  10.568 -0.5419  0.2022  0.2206
  177SOPE    HS20116   4.319   6.012  10.627  0.9922  0.8537  2.7374
  177SOPE   O2120117   4.475   6.019  10.481 -0.3513 -0.0182 -0.6990
  177SOPE   C2120118   4.438   5.912  10.421  0.5406  0.0330  0.7024
  177SOPE   O2220119   4.328   5.854  10.436 -0.1345  0.2954 -0.9243
  177SOPE   C2220120   4.555   5.849  10.335  0.3357  0.2529 -0.5039
  177SOPE   H2R20121   4.521   5.744  10.344  0.9598  0.1170  0.3288
  177SOPE   H2S20122   4.654   5.856  10.384 -0.4635 -0.9618  1.4070
  177SOPE    C320123   4.290   6.182  10.480 -0.3492 -0.2251  0.2964
  177SOPE    HX20124   4.345   6.276  10.459  0.1883 -0.6843 -0.4508
  177SOPE    HY20125   4.208   6.207  10.550  0.2889 -2.1536  1.8466
  177SOPE   O3120126   4.246   6.131  10.347 -0.3035 -0.1758  0.5177
  177SOPE   C3120127   4.133   6.065  10.367 -0.4460  0.7985  0.8565
  177SOPE   O3220128   4.075   6.045  10.473 -0.1330 -0.5269  0.2618
  177SOPE   C3220129   4.086   6.002  10.233 -0.0305  0.4388 -0.0403
  177SOPE   H2X20130   4.174   5.951  10.189 -1.2893 -1.9718  0.0622
  177SOPE   H2Y20131   4.033   6.082  10.175  0.6563  0.5770 -0.4946
  177SOPE   C2320132   4.578   5.904  10.194 -0.3066 -0.5165 -0.0836
  177SOPE   H3R20133   4.674   5.860  10.158 -0.4064 -1.1528  0.3981
  177SOPE   H3S20134   4.603   6.012  10.201 -2.4586 -0.0659  2.4048
  177SOPE   C2420135   4.476   5.859  10.097 -0.0901 -0.1957 -0.1482
  177SOPE   H4R20136   4.373   5.869  10.137  1.0621 -1.3887  3.5303
  177SOPE   H4S20137   4.485   5.921  10.005 -0.0058  0.0949  0.0524
  177SOPE   C2520138   4.499   5.706  10.065 -0.1084 -0.0029  0.2037
  177SOPE   H5R20139   4.606   5.694  10.037  0.2726 -1.6513  2.1714
  177SOPE   H5S20140   4.495   5.640  10.154 -1.1159  0.5356  0.5863
  177SOPE   C2620141   4.399   5.669   9.949  0.9975 -0.2997 -0.5135
  177SOPE   H6R20142   4.368   5.564   9.961 -1.2549  0.5260  2.0162
  177SOPE   H6S20143   4.304   5.728   9.949  0.5151 -1.0072  1.4079
  177SOPE   C2720144   4.455   5.697   9.813 -0.2365  0.0213  0.1437
  177SOPE   H7R20145   4.503   5.797   9.819  0.5679 -0.2901 -0.8553
  177SOPE   H7S20146   4.534   5.622   9.791 -0.8127 -0.6795  0.4212
  177SOPE   C2820147   4.362   5.701   9.690  0.0462 -0.2107  0.0213
  177SOPE   H8R20148   4.284   5.780   9.691 -0.1306 -0.3342 -1.5643
  177SOPE   H8S20149   4.431   5.730   9.608 -0.8499  0.4744 -0.5070
  177SOPE   C2920150   4.316   5.553   9.678 -0.7395 -0.2691 -0.7336
  177SOPE   H9120151   4.255   5.514   9.761 -1.5862 -0.6105 -1.5003
  177SOPE  C21020152   4.350   5.472   9.582  0.1503 -0.6654  0.1614
  177SOPE  H10120153   4.305   5.372   9.587 -2.2321  0.3383  0.1361
  177SOPE  C21120154   4.434   5.497   9.464 -0.7991  0.1244 -0.8645
  177SOPE  H11R20155   4.526   5.435   9.458 -0.7134  0.3248 -1.7993
  177SOPE  H11S20156   4.477   5.600   9.465  0.9082 -0.5642 -0.2783
  177SOPE  C21220157   4.374   5.469   9.331  0.9606  0.7069  0.0849
  177SOPE  H12R20158   4.273   5.513   9.311  0.7196 -0.2021 -0.8010
  177SOPE  H12S20159   4.359   5.359   9.326 -0.8188  0.9677 -1.4913
  177SOPE  C21320160   4.464   5.515   9.226  0.2378 -0.0264 -0.3026
  177SOPE  H13R20161   4.566   5.508   9.270 -0.0259 -1.1202  0.1817
  177SOPE  H13S20162   4.435   5.620   9.209  1.0153  0.0778 -1.0393
  177SOPE  C21420163   4.448   5.435   9.101  0.1938  0.6292 -0.6282
  177SOPE  H14R20164   4.341   5.434   9.070 -0.0623 -0.8759  0.2147
  177SOPE  H14S20165   4.479   5.332   9.127  0.2348  0.4773 -1.2453
  177SOPE  C21520166   4.532   5.479   8.983 -0.3765 -0.1737 -0.3165
  177SOPE  H15R20167   4.636   5.445   9.005 -0.7264 -0.2403  1.4132
  177SOPE  H15S20168   4.526   5.588   8.967 -1.2234 -0.5285 -2.8722
  177SOPE  C21620169   4.498   5.404   8.861 -0.0020 -0.2063  0.0079
  177SOPE  H16R20170   4.399   5.423   8.814  1.5602  1.0933 -2.9714
  177SOPE  H16S20171   4.491   5.295   8.880  1.7219 -0.0265  2.0616
  177SOPE  C21720172   4.604   5.410   8.750 -0.3420  0.7497  0.2267
  177SOPE  H17R20173   4.582   5.338   8.668  2.3274 -1.3126  1.2031
  177SOPE  H17S20174   4.700   5.375   8.794 -0.3068 -1.9371 -1.7070
  177SOPE  C21820175   4.614   5.553   8.694  0.4167  0.3034 -0.3190
  177SOPE  H18R20176   4.632   5.621   8.781  3.5798 -2.1067  1.1095
  177SOPE  H18S20177   4.520   5.591   8.648 -0.0911 -1.5944 -0.9244
  177SOPE  H18T20178   4.696   5.555   8.618  1.1413  0.8766  0.4483
  177SOPE   C3320179   3.998   5.885  10.248 -0.4654  1.1089  0.0701
  177SOPE   H3X20180   3.890   5.901  10.269 -0.7295 -0.7940  0.4161
  177SOPE   H3Y20181   4.034   5.825  10.335  0.8110  0.0020 -1.1761
  177SOPE   C3420182   4.010   5.789  10.124 -0.2152 -0.5774 -0.0037
  177SOPE   H4X20183   3.930   5.713  10.137  1.0126 -1.7076  1.2871
  177SOPE   H4Y20184   4.103   5.730  10.131 -0.2002 -0.3816  2.2618
  177SOPE   C3520185   3.983   5.850   9.982  0.0877  0.3197  0.8007
  177SOPE   H5X20186   4.064   5.918   9.947 -1.2828  0.4732 -2.3877
  177SOPE   H5Y20187   3.887   5.905   9.990 -0.6632 -0.7143 -0.6780
  177SOPE   C3620188   3.983   5.741   9.871  1.1645 -0.1024 -0.5893
  177SOPE   H6X20189   3.900   5.671   9.894  0.0787  0.4700 -2.5433
  177SOPE   H6Y20190   4.086   5.700   9.882  1.7301  1.7547  2.2446
  177SOPE   C3720191   3.961   5.804   9.740 -0.4332 -0.0287  0.0658
  177SOPE   H7X20192   4.026   5.893   9.723 -1.8132  1.3259  1.5084
  177SOPE   H7Y20193   3.861   5.855   9.742 -0.3510  0.3920 -2.5405
  177SOPE   C3820194   3.972   5.711   9.617  0.3362  0.4415  0.2961
  177SOPE   H8X20195   3.893   5.632   9.617 -1.0487  1.7668 -1.0250
  177SOPE   H8Y20196   4.066   5.653   9.634 -0.3756 -0.7623  0.2741
  177SOPE   C3920197   3.994   5.779   9.483 -0.2888  0.5415  0.1058
  177SOPE   H9X20198   4.077   5.853   9.479 -0.1761  0.7294  3.3754
  177SOPE   H9Y20199   3.913   5.854   9.468 -1.6909 -0.8603  0.4018
  177SOPE  C31020200   3.992   5.694   9.359 -0.0193 -0.1528 -0.8900
  177SOPE  H10X20201   3.902   5.628   9.359 -1.1404  1.3136  0.1811
  177SOPE  H10Y20202   4.075   5.620   9.364 -2.9749 -3.6894  0.8173
  177SOPE  C31120203   4.000   5.786   9.237  0.1957 -0.2656  0.9795
  177SOPE  H11X20204   4.073   5.866   9.261 -1.0782  1.1454  0.2918
  177SOPE  H11Y20205   3.899   5.827   9.214 -0.0155 -2.4740 -2.8486
  177SOPE  C31220206   4.063   5.708   9.120 -0.0801  0.4316  0.3861
  177SOPE  H12X20207   4.006   5.616   9.093  0.4592  0.6889 -1.7863
  177SOPE  H12Y20208   4.166   5.676   9.146  1.0913  1.4883 -2.5201
  177SOPE  C31320209   4.084   5.792   8.991  0.1696 -0.2396 -0.6275
  177SOPE  H13X20210   4.169   5.861   9.008 -0.9539  1.0920 -0.1588
  177SOPE  H13Y20211   4.000   5.865   8.982  0.0729  0.1291  2.3230
  177SOPE  C31420212   4.096   5.705   8.864 -0.5917 -0.1403 -0.1524
  177SOPE  H14X20213   3.998   5.653   8.859 -1.9074  2.2147 -0.2167
  177SOPE  H14Y20214   4.186   5.643   8.879  2.0495  3.5333  0.5260
  177SOPE  C31520215   4.105   5.783   8.735  0.2684 -0.0632 -0.0829
  177SOPE  H15X20216   4.119   5.714   8.649  1.0288  0.1427 -0.1328
  177SOPE  H15Y20217   4.204   5.834   8.741  0.8617 -1.0879 -0.7504
  177SOPE  C31620218   4.004   5.887   8.712  0.3147  0.2962 -0.3476
  177SOPE  H16X20219   4.005   5.960   8.796  1.4216  0.7010 -0.6933
  177SOPE  H16Y20220   3.902   5.845   8.704 -0.6601  2.3459  0.5535
  177SOPE  C31720221   4.023   5.971   8.584  0.2216 -0.3364 -0.9471
  177SOPE  H17X20222   4.119   6.028   8.585  0.6199 -0.8906  1.6717
  177SOPE  H17Y20223   3.935   6.037   8.594 -1.2708 -2.4551  0.9177
  177SOPE  C31820224   3.994   5.906   8.447 -0.5020 -0.3011  0.3863
  177SOPE  H18X20225   4.005   5.986   8.370  3.0222  0.3132  1.3429
  177SOPE  H18Y20226   3.890   5.869   8.454  0.3666 -2.5518  3.1649
  177SOPE  H18Z20227   4.068   5.828   8.420 -1.8035 -0.8360 -1.8947
  178SOPE     N20228   1.697   2.388  10.750 -0.0361  0.5029  0.5582
  178SOPE   HN120229   1.756   2.470  10.725 -1.2837  1.7548  1.5491
  178SOPE   HN220230   1.668   2.422  10.844  2.6437 -1.4317  2.1920
  178SOPE   HN320231   1.738   2.293  10.757 -0.2963 -0.0551 -3.2486
  178SOPE   C1220232   1.586   2.385  10.654 -0.6196 -0.1223  0.0785
  178SOPE  H12A20233   1.495   2.342  10.701  0.1208 -2.7253 -0.6711
  178SOPE  H12B20234   1.612   2.330  10.560  0.0986 -0.1042  0.2624
  178SOPE   C1120235   1.560   2.527  10.618 -0.8079  0.3439 -0.1803
  178SOPE  H11A20236   1.485   2.527  10.535  1.0354 -1.3593 -1.9441
  178SOPE  H11B20237   1.649   2.564  10.563  0.0181 -1.4668 -0.1494
  178SOPE     P20238   1.601   2.724  10.788 -0.1591 -0.0061  0.1363
  178SOPE   O1320239   1.738   2.680  10.825  0.8028  0.0440  0.2584
  178SOPE   O1420240   1.523   2.800  10.889 -0.0977  0.3897 -0.3405
  178SOPE   O1220241   1.516   2.596  10.734 -0.2801  0.4959 -0.3883
  178SOPE   O1120242   1.628   2.807  10.655  0.4496  0.0503  0.0400
  178SOPE    C120243   1.516   2.891  10.613  0.1182  0.1374 -0.0289
  178SOPE    HA20244   1.515   2.978  10.681  0.1417 -0.1918  0.3980
  178SOPE    HB20245   1.421   2.836  10.629  0.8263 -1.1751 -0.1910
  178SOPE    C220246   1.524   2.939  10.469  0.0949  0.5045  0.3483
  178SOPE    HS20247   1.435   3.002  10.445 -1.2572 -0.9223  1.4569
  178SOPE   O2120248   1.533   2.827  10.373 -0.0400 -0.4098 -0.2406
  178SOPE   C2120249   1.425   2.763  10.345  0.2962 -0.2713  0.3992
  178SOPE   O2220250   1.313   2.778  10.390 -0.0547 -0.0529 -0.0834
  178SOPE   C2220251   1.460   2.676  10.226 -1.3194  0.2782  0.5552
  178SOPE   H2R20252   1.527   2.592  10.255 -2.2477 -0.8330 -0.4140
  178SOPE   H2S20253   1.522   2.738  10.157 -1.1865 -0.5328 -0.0720
  178SOPE    C320254   1.643   3.037  10.445 -0.1563  0.5358 -0.2247
  178SOPE    HX20255   1.736   2.989  10.482  1.6084  2.4898 -1.8561
  178SOPE    HY20256   1.624   3.128  10.506 -3.0084  0.3388 -0.6976
  178SOPE   O3120257   1.662   3.069  10.305  0.1975  0.1391  0.2698
  178SOPE   C3120258   1.610   3.176  10.249 -0.3690  0.7079 -0.2809
  178SOPE   O3220259   1.562   3.273  10.306 -0.1088  0.0645 -0.0184
  178SOPE   C3220260   1.631   3.170  10.097  0.0882  0.3541 -0.0015
  178SOPE   H2X20261   1.561   3.095  10.053  1.2765 -0.9659  0.2855
  178SOPE   H2Y20262   1.735   3.134  10.077 -0.4273 -0.3262 -1.6259
  178SOPE   C2320263   1.343   2.632  10.136 -0.0494  0.8076 -0.0228
  178SOPE   H3R20264   1.258   2.589  10.193  1.0909 -2.6887 -0.7427
  178SOPE   H3S20265   1.391   2.561  10.065 -1.0788 -0.0090  0.0821
  178SOPE   C2420266   1.282   2.743  10.051 -0.1774 -0.4096  0.1518
  178SOPE   H4R20267   1.215   2.793  10.124  0.3207 -1.1357  1.1393
  178SOPE   H4S20268   1.362   2.808  10.010  0.2668  0.6395  2.4885
  178SOPE   C2520269   1.201   2.698   9.934 -0.3705  0.2831  0.0127
  178SOPE   H5R20270   1.134   2.615   9.964  1.5962 -1.1925  0.5585
  178SOPE   H5S20271   1.129   2.778   9.905 -0.9846 -0.2817 -0.0333
  178SOPE   C2620272   1.275   2.638   9.819  0.9021 -0.0639  0.1060
  178SOPE   H6R20273   1.335   2.716   9.768  1.0185  0.4930  1.0716
  178SOPE   H6S20274   1.342   2.556   9.852  0.6435 -0.3095  0.0250
  178SOPE   C2720275   1.178   2.583   9.713 -0.4317  0.4417  0.0796
  178SOPE   H7R20276   1.095   2.523   9.756  0.5012 -1.6483 -0.8875
  178SOPE   H7S20277   1.127   2.672   9.670 -2.9387 -0.0567  1.8286
  178SOPE   C2820278   1.255   2.498   9.604 -0.0994  0.3436  0.0740
  178SOPE   H8R20279   1.310   2.423   9.665 -0.9656  0.0889  0.5690
  178SOPE   H8S20280   1.181   2.453   9.533 -0.6617  1.5570 -0.1309
  178SOPE   C2920281   1.356   2.578   9.521  0.7937 -0.0435  0.1848
  178SOPE   H9120282   1.463   2.577   9.549  1.9174  0.4137 -3.5081
  178SOPE  C21020283   1.320   2.657   9.421 -0.0273 -0.3736 -0.4381
  178SOPE  H10120284   1.393   2.722   9.369 -0.1570  0.2143  0.0964
  178SOPE  C21120285   1.185   2.691   9.364  0.5281  0.1927 -0.3122
  178SOPE  H11R20286   1.181   2.788   9.309  0.0185  0.1113 -0.4219
  178SOPE  H11S20287   1.105   2.692   9.441  0.2098 -2.9780 -0.4852
  178SOPE  C21220288   1.125   2.583   9.263  0.8417 -0.1048  0.3292
  178SOPE  H12R20289   1.128   2.482   9.308 -1.0457  0.6156  2.2584
  178SOPE  H12S20290   1.167   2.593   9.160 -3.2321  2.6853 -1.3097
  178SOPE  C21320291   0.975   2.608   9.246  0.4374 -0.8784  0.9499
  178SOPE  H13R20292   0.944   2.703   9.198 -1.8343 -0.6304  2.8023
  178SOPE  H13S20293   0.939   2.626   9.349 -0.2631  0.9958  0.4173
  178SOPE  C21420294   0.902   2.494   9.174  0.0943  0.5857  0.1532
  178SOPE  H14R20295   0.959   2.442   9.095 -1.7804  0.0549 -0.9141
  178SOPE  H14S20296   0.808   2.547   9.146  0.1689  1.4712  1.4717
  178SOPE  C21520297   0.854   2.383   9.267 -0.5557 -0.2328 -0.5622
  178SOPE  H15R20298   0.804   2.436   9.351  1.2928  0.3059  0.2493
  178SOPE  H15S20299   0.941   2.330   9.312  0.5719  1.5615 -0.5309
  178SOPE  C21620300   0.748   2.285   9.202 -0.8216 -0.0168 -0.7793
  178SOPE  H16R20301   0.676   2.341   9.138 -0.8030 -0.6290 -1.3520
  178SOPE  H16S20302   0.689   2.240   9.286 -1.3208  1.6688 -0.1931
  178SOPE  C21720303   0.806   2.175   9.110  1.2667  0.5614 -0.2310
  178SOPE  H17R20304   0.904   2.203   9.066  1.7707  0.6628  0.9231
  178SOPE  H17S20305   0.726   2.159   9.034 -0.4924 -1.4824  1.9282
  178SOPE  C21820306   0.815   2.032   9.176 -0.3072 -0.1312 -0.3890
  178SOPE  H18R20307   0.888   2.038   9.259  0.5292 -1.3255 -0.9990
  178SOPE  H18S20308   0.864   1.964   9.102 -0.8010 -2.6096  1.4145
  178SOPE  H18T20309   0.714   2.007   9.214  0.2045  1.1822  1.9813
  178SOPE   C3320310   1.598   3.301  10.036 -0.5903 -0.2345 -0.5965
  178SOPE   H3X20311   1.661   3.378  10.086  0.8402 -1.5953 -0.1768
  178SOPE   H3Y20312   1.491   3.329  10.044 -0.2725  1.3557 -1.6189
  178SOPE   C3420313   1.641   3.306   9.891 -0.3495 -0.2839  0.4593
  178SOPE   H4X20314   1.741   3.263   9.870  0.3090  1.3343  0.1218
  178SOPE   H4Y20315   1.647   3.411   9.855 -0.3843  0.0460  1.3791
  178SOPE   C3520316   1.548   3.236   9.792 -0.2518 -0.0206  0.5743
  178SOPE   H5X20317   1.443   3.273   9.797 -0.8252 -1.6050  0.9657
  178SOPE   H5Y20318   1.528   3.130   9.820 -3.1599  0.4046  0.5042
  178SOPE   C3620319   1.602   3.223   9.648 -0.1011  0.0202 -0.2499
  178SOPE   H6X20320   1.705   3.183   9.635 -0.4589 -0.1230 -3.4979
  178SOPE   H6Y20321   1.598   3.319   9.591  1.7344 -0.0712 -0.6228
  178SOPE   C3720322   1.518   3.122   9.564  0.4264  0.5094  0.2225
  178SOPE   H7X20323   1.409   3.132   9.582  0.0684  0.6709 -1.7889
  178SOPE   H7Y20324   1.545   3.019   9.596 -0.1745 -0.4633 -2.2306
  178SOPE   C3820325   1.544   3.135   9.413  0.2793  0.3805  0.0736
  178SOPE   H8X20326   1.651   3.109   9.395  0.0730 -0.7873  0.5009
  178SOPE   H8Y20327   1.522   3.240   9.383 -0.2505  0.4141  0.5646
  178SOPE   C3920328   1.466   3.033   9.328  0.2711 -0.3531  0.7253
  178SOPE   H9X20329   1.362   3.070   9.324  0.3195 -0.3250 -1.3267
  178SOPE   H9Y20330   1.468   2.934   9.378  0.4675  0.8290  3.2240
  178SOPE  C31020331   1.508   3.021   9.181  0.3540  0.2174 -0.1162
  178SOPE  H10X20332   1.598   2.959   9.159 -1.0756 -1.1255 -2.6880
  178SOPE  H10Y20333   1.517   3.120   9.133  0.4665  0.9125  1.2694
  178SOPE  C31120334   1.397   2.956   9.100 -0.2824  0.5734  0.7108
  178SOPE  H11X20335   1.298   3.007   9.105 -1.8177 -1.7278 -2.4198
  178SOPE  H11Y20336   1.376   2.852   9.133 -0.9394  0.4009 -0.2099
  178SOPE  C31220337   1.428   2.938   8.948  0.6439 -0.3595 -0.3599
  178SOPE  H12X20338   1.538   2.924   8.938  0.6278 -0.6752 -0.1137
  178SOPE  H12Y20339   1.399   3.029   8.892 -2.5246 -1.6662 -1.0134
  178SOPE  C31320340   1.344   2.823   8.890 -0.7088 -0.3253  0.2005
  178SOPE  H13X20341   1.384   2.727   8.928  1.3492  0.2168 -0.4621
  178SOPE  H13Y20342   1.362   2.833   8.781  1.7222 -0.8452  0.4999
  178SOPE  C31420343   1.193   2.840   8.919  0.1181 -0.0123 -0.4152
  178SOPE  H14X20344   1.171   2.949   8.924 -1.4295 -0.3706  2.2468
  178SOPE  H14Y20345   1.170   2.797   9.019 -0.3092 -2.1778 -1.3916
  178SOPE  C31520346   1.099   2.780   8.827 -1.0718  0.5649  0.3160
  178SOPE  H15X20347   1.128   2.674   8.814  1.0804  0.9790  1.4428
  178SOPE  H15Y20348   1.102   2.827   8.726  1.8252  2.4476  1.1639
  178SOPE  C31620349   0.950   2.786   8.871 -0.6278  0.1593 -0.2230
  178SOPE  H16X20350   0.917   2.891   8.880  2.4169  1.2179 -0.0792
  178SOPE  H16Y20351   0.935   2.749   8.974 -0.6101  0.3889 -0.1388
  178SOPE  C31720352   0.874   2.702   8.766  0.2490 -0.1473  0.4868
  178SOPE  H17X20353   0.927   2.607   8.743 -1.3953 -0.4763 -2.3479
  178SOPE  H17Y20354   0.866   2.748   8.665 -1.4567  1.5323  1.3135
  178SOPE  C31820355   0.732   2.660   8.820  0.1086 -0.0659  0.2273
  178SOPE  H18X20356   0.737   2.609   8.919  0.5194 -0.2652  0.1064
  178SOPE  H18Y20357   0.675   2.593   8.751 -0.5845 -0.8079  1.4820
  178SOPE  H18Z20358   0.669   2.750   8.832  1.2185  0.3318  4.4960
  179SOPE     N20359   2.297   3.790   6.370 -0.2195  0.2495  0.6469
  179SOPE   HN120360   2.228   3.867   6.366 -1.0465 -0.5120 -0.1254
  179SOPE   HN220361   2.393   3.825   6.349 -0.6030  2.1380  1.7487
  179SOPE   HN320362   2.266   3.725   6.295 -0.0388 -0.4593  1.1845
  179SOPE   C1220363   2.317   3.720   6.502  0.4801 -1.1300 -0.0035
  179SOPE  H12A20364   2.356   3.799   6.570 -1.7179 -1.0564  1.2547
  179SOPE  H12B20365   2.380   3.630   6.487  0.6389 -1.2564  1.3385
  179SOPE   C1120366   2.188   3.666   6.563  0.7541 -0.0453 -0.0217
  179SOPE  H11A20367   2.114   3.743   6.593 -0.4123 -0.5306 -1.5402
  179SOPE  H11B20368   2.228   3.618   6.655  0.8809 -2.0539 -1.0708
  179SOPE     P20369   1.993   3.560   6.404  0.0517  0.3060  0.1361
  179SOPE   O1320370   1.970   3.418   6.364 -0.1248 -0.2943  0.6948
  179SOPE   O1420371   1.988   3.664   6.299 -0.3524  0.0010 -0.0854
  179SOPE   O1220372   2.135   3.567   6.476  0.1423 -0.7550  0.1281
  179SOPE   O1120373   1.903   3.606   6.524 -0.1500 -0.1009 -1.0579
  179SOPE    C120374   1.850   3.509   6.614  0.2736 -0.0783 -0.6949
  179SOPE    HA20375   1.926   3.428   6.626 -1.1318 -1.3835 -0.2598
  179SOPE    HB20376   1.764   3.456   6.567  1.1604 -1.9310 -0.3382
  179SOPE    C220377   1.811   3.561   6.749  0.1872  0.0123 -0.9318
  179SOPE    HS20378   1.762   3.660   6.738 -0.0920  0.0058  0.1018
  179SOPE   O2120379   1.931   3.577   6.832  0.2984 -0.4205 -0.0215
  179SOPE   C2120380   1.989   3.485   6.907 -0.8445  0.0850 -0.6232
  179SOPE   O2220381   1.975   3.365   6.893 -0.8435 -0.0309 -0.4357
  179SOPE   C2220382   2.079   3.556   6.999 -0.1008  0.0898 -0.3006
  179SOPE   H2R20383   2.006   3.620   7.053  0.6782  0.6227  0.1422
  179SOPE   H2S20384   2.150   3.627   6.951 -1.8084  0.3704 -2.6030
  179SOPE    C320385   1.693   3.484   6.828 -0.9324 -0.6455  0.4355
  179SOPE    HX20386   1.726   3.379   6.811 -1.7099 -0.8033 -0.1294
  179SOPE    HY20387   1.603   3.514   6.770 -1.0497 -0.1496  0.8697
  179SOPE   O3120388   1.693   3.520   6.970 -0.0296 -0.1483  0.0600
  179SOPE   C3120389   1.581   3.568   7.026 -0.3596 -0.3112 -0.6615
  179SOPE   O3220390   1.478   3.593   6.971  0.5403  0.3564 -0.2408
  179SOPE   C3220391   1.598   3.545   7.175  0.1252 -0.2423  0.8555
  179SOPE   H2X20392   1.699   3.578   7.208  0.9773 -0.2756 -1.5582
  179SOPE   H2Y20393   1.598   3.436   7.197  0.9266 -0.1068  1.6126
  179SOPE   C2320394   2.161   3.458   7.096  0.2936  0.0517 -0.0200
  179SOPE   H3R20395   2.255   3.508   7.127 -0.2332 -0.9575  3.6144
  179SOPE   H3S20396   2.179   3.363   7.042  0.2353 -0.1836  0.3792
  179SOPE   C2420397   2.092   3.437   7.238 -0.2153  0.4743 -0.2753
  179SOPE   H4R20398   1.986   3.405   7.226 -1.3784  1.5024  4.8973
  179SOPE   H4S20399   2.150   3.353   7.283 -1.5850 -0.8131 -0.8369
  179SOPE   C2520400   2.090   3.559   7.328  1.3013  0.0590  0.8088
  179SOPE   H5R20401   2.193   3.600   7.340  0.9550  1.2775 -0.0923
  179SOPE   H5S20402   2.029   3.637   7.278  3.5320  0.6579 -1.2083
  179SOPE   C2620403   2.045   3.528   7.472  0.5848  0.3186  0.6280
  179SOPE   H6R20404   2.117   3.466   7.530 -0.6665 -1.1479  0.6702
  179SOPE   H6S20405   2.038   3.628   7.522  0.6187 -0.0476  1.3757
  179SOPE   C2720406   1.903   3.468   7.485  0.0461 -0.4196 -0.1974
  179SOPE   H7R20407   1.840   3.498   7.399 -0.4214 -0.6034  0.0727
  179SOPE   H7S20408   1.927   3.360   7.472  1.9147 -0.1756  0.8347
  179SOPE   C2820409   1.833   3.500   7.616  0.2345 -0.7955 -0.4713
  179SOPE   H8R20410   1.731   3.458   7.608  0.0719 -0.1798 -1.9362
  179SOPE   H8S20411   1.893   3.445   7.692 -1.6773  0.1053  1.7970
  179SOPE   C2920412   1.822   3.644   7.662  0.1538 -0.2133  0.3389
  179SOPE   H9120413   1.756   3.698   7.592  1.4423 -0.2749 -0.9671
  179SOPE  C21020414   1.883   3.707   7.758  0.2637 -0.0625  1.0202
  179SOPE  H10120415   1.858   3.814   7.770  0.9712  0.3628 -0.9194
  179SOPE  C21120416   1.982   3.655   7.852 -0.5917  0.0269  0.0850
  179SOPE  H11R20417   2.026   3.738   7.911 -2.0819  1.8594 -1.2484
  179SOPE  H11S20418   2.073   3.611   7.806 -1.5326 -3.1989  1.0230
  179SOPE  C21220419   1.927   3.569   7.977 -0.5702 -0.2590 -0.0947
  179SOPE  H12R20420   2.003   3.546   8.055 -1.7054 -1.6974  0.6330
  179SOPE  H12S20421   1.902   3.473   7.927 -3.2640  1.5791 -2.6056
  179SOPE  C21320422   1.801   3.623   8.040 -0.2357 -1.3132  0.1707
  179SOPE  H13R20423   1.716   3.625   7.967 -0.9697  0.3461  1.0219
  179SOPE  H13S20424   1.822   3.723   8.083 -2.7811 -1.6135  2.3461
  179SOPE  C21420425   1.742   3.540   8.157 -0.4894  0.1577  0.0774
  179SOPE  H14R20426   1.653   3.596   8.194 -1.1710  1.0055 -2.6142
  179SOPE  H14S20427   1.823   3.545   8.232  0.4816  2.7406 -1.0339
  179SOPE  C21520428   1.727   3.394   8.125  0.6757  0.7845  0.2778
  179SOPE  H15R20429   1.820   3.352   8.081  0.0070  0.7086 -1.1372
  179SOPE  H15S20430   1.653   3.385   8.042  0.2597 -3.4392  0.8923
  179SOPE  C21620431   1.690   3.320   8.250  0.0711 -0.7373  0.2732
  179SOPE  H16R20432   1.603   3.368   8.299 -0.6421 -2.9679  1.3323
  179SOPE  H16S20433   1.775   3.315   8.321  1.4458  1.4769 -1.0856
  179SOPE  C21720434   1.635   3.177   8.224 -0.0181  0.1826 -0.3921
  179SOPE  H17R20435   1.713   3.103   8.196  1.7289  1.3672  1.0827
  179SOPE  H17S20436   1.569   3.196   8.138  0.4623  1.5673 -0.4730
  179SOPE  C21820437   1.553   3.108   8.336 -0.8172 -0.6149 -0.8384
  179SOPE  H18R20438   1.507   3.012   8.306  0.5871 -1.0692 -1.6228
  179SOPE  H18S20439   1.484   3.187   8.373  0.4160  1.4254 -2.6029
  179SOPE  H18T20440   1.623   3.085   8.419 -0.7813  0.1576 -0.6467
  179SOPE   C3320441   1.491   3.613   7.255  0.0963  0.1245  0.3181
  179SOPE   H3X20442   1.386   3.585   7.231 -0.3510  1.4868  0.6216
  179SOPE   H3Y20443   1.493   3.723   7.243  0.2447 -0.0851 -2.1385
  179SOPE   C3420444   1.513   3.586   7.404  0.0820  0.2966 -0.1393
  179SOPE   H4X20445   1.621   3.599   7.427 -0.3432  1.4012  1.3376
  179SOPE   H4Y20446   1.504   3.476   7.414 -0.1382  0.0277 -2.5753
  179SOPE   C3520447   1.415   3.662   7.500 -0.0669 -0.1297 -0.2224
  179SOPE   H5X20448   1.310   3.629   7.482 -0.4623  0.5715  0.7186
  179SOPE   H5Y20449   1.405   3.770   7.478 -3.6094 -0.0871  0.8898
  179SOPE   C3620450   1.450   3.640   7.645  0.0744 -0.3125 -0.0526
  179SOPE   H6X20451   1.393   3.712   7.707  0.8344  1.4078 -1.2846
  179SOPE   H6Y20452   1.559   3.653   7.662  0.3727 -2.6086  0.2343
  179SOPE   C3720453   1.439   3.494   7.697 -0.2805  0.4484 -0.1427
  179SOPE   H7X20454   1.507   3.426   7.642 -1.1395 -0.6773  0.1480
  179SOPE   H7Y20455   1.334   3.462   7.682  0.4667 -1.3024 -2.2042
  179SOPE   C3820456   1.475   3.474   7.843 -0.2857  0.0178 -0.2433
  179SOPE   H8X20457   1.540   3.554   7.884 -1.1992 -0.7650  2.9956
  179SOPE   H8Y20458   1.522   3.375   7.858  1.7020  1.1222  1.3311
  179SOPE   C3920459   1.351   3.472   7.937  0.4067 -0.4781 -0.1429
  179SOPE   H9X20460   1.294   3.379   7.913 -0.6514  0.2739 -0.6382
  179SOPE   H9Y20461   1.294   3.564   7.911 -0.1063 -0.3623  1.3312
  179SOPE  C31020462   1.396   3.482   8.087 -0.1614 -0.3343  0.0266
  179SOPE  H10X20463   1.463   3.570   8.094 -0.8998  0.4900 -2.3587
  179SOPE  H10Y20464   1.453   3.393   8.122  1.1201  0.0581 -0.9974
  179SOPE  C31120465   1.283   3.485   8.188  0.2053  0.1801 -0.2531
  179SOPE  H11X20466   1.237   3.384   8.190  1.0485 -0.2159  0.7562
  179SOPE  H11Y20467   1.210   3.561   8.154 -1.6709 -1.2027  0.5389
  179SOPE  C31220468   1.329   3.528   8.326 -0.1842  0.3138 -0.2754
  179SOPE  H12X20469   1.406   3.460   8.368  1.7913  0.8940 -2.7276
  179SOPE  H12Y20470   1.243   3.512   8.395  1.2871 -2.7145  1.0236
  179SOPE  C31320471   1.373   3.677   8.353 -0.4483 -0.3692  0.7783
  179SOPE  H13X20472   1.286   3.738   8.319  1.2842  2.0451  0.4277
  179SOPE  H13Y20473   1.469   3.698   8.301 -0.6385 -3.6868 -1.2093
  179SOPE  C31420474   1.399   3.715   8.501 -1.0340 -0.3260 -0.2313
  179SOPE  H14X20475   1.420   3.822   8.522  0.9037 -1.1124  2.3385
  179SOPE  H14Y20476   1.487   3.656   8.531 -0.6367 -0.5292 -1.7256
  179SOPE  C31520477   1.277   3.681   8.598 -0.0063 -0.1677  0.6387
  179SOPE  H15X20478   1.282   3.571   8.611 -0.8464 -0.1890  0.8631
  179SOPE  H15Y20479   1.179   3.711   8.555 -0.4071 -0.6764  1.1634
  179SOPE  C31620480   1.286   3.756   8.733 -0.3015  0.0048  0.1579
  179SOPE  H16X20481   1.284   3.863   8.703  3.7690  0.3946  0.7065
  179SOPE  H16Y20482   1.392   3.747   8.765  0.5181  1.2682 -1.9660
  179SOPE  C31720483   1.178   3.719   8.840  0.0807  1.2888  0.5412
  179SOPE  H17X20484   1.195   3.612   8.864 -0.3687  0.4817 -2.3957
  179SOPE  H17Y20485   1.073   3.732   8.805 -0.2784 -2.6316 -0.2708
  179SOPE  C31820486   1.198   3.801   8.965  0.0077 -0.3002 -0.0454
  179SOPE  H18X20487   1.305   3.807   8.995 -0.1145  1.7149  0.1459
  179SOPE  H18Y20488   1.136   3.772   9.052  0.2197 -2.1701 -0.4659
  179SOPE  H18Z20489   1.178   3.902   8.924 -0.9499 -0.2098  0.6252
  180SOPE     N20490   6.590   4.486   5.955 -0.8535  0.8139  0.9267
  180SOPE   HN120491   6.687   4.513   5.929 -0.2813 -2.0829 -0.3193
  180SOPE   HN220492   6.575   4.408   5.888 -2.7526  0.3435  1.8511
  180SOPE   HN320493   6.529   4.569   5.938 -0.5177  1.2478  1.7775
  180SOPE   C1220494   6.574   4.440   6.095 -0.1167 -1.0600 -0.1842
  180SOPE  H12A20495   6.481   4.382   6.113  0.9695 -3.0886 -0.7603
  180SOPE  H12B20496   6.587   4.532   6.156  0.2536 -0.5818 -0.9566
  180SOPE   C1120497   6.687   4.341   6.139  0.3623 -0.4101 -0.2868
  180SOPE  H11A20498   6.671   4.338   6.249 -1.3614 -0.0745 -0.5100
  180SOPE  H11B20499   6.781   4.389   6.103 -0.3944  0.2276 -1.4873
  180SOPE     P20500   6.616   4.087   6.174  0.3714 -0.3839 -0.2220
  180SOPE   O1320501   6.561   3.987   6.083  0.3203  0.4092  0.6228
  180SOPE   O1420502   6.528   4.141   6.280  0.0634 -0.4817  0.5100
  180SOPE   O1220503   6.673   4.205   6.080 -0.1118 -0.4710  0.2348
  180SOPE   O1120504   6.749   4.027   6.233  0.6951 -0.1679 -0.0577
  180SOPE    C120505   6.820   4.102   6.333 -0.4205 -0.0258 -0.0804
  180SOPE    HA20506   6.807   4.212   6.338  0.2454  0.0758 -0.5560
  180SOPE    HB20507   6.925   4.087   6.302 -0.9255 -2.9877 -0.6523
  180SOPE    C220508   6.798   4.030   6.467 -0.2929 -0.2211 -0.1974
  180SOPE    HS20509   6.703   4.070   6.507 -1.7388 -0.5183 -3.1425
  180SOPE   O2120510   6.919   4.062   6.546  0.3200  0.6089  0.2743
  180SOPE   C2120511   6.917   4.181   6.603 -0.1271  0.3903  0.2697
  180SOPE   O2220512   6.826   4.260   6.600  0.4799  0.2154 -0.1816
  180SOPE   C2220513   7.053   4.204   6.678  0.2272  0.3021 -0.1266
  180SOPE   H2R20514   7.138   4.193   6.608 -0.7096 -0.9159 -1.1120
  180SOPE   H2S20515   7.067   4.126   6.755  0.3694  1.5309  1.1276
  180SOPE    C320516   6.794   3.873   6.452 -0.7033  0.1679  0.1208
  180SOPE    HX20517   6.869   3.849   6.375 -0.1503  1.9756  0.0550
  180SOPE    HY20518   6.691   3.861   6.412 -0.3606 -0.1111 -0.6943
  180SOPE   O3120519   6.823   3.801   6.570 -0.0203 -0.3583 -0.1801
  180SOPE   C3120520   6.949   3.780   6.592 -0.1891 -0.0820 -0.0903
  180SOPE   O3220521   7.046   3.819   6.531  0.0685 -0.6448  0.1179
  180SOPE   C3220522   6.952   3.691   6.710  0.1873 -0.1796 -0.0242
  180SOPE   H2X20523   7.020   3.608   6.682 -0.5165 -1.4279  1.7802
  180SOPE   H2Y20524   6.853   3.645   6.733  1.7668 -2.8543  2.0985
  180SOPE   C2320525   7.048   4.338   6.738 -0.7309 -0.1787 -0.0316
  180SOPE   H3R20526   7.020   4.421   6.670  1.2213  0.9717  0.4913
  180SOPE   H3S20527   7.151   4.336   6.779 -0.2466  1.2494 -1.1242
  180SOPE   C2420528   6.964   4.343   6.872  0.3279 -0.0695  0.1715
  180SOPE   H4R20529   6.860   4.365   6.841  0.0767 -0.9067  0.3989
  180SOPE   H4S20530   6.955   4.249   6.930  3.3007 -0.6577 -0.1694
  180SOPE   C2520531   7.021   4.440   6.983  0.4217  0.9956 -1.0350
  180SOPE   H5R20532   7.102   4.391   7.041 -1.0687  1.4433  1.6162
  180SOPE   H5S20533   7.057   4.537   6.945  0.2047  1.5550  0.1310
  180SOPE   C2620534   6.906   4.481   7.083  0.8101  0.0359 -0.2285
  180SOPE   H6R20535   6.828   4.542   7.032  0.5585  0.2424  0.3872
  180SOPE   H6S20536   6.863   4.385   7.119  0.0979 -0.2515 -1.7716
  180SOPE   C2720537   6.961   4.555   7.205 -0.3163 -0.3946  0.6142
  180SOPE   H7R20538   7.015   4.648   7.177 -1.6696  0.6545  1.3797
  180SOPE   H7S20539   6.885   4.592   7.277 -0.1779 -0.1331  0.6274
  180SOPE   C2820540   7.059   4.473   7.294  0.0192 -0.8703  0.3557
  180SOPE   H8R20541   7.008   4.381   7.331 -3.2448  1.3617  1.9453
  180SOPE   H8S20542   7.143   4.440   7.229 -1.5682 -3.6641 -0.4810
  180SOPE   C2920543   7.118   4.545   7.415 -0.1145  0.6307 -0.7085
  180SOPE   H9120544   7.184   4.627   7.381 -0.6205  1.7018  0.7851
  180SOPE  C21020545   7.106   4.515   7.547  0.2679  0.1087  0.1353
  180SOPE  H10120546   7.154   4.582   7.620 -2.4256  2.5084 -0.1410
  180SOPE  C21120547   7.025   4.401   7.599  0.3462  0.2417  0.0060
  180SOPE  H11R20548   6.993   4.328   7.522 -1.1178  0.9126 -0.0440
  180SOPE  H11S20549   6.936   4.435   7.657  0.7276 -0.3211  0.9613
  180SOPE  C21220550   7.115   4.320   7.700 -0.1485  0.1882 -0.2945
  180SOPE  H12R20551   7.206   4.293   7.643  0.7425 -1.5753  1.7987
  180SOPE  H12S20552   7.057   4.229   7.730 -0.5850 -0.0891 -1.8774
  180SOPE  C21320553   7.152   4.385   7.840  0.0320  0.2475  0.9325
  180SOPE  H13R20554   7.054   4.400   7.891 -0.4037  1.6243 -0.2332
  180SOPE  H13S20555   7.192   4.488   7.825  0.5579  0.2934  2.4191
  180SOPE  C21420556   7.245   4.319   7.929 -0.2293 -0.1068 -0.7305
  180SOPE  H14R20557   7.328   4.273   7.870  1.1006 -0.5228  1.3625
  180SOPE  H14S20558   7.190   4.230   7.968 -0.2683  0.1165 -0.2708
  180SOPE  C21520559   7.293   4.422   8.034  0.1074  0.6387 -0.3235
  180SOPE  H15R20560   7.206   4.475   8.078  0.4007  0.9381 -0.1069
  180SOPE  H15S20561   7.355   4.498   7.982  1.1906  0.1956  0.2797
  180SOPE  C21620562   7.372   4.368   8.157  0.1092 -0.1400  0.2587
  180SOPE  H16R20563   7.432   4.283   8.119 -0.1909  0.5739 -1.9549
  180SOPE  H16S20564   7.304   4.328   8.236 -1.5566  2.9266  0.5293
  180SOPE  C21720565   7.460   4.470   8.233  0.6553  0.5477  0.1250
  180SOPE  H17R20566   7.397   4.551   8.275  0.0087 -0.1175  0.4495
  180SOPE  H17S20567   7.532   4.508   8.157  1.2245 -1.5700 -0.4413
  180SOPE  C21820568   7.528   4.405   8.355 -0.3023 -0.3150  0.5998
  180SOPE  H18R20569   7.605   4.327   8.334 -1.4811 -1.3267 -0.1126
  180SOPE  H18S20570   7.458   4.348   8.420  0.3685  0.6478  2.2406
  180SOPE  H18T20571   7.587   4.471   8.421  1.6785 -2.2896  0.9448
  180SOPE   C3320572   7.002   3.773   6.830  0.5976 -0.4471  0.9927
  180SOPE   H3X20573   7.100   3.818   6.807  1.6601 -3.3247 -0.5987
  180SOPE   H3Y20574   7.002   3.716   6.925  0.7441  0.3638  1.4930
  180SOPE   C3420575   6.908   3.894   6.868 -0.0581  0.2695 -0.2253
  180SOPE   H4X20576   6.801   3.873   6.848 -0.2764  2.0290 -1.1767
  180SOPE   H4Y20577   6.938   3.972   6.794  3.2501  0.2891  0.9722
  180SOPE   C3520578   6.914   3.923   7.023 -1.2144 -0.1163  0.0075
  180SOPE   H5X20579   6.886   3.832   7.080 -0.3038 -0.5924 -0.2831
  180SOPE   H5Y20580   6.847   4.011   7.036  0.4135  1.4379 -1.5363
  180SOPE   C3620581   7.059   3.968   7.062  0.4910 -0.0214  0.0084
  180SOPE   H6X20582   7.083   4.055   6.997 -0.3231 -1.5488 -2.4271
  180SOPE   H6Y20583   7.130   3.886   7.041  2.3881  0.3236  3.9834
  180SOPE   C3720584   7.073   4.008   7.213  0.0558 -0.5707 -0.2565
  180SOPE   H7X20585   6.998   4.083   7.243 -0.8332 -1.7105  0.4790
  180SOPE   H7Y20586   7.175   4.044   7.237  1.2115 -2.4748 -1.9864
  180SOPE   C3820587   7.040   3.889   7.301 -0.2270  0.5738 -0.5069
  180SOPE   H8X20588   7.095   3.795   7.277 -0.5387 -0.5309  2.5643
  180SOPE   H8Y20589   6.933   3.863   7.292 -0.4410  1.1793  0.2045
  180SOPE   C3920590   7.081   3.924   7.448 -0.2239 -0.3410  1.2389
  180SOPE   H9X20591   7.057   4.031   7.467  0.6828 -0.0863  1.0278
  180SOPE   H9Y20592   7.192   3.915   7.454  0.0176 -2.1863 -2.5960
  180SOPE  C31020593   7.010   3.850   7.563 -0.7646  0.4092 -0.8181
  180SOPE  H10X20594   7.018   3.741   7.542  1.7641  0.5137 -0.7682
  180SOPE  H10Y20595   6.901   3.867   7.556 -1.0145 -1.2897 -1.5015
  180SOPE  C31120596   7.078   3.904   7.691 -0.1581 -0.1238  0.3057
  180SOPE  H11X20597   7.081   4.015   7.693  1.7629  0.0695 -3.2834
  180SOPE  H11Y20598   7.185   3.871   7.689 -0.7565 -2.2976  1.1789
  180SOPE  C31220599   7.004   3.859   7.822  0.3249  0.7264 -0.5157
  180SOPE  H12X20600   6.992   3.749   7.818 -0.4268  0.7408  0.7903
  180SOPE  H12Y20601   6.905   3.909   7.816  0.1340  0.3544 -0.4455
  180SOPE  C31320602   7.084   3.896   7.960  0.3117 -0.9589  0.6476
  180SOPE  H13X20603   7.104   4.003   7.936  0.6770 -1.8067 -3.6101
  180SOPE  H13Y20604   7.189   3.859   7.963  0.6227 -0.3368 -1.2261
  180SOPE  C31420605   6.997   3.882   8.081  0.2154  0.5798 -0.1008
  180SOPE  H14X20606   6.979   3.772   8.074  0.8061  0.4517  0.3224
  180SOPE  H14Y20607   6.903   3.938   8.062 -0.4243 -1.2955 -3.3499
  180SOPE  C31520608   7.076   3.929   8.209  0.2607 -0.3954 -0.1413
  180SOPE  H15X20609   7.105   4.036   8.209  2.9238 -1.0350 -1.2390
  180SOPE  H15Y20610   7.167   3.869   8.231  0.1684  0.2216  2.1624
  180SOPE  C31620611   6.985   3.908   8.331  0.6601 -0.3969 -0.7607
  180SOPE  H16X20612   6.948   3.804   8.320 -3.5896  0.9286 -1.0109
  180SOPE  H16Y20613   6.886   3.954   8.308 -0.1468 -2.4076 -1.5147
  180SOPE  C31720614   7.050   3.950   8.461 -0.0134  0.5393  0.6097
  180SOPE  H17X20615   7.143   3.897   8.491 -1.1964 -0.8767  1.9403
  180SOPE  H17Y20616   6.983   3.905   8.537 -1.6454  1.5561 -0.1672
  180SOPE  C31820617   7.059   4.096   8.479  0.6487 -0.3244  0.0887
  180SOPE  H18X20618   7.130   4.141   8.407 -2.4191  3.1536 -1.0656
  180SOPE  H18Y20619   7.109   4.122   8.575  1.0505  0.2034 -0.2549
  180SOPE  H18Z20620   6.959   4.141   8.465  1.2691  0.1678 -4.0382
  181SOPE     N20621   0.868   1.673   5.779 -0.0295  0.2978 -0.7607
  181SOPE   HN120622   0.878   1.746   5.852  1.9358 -0.5343 -0.1426
  181SOPE   HN220623   0.931   1.596   5.809  0.0352  0.6279 -0.0354
  181SOPE   HN320624   0.910   1.715   5.693 -1.3611  0.5991 -1.2918
  181SOPE   C1220625   0.726   1.627   5.741 -0.2549  0.3923  0.8458
  181SOPE  H12A20626   0.739   1.528   5.691  2.7557  0.9157  0.3767
  181SOPE  H12B20627   0.693   1.710   5.676  2.7090  1.0794  0.0841
  181SOPE   C1120628   0.630   1.589   5.859 -1.2761 -0.3103  0.5346
  181SOPE  H11A20629   0.664   1.486   5.883 -0.9788 -0.2409  0.4169
  181SOPE  H11B20630   0.526   1.585   5.818 -1.4023  0.2202  0.7927
  181SOPE     P20631   0.590   1.821   5.994  0.6217 -0.5936 -0.3921
  181SOPE   O1320632   0.452   1.815   5.945  0.1372  0.1682  0.9184
  181SOPE   O1420633   0.684   1.914   5.930 -0.4215 -0.1199 -0.0927
  181SOPE   O1220634   0.653   1.676   5.973  0.2349 -0.6468 -0.4196
  181SOPE   O1120635   0.595   1.846   6.147  0.2198  0.3692 -0.0508
  181SOPE    C120636   0.654   1.747   6.235  0.0420  0.4534 -0.3771
  181SOPE    HA20637   0.677   1.796   6.332 -0.1643 -0.0823 -0.0545
  181SOPE    HB20638   0.755   1.713   6.206 -0.4752 -1.8890  0.3525
  181SOPE    C220639   0.555   1.618   6.253 -0.1807  0.0228  0.0684
  181SOPE    HS20640   0.495   1.616   6.160  0.1185 -1.4185 -0.1166
  181SOPE   O2120641   0.473   1.645   6.366 -0.2016  0.5518 -0.5297
  181SOPE   C2120642   0.354   1.581   6.362 -0.0805 -0.1248  0.4762
  181SOPE   O2220643   0.311   1.522   6.266  0.0501  1.0818 -0.1507
  181SOPE   C2220644   0.279   1.612   6.494  0.3566  0.1775  0.1302
  181SOPE   H2R20645   0.261   1.721   6.507 -0.9608 -0.0026 -0.0207
  181SOPE   H2S20646   0.335   1.580   6.584  0.9738  1.8692  0.3843
  181SOPE    C320647   0.621   1.479   6.257 -0.2102 -0.4424  0.4786
  181SOPE    HX20648   0.673   1.470   6.160 -0.2641 -2.9403  0.6176
  181SOPE    HY20649   0.541   1.402   6.250 -0.9713  0.3692 -0.0376
  181SOPE   O3120650   0.718   1.464   6.360  0.8054  0.8541  0.6007
  181SOPE   C3120651   0.664   1.413   6.474 -0.5077  0.4159 -0.4724
  181SOPE   O3220652   0.550   1.399   6.504 -0.6809 -0.2835  0.0990
  181SOPE   C3220653   0.783   1.382   6.579  0.3856 -0.3324  0.1620
  181SOPE   H2X20654   0.839   1.476   6.601 -1.5146  1.2516 -1.4141
  181SOPE   H2Y20655   0.856   1.313   6.532  0.5566  0.1370 -0.2710
  181SOPE   C2320656   0.136   1.551   6.484  0.6045 -0.3995  0.1850
  181SOPE   H3R20657   0.137   1.444   6.457 -0.8053 -0.1793 -0.8136
  181SOPE   H3S20658   0.096   1.604   6.396  2.3203  0.9625  0.1555
  181SOPE   C2420659   0.045   1.575   6.609 -0.2474 -0.2320 -0.8939
  181SOPE   H4R20660   0.023   1.683   6.625 -2.1035 -0.8865  1.6544
  181SOPE   H4S20661  -0.044   1.511   6.593  0.3847 -1.3306 -0.1577
  181SOPE   C2520662   0.096   1.513   6.740  0.5377 -0.0585 -0.3912
  181SOPE   H5R20663   0.090   1.403   6.751 -1.6856  0.2327  2.4837
  181SOPE   H5S20664   0.194   1.563   6.754 -1.4117  4.1089 -0.0888
  181SOPE   C2620665   0.021   1.560   6.872  0.0257  0.2037  0.7756
  181SOPE   H6R20666   0.089   1.541   6.958  2.2367  0.4702 -0.8099
  181SOPE   H6S20667   0.008   1.671   6.875  0.4321  0.2971 -0.2701
  181SOPE   C2720668  -0.121   1.510   6.882  0.5111 -0.1543  0.2262
  181SOPE   H7R20669  -0.170   1.556   6.793 -0.6122 -4.7478 -1.8142
  181SOPE   H7S20670  -0.148   1.405   6.859 -1.8866  0.4962 -0.2430
  181SOPE   C2820671  -0.194   1.550   7.016 -0.3159  0.7667  0.2842
  181SOPE   H8R20672  -0.152   1.480   7.092 -0.3029  2.7796  2.2394
  181SOPE   H8S20673  -0.151   1.647   7.051 -1.1815  0.9364  0.9110
  181SOPE   C2920674  -0.347   1.544   6.990 -0.5909  0.7841  0.7298
  181SOPE   H9120675  -0.378   1.577   6.890  1.7159  1.0552  0.0537
  181SOPE  C21020676  -0.434   1.473   7.066  0.9219  0.4092 -0.3314
  181SOPE  H10120677  -0.539   1.483   7.036  1.1472  1.7745 -0.7673
  181SOPE  C21120678  -0.405   1.395   7.192 -0.2969  0.1897  0.2468
  181SOPE  H11R20679  -0.295   1.381   7.206 -0.5259 -1.3493  0.6712
  181SOPE  H11S20680  -0.464   1.302   7.180 -0.4481  0.3773 -0.5312
  181SOPE  C21220681  -0.450   1.460   7.319  0.0816  0.1348  0.9877
  181SOPE  H12R20682  -0.560   1.464   7.327 -0.0933 -0.1641 -0.8302
  181SOPE  H12S20683  -0.422   1.566   7.301  0.3729 -0.3854 -2.2185
  181SOPE  C21320684  -0.391   1.406   7.450  0.8303 -0.1158  0.4055
  181SOPE  H13R20685  -0.281   1.404   7.434  0.7780 -0.2401  0.0355
  181SOPE  H13S20686  -0.431   1.303   7.461  0.0506  0.0881 -0.4129
  181SOPE  C21420687  -0.418   1.502   7.559 -0.2600 -0.6769  0.2478
  181SOPE  H14R20688  -0.526   1.498   7.585  0.1352 -1.3836  1.9214
  181SOPE  H14S20689  -0.390   1.605   7.528  0.0305 -0.8732 -0.1485
  181SOPE  C21520690  -0.342   1.463   7.691  0.2869 -0.6253 -0.2851
  181SOPE  H15R20691  -0.319   1.561   7.739 -1.0639  1.0341 -2.7624
  181SOPE  H15S20692  -0.246   1.412   7.670 -1.8338 -4.6258 -1.0911
  181SOPE  C21620693  -0.425   1.367   7.782 -0.0362  0.2980  0.2304
  181SOPE  H16R20694  -0.421   1.264   7.742 -0.4993  0.4115 -0.1140
  181SOPE  H16S20695  -0.529   1.407   7.787 -0.2148  0.0806 -1.3076
  181SOPE  C21720696  -0.371   1.348   7.924  0.3290  0.4053 -0.5301
  181SOPE  H17R20697  -0.289   1.274   7.918  0.7593  0.9104 -0.9896
  181SOPE  H17S20698  -0.460   1.293   7.963  0.4302 -0.5955 -1.6664
  181SOPE  C21820699  -0.336   1.468   8.004 -0.0865  0.1461  0.4004
  181SOPE  H18R20700  -0.228   1.490   7.989  0.5787 -2.2325  1.2025
  181SOPE  H18S20701  -0.338   1.452   8.114  0.0214  2.0670  0.7078
  181SOPE  H18T20702  -0.393   1.558   7.975  0.4901  0.0777 -1.0337
  181SOPE   C3320703   0.735   1.323   6.716 -0.2287  0.1509  0.1870
  181SOPE   H3X20704   0.665   1.239   6.696 -1.5025  1.1296  0.4503
  181SOPE   H3Y20705   0.681   1.408   6.762  1.7156  1.6243 -0.1241
  181SOPE   C3420706   0.846   1.272   6.808  0.8614  0.8268 -0.5419
  181SOPE   H4X20707   0.914   1.198   6.760 -0.3298 -2.4355  2.4112
  181SOPE   H4Y20708   0.787   1.203   6.872  0.3259  1.0194 -0.8235
  181SOPE   C3520709   0.915   1.377   6.895  0.4641  0.1125 -0.3092
  181SOPE   H5X20710   0.838   1.453   6.918  0.0221 -0.7674  1.3141
  181SOPE   H5Y20711   0.990   1.427   6.829  0.1898  1.6961  0.5264
  181SOPE   C3620712   1.005   1.327   7.011 -0.2053  0.3035  0.2252
  181SOPE   H6X20713   1.051   1.416   7.059 -1.7509  1.8743 -1.0664
  181SOPE   H6Y20714   1.083   1.268   6.958 -0.8841 -0.0620 -0.3751
  181SOPE   C3720715   0.927   1.252   7.114 -0.0940 -0.4035 -0.1106
  181SOPE   H7X20716   0.867   1.166   7.077 -1.7952 -0.4479  2.4736
  181SOPE   H7Y20717   0.849   1.320   7.154 -2.1077 -3.0308  0.7688
  181SOPE   C3820718   1.014   1.205   7.235 -0.5323  0.2675 -0.1190
  181SOPE   H8X20719   1.077   1.287   7.277  1.6495 -2.4287  2.3174
  181SOPE   H8Y20720   1.083   1.121   7.211  0.0581  0.4265  0.9666
  181SOPE   C3920721   0.916   1.176   7.350 -0.6111  0.2547  0.5723
  181SOPE   H9X20722   0.861   1.272   7.359 -0.9249  0.2943 -1.3729
  181SOPE   H9Y20723   0.961   1.141   7.446 -2.0451 -2.2733  0.4102
  181SOPE  C31020724   0.813   1.066   7.313 -0.3380 -0.2996 -0.0048
  181SOPE  H10X20725   0.866   0.979   7.268  2.6539  0.4247  1.8073
  181SOPE  H10Y20726   0.745   1.106   7.234  0.6511  0.1878 -0.6298
  181SOPE  C31120727   0.736   1.035   7.437  0.0833  0.2086 -0.7171
  181SOPE  H11X20728   0.802   0.984   7.511  0.2854  0.3089 -0.8278
  181SOPE  H11Y20729   0.659   0.958   7.415  0.3319 -0.2692  0.0387
  181SOPE  C31220730   0.664   1.151   7.510 -1.0935  0.3836 -1.2262
  181SOPE  H12X20731   0.606   1.209   7.435 -1.4466 -0.7345 -1.8326
  181SOPE  H12Y20732   0.747   1.212   7.551 -0.8463 -1.2750  0.9180
  181SOPE  C31320733   0.561   1.113   7.613  0.2373  0.6665  0.5249
  181SOPE  H13X20734   0.541   1.006   7.596  1.7750  0.7337 -2.3252
  181SOPE  H13Y20735   0.479   1.186   7.596  0.1961  0.7939  1.2342
  181SOPE  C31420736   0.618   1.134   7.756  0.0509 -0.2355 -0.4063
  181SOPE  H14X20737   0.615   1.245   7.766 -1.7786  0.0026 -2.7993
  181SOPE  H14Y20738   0.718   1.093   7.782 -0.0967  0.4523  1.3959
  181SOPE  C31520739   0.516   1.071   7.860  0.1004  0.0167  0.4313
  181SOPE  H15X20740   0.507   0.964   7.832 -0.0797  0.1715 -0.1154
  181SOPE  H15Y20741   0.412   1.110   7.851 -0.5321 -1.2909  1.7664
  181SOPE  C31620742   0.556   1.096   8.002 -0.3427 -0.2564  0.3718
  181SOPE  H16X20743   0.665   1.080   8.005 -0.3112 -0.0592  0.3025
  181SOPE  H16Y20744   0.513   1.014   8.064  0.0886 -0.1668  0.7931
  181SOPE  C31720745   0.534   1.242   8.061 -0.1552  0.5568 -0.1664
  181SOPE  H17X20746   0.603   1.304   8.001  0.9241 -1.8842 -1.5976
  181SOPE  H17Y20747   0.569   1.250   8.166  2.5781  0.4872 -0.9952
  181SOPE  C31820748   0.384   1.272   8.057 -0.1265 -0.4437  0.2774
  181SOPE  H18X20749   0.341   1.288   7.956  2.5746 -4.0575 -1.6528
  181SOPE  H18Y20750   0.353   1.360   8.117 -1.1086  0.7146 -1.8164
  181SOPE  H18Z20751   0.327   1.181   8.087 -3.5487  0.2499 -3.2896
  182SOPE     N20752   0.295   2.232   6.229 -0.3771 -0.5278  0.1825
  182SOPE   HN120753   0.272   2.247   6.129  0.6248  0.5077  0.0882
  182SOPE   HN220754   0.373   2.292   6.260 -1.2797  0.3055  0.9240
  182SOPE   HN320755   0.330   2.134   6.232  0.3965 -0.2292  1.3047
  182SOPE   C1220756   0.179   2.250   6.322  0.1735  0.2607  0.4344
  182SOPE  H12A20757   0.196   2.193   6.415 -1.2478  1.2458  1.3441
  182SOPE  H12B20758   0.094   2.210   6.262 -0.9586  0.2093  2.0090
  182SOPE   C1120759   0.161   2.395   6.359  0.4213  0.3449 -0.3052
  182SOPE  H11A20760   0.252   2.436   6.407 -0.2329 -0.1907  1.4464
  182SOPE  H11B20761   0.075   2.410   6.429 -0.0297  0.6549 -0.9121
  182SOPE     P20762   0.010   2.518   6.171  0.2227  0.1101  0.5167
  182SOPE   O1320763  -0.059   2.394   6.126 -0.5286  0.1544  0.0425
  182SOPE   O1420764   0.047   2.621   6.071 -0.2877  0.4716 -0.6854
  182SOPE   O1220765   0.138   2.472   6.246 -0.5475  0.4495 -0.2806
  182SOPE   O1120766  -0.082   2.581   6.277  0.2436 -0.1479  0.2298
  182SOPE    C120767  -0.064   2.705   6.335  0.2993  0.2929 -0.0845
  182SOPE    HA20768  -0.155   2.766   6.318  1.0330  0.9732 -1.7984
  182SOPE    HB20769   0.016   2.769   6.291  1.3155 -1.1295 -0.3886
  182SOPE    C220770  -0.013   2.702   6.483  0.1815  0.5438  0.0543
  182SOPE    HS20771   0.081   2.647   6.503 -0.7601 -1.7470 -1.5016
  182SOPE   O2120772  -0.122   2.645   6.568  0.0319  0.2872 -0.1153
  182SOPE   C2120773  -0.099   2.556   6.655 -0.3462 -0.4081  0.1388
  182SOPE   O2220774   0.012   2.521   6.692 -0.4019 -0.5514 -0.1428
  182SOPE   C2220775  -0.240   2.498   6.701 -0.0054 -1.0434  0.2614
  182SOPE   H2R20776  -0.266   2.429   6.618 -0.6497 -0.2091 -0.2480
  182SOPE   H2S20777  -0.320   2.576   6.698 -0.8214 -1.8264  1.0222
  182SOPE    C320778   0.010   2.850   6.529  0.1994  0.2288  0.4087
  182SOPE    HX20779  -0.085   2.906   6.513 -0.3944 -1.4521 -2.9347
  182SOPE    HY20780   0.082   2.898   6.460 -1.3689  0.6697 -1.0139
  182SOPE   O3120781   0.043   2.851   6.668  0.3658 -0.4315 -0.1771
  182SOPE   C3120782   0.170   2.820   6.707 -0.0536  0.2220  0.2770
  182SOPE   O3220783   0.264   2.816   6.631 -0.4826 -0.9612 -0.5612
  182SOPE   C3220784   0.179   2.820   6.861  0.1496 -0.7633  0.0951
  182SOPE   H2X20785   0.085   2.776   6.902  0.4715 -1.1153  0.4599
  182SOPE   H2Y20786   0.182   2.925   6.896 -1.1017 -0.6681 -0.0411
  182SOPE   C2320787  -0.245   2.427   6.839 -0.0200 -0.9516 -0.3415
  182SOPE   H3R20788  -0.166   2.349   6.826 -0.5350 -1.0129 -4.1922
  182SOPE   H3S20789  -0.346   2.388   6.862  0.2646 -0.2612  2.4416
  182SOPE   C2420790  -0.209   2.519   6.964 -0.6550 -0.3050  0.1199
  182SOPE   H4R20791  -0.118   2.576   6.935 -0.6958 -0.4441 -0.3020
  182SOPE   H4S20792  -0.289   2.595   6.974  0.5082  0.7765  1.6249
  182SOPE   C2520793  -0.210   2.439   7.094 -0.1112  0.3249 -0.0112
  182SOPE   H5R20794  -0.312   2.396   7.107 -0.6359  0.7269 -2.3361
  182SOPE   H5S20795  -0.142   2.351   7.089 -1.3339 -0.7532  1.4395
  182SOPE   C2620796  -0.164   2.517   7.221 -0.5511 -0.0043  0.0507
  182SOPE   H6R20797  -0.060   2.553   7.204  0.1585 -2.4504 -1.3759
  182SOPE   H6S20798  -0.228   2.607   7.225  0.8468  1.0201  0.1799
  182SOPE   C2720799  -0.173   2.436   7.349 -0.3892 -0.0901 -0.1676
  182SOPE   H7R20800  -0.275   2.395   7.361  0.1901 -0.9721  2.3774
  182SOPE   H7S20801  -0.102   2.352   7.335  0.0459  0.2226  0.1366
  182SOPE   C2820802  -0.135   2.511   7.473  0.5157  0.6622 -0.2616
  182SOPE   H8R20803  -0.034   2.554   7.458  1.0713  0.3097  2.0163
  182SOPE   H8S20804  -0.218   2.584   7.477 -0.6038 -0.3087 -2.9752
  182SOPE   C2920805  -0.120   2.428   7.604  0.5003  0.3424  0.0044
  182SOPE   H9120806  -0.032   2.361   7.608 -0.0086 -0.5183 -1.9356
  182SOPE  C21020807  -0.207   2.436   7.706 -0.3615 -0.3324  0.1102
  182SOPE  H10120808  -0.195   2.373   7.796  1.6020  0.7278  0.6700
  182SOPE  C21120809  -0.320   2.535   7.703  0.0921 -0.2757 -0.2044
  182SOPE  H11R20810  -0.384   2.484   7.629  0.0086 -0.5361  0.0437
  182SOPE  H11S20811  -0.301   2.644   7.692 -1.4885 -0.0018 -0.5030
  182SOPE  C21220812  -0.391   2.508   7.840 -0.3807  0.1507 -0.3192
  182SOPE  H12R20813  -0.422   2.402   7.851 -1.3003  0.4599  0.2368
  182SOPE  H12S20814  -0.484   2.570   7.840 -0.8756 -0.5670  0.1782
  182SOPE  C21320815  -0.314   2.555   7.968  0.8218  0.2623  0.0005
  182SOPE  H13R20816  -0.287   2.663   7.970 -1.4292  0.8596  1.9460
  182SOPE  H13S20817  -0.213   2.507   7.967  0.0181 -1.5169 -1.0005
  182SOPE  C21420818  -0.400   2.545   8.093 -0.0131 -0.5919 -0.0016
  182SOPE  H14R20819  -0.428   2.439   8.111  1.0553 -1.4545 -2.8481
  182SOPE  H14S20820  -0.494   2.604   8.089 -0.6371 -1.6131 -1.1721
  182SOPE  C21520821  -0.320   2.594   8.218 -0.3041 -1.0743 -0.2142
  182SOPE  H15R20822  -0.384   2.598   8.308 -1.1553  0.2587 -0.8344
  182SOPE  H15S20823  -0.286   2.698   8.199 -1.2497 -0.5751  0.7097
  182SOPE  C21620824  -0.201   2.519   8.256 -0.1846 -0.6452 -0.0565
  182SOPE  H16R20825  -0.127   2.511   8.174  0.2742  0.5731  0.2186
  182SOPE  H16S20826  -0.239   2.416   8.271 -0.8357 -0.2843  0.8853
  182SOPE  C21720827  -0.118   2.572   8.386  0.3555  0.6283 -0.4357
  182SOPE  H17R20828  -0.185   2.565   8.474  1.4192  0.2278  0.3755
  182SOPE  H17S20829  -0.102   2.682   8.372  1.0708  0.3870 -1.6800
  182SOPE  C21820830   0.004   2.485   8.421 -0.6631 -0.4998 -0.7125
  182SOPE  H18R20831   0.078   2.533   8.488  0.2475  0.2451 -2.1947
  182SOPE  H18S20832   0.053   2.451   8.328  1.3323 -0.8837  0.4364
  182SOPE  H18T20833  -0.041   2.395   8.468 -2.8719  0.8883  0.0129
  182SOPE   C3320834   0.303   2.733   6.901  0.7250 -1.1095  0.3959
  182SOPE   H3X20835   0.349   2.807   6.971  0.2877  1.2313 -1.6323
  182SOPE   H3Y20836   0.365   2.707   6.812  0.4377  0.0095 -0.1593
  182SOPE   C3420837   0.270   2.600   6.962  0.5290  0.1668 -0.4815
  182SOPE   H4X20838   0.366   2.546   6.957  0.0543 -0.6116 -1.9727
  182SOPE   H4Y20839   0.216   2.531   6.893  0.6383 -0.2771 -0.1246
  182SOPE   C3520840   0.207   2.595   7.106 -0.0937 -0.6980  0.8894
  182SOPE   H5X20841   0.162   2.495   7.121 -0.3384 -0.5369  1.2433
  182SOPE   H5Y20842   0.121   2.665   7.109  0.3025 -0.2375  2.4073
  182SOPE   C3620843   0.310   2.638   7.208  0.1224 -0.1755  0.1273
  182SOPE   H6X20844   0.352   2.731   7.164 -1.6909 -0.5705 -2.7461
  182SOPE   H6Y20845   0.386   2.558   7.221 -0.2675 -0.7000 -0.7497
  182SOPE   C3720846   0.247   2.666   7.347  0.4635 -0.4652 -0.5138
  182SOPE   H7X20847   0.138   2.675   7.324  0.1684  1.5527  1.3426
  182SOPE   H7Y20848   0.275   2.764   7.390 -0.6339 -0.5167  0.3523
  182SOPE   C3820849   0.259   2.544   7.442  0.5005 -0.1707  0.1217
  182SOPE   H8X20850   0.368   2.523   7.443  0.9227  1.7978 -0.3138
  182SOPE   H8Y20851   0.219   2.446   7.409  2.0268 -0.6104 -0.5392
  182SOPE   C3920852   0.229   2.581   7.588 -1.2474 -0.0612 -0.3324
  182SOPE   H9X20853   0.120   2.594   7.598 -1.0633  1.2245  0.2624
  182SOPE   H9Y20854   0.268   2.681   7.615 -0.8754 -0.7256  1.8157
  182SOPE  C31020855   0.275   2.478   7.695  0.0443 -0.3596 -0.3426
  182SOPE  H10X20856   0.386   2.479   7.695  0.0928 -1.7112  1.3730
  182SOPE  H10Y20857   0.233   2.380   7.667 -0.4694  0.4689 -2.6690
  182SOPE  C31120858   0.230   2.515   7.831 -0.2571  0.5168  0.9744
  182SOPE  H11X20859   0.120   2.508   7.848 -0.3312  1.0446  0.7176
  182SOPE  H11Y20860   0.258   2.617   7.864 -0.8313  0.3238  2.1244
  182SOPE  C31220861   0.294   2.415   7.932  0.1079  0.2625  0.5648
  182SOPE  H12X20862   0.404   2.406   7.922  0.0468  0.0394  0.0776
  182SOPE  H12Y20863   0.244   2.316   7.919  1.0468 -0.5263  2.5275
  182SOPE  C31320864   0.242   2.444   8.073  0.3262  0.3563 -0.1024
  182SOPE  H13X20865   0.142   2.398   8.084  0.8004 -0.5710  0.5623
  182SOPE  H13Y20866   0.237   2.550   8.105  1.1512  0.7726 -1.2801
  182SOPE  C31420867   0.313   2.382   8.190 -0.3823 -0.1339  0.3217
  182SOPE  H14X20868   0.256   2.380   8.285 -0.7243 -1.5149  0.1125
  182SOPE  H14Y20869   0.402   2.441   8.222 -0.4721  0.8639 -1.1891
  182SOPE  C31520870   0.358   2.237   8.165 -0.5471  0.3469 -0.0339
  182SOPE  H15X20871   0.443   2.239   8.093  0.0954  3.3157  0.7104
  182SOPE  H15Y20872   0.274   2.184   8.115  1.2308 -1.5786 -1.1656
  182SOPE  C31620873   0.374   2.166   8.300 -0.3152  0.2826 -0.5266
  182SOPE  H16X20874   0.269   2.163   8.336 -1.5335 -3.6555 -3.5817
  182SOPE  H16Y20875   0.449   2.218   8.363  0.9308 -0.0447 -1.6919
  182SOPE  C31720876   0.413   2.016   8.276 -0.4473  0.8527 -0.2714
  182SOPE  H17X20877   0.518   2.006   8.240  0.1929 -0.6607  1.8321
  182SOPE  H17Y20878   0.346   1.977   8.196 -1.2113  0.2608  0.6463
  182SOPE  C31820879   0.406   1.946   8.413  0.4952  0.4549 -0.1142
  182SOPE  H18X20880   0.319   1.975   8.476 -1.4480 -0.8710 -2.0550
  182SOPE  H18Y20881   0.495   1.971   8.475 -1.2848 -1.1311  3.3727
  182SOPE  H18Z20882   0.393   1.836   8.403  0.5567  0.2660  1.5412
  183SOPE     N20883   3.254   0.818   6.440 -0.2715 -0.1737  0.5633
  183SOPE   HN120884   3.280   0.723   6.474  0.8518 -0.9162 -2.1231
  183SOPE   HN220885   3.174   0.808   6.374  0.6018 -0.8351 -0.4093
  183SOPE   HN320886   3.330   0.858   6.382 -0.4786 -1.6789 -0.8034
  183SOPE   C1220887   3.215   0.917   6.543 -0.0714 -0.3438 -0.1114
  183SOPE  H12A20888   3.309   0.933   6.599  0.6885 -0.9376 -1.1941
  183SOPE  H12B20889   3.139   0.860   6.601  0.1130 -0.8412 -0.3527
  183SOPE   C1120890   3.163   1.049   6.489 -0.0233  0.0874  0.2480
  183SOPE  H11A20891   3.219   1.079   6.398 -0.1220 -1.8196 -0.5082
  183SOPE  H11B20892   3.178   1.127   6.566  0.8902  0.8791 -0.7025
  183SOPE     P20893   2.968   1.166   6.395  0.0552 -0.2800  0.0090
  183SOPE   O1320894   2.823   1.148   6.370 -0.0403  0.0565 -0.0048
  183SOPE   O1420895   3.048   1.199   6.274  0.0677  0.3815 -0.2020
  183SOPE   O1220896   3.025   1.043   6.470 -0.0574  0.1065 -0.6564
  183SOPE   O1120897   2.980   1.281   6.506  0.1296  0.8863  0.3056
  183SOPE    C120898   2.911   1.288   6.627  0.4369  0.7901 -0.3556
  183SOPE    HA20899   2.846   1.199   6.641  1.0382  0.6125  1.5801
  183SOPE    HB20900   2.846   1.378   6.632 -3.4565 -1.8117  2.2902
  183SOPE    C220901   3.015   1.310   6.746 -0.1109  0.0428 -0.3049
  183SOPE    HS20902   3.074   1.217   6.763 -0.3665  0.0365  0.6004
  183SOPE   O2120903   2.947   1.326   6.870  0.1135  0.2830  0.2516
  183SOPE   C2120904   2.871   1.224   6.902 -0.1443 -0.5429 -0.3982
  183SOPE   O2220905   2.872   1.114   6.855  0.4357  0.4379  0.1808
  183SOPE   C2220906   2.771   1.278   7.001  0.6085  0.3287 -0.5470
  183SOPE   H2R20907   2.728   1.368   6.953  0.3297  0.4743 -0.0312
  183SOPE   H2S20908   2.830   1.306   7.091  1.4902 -0.1619 -0.9559
  183SOPE    C320909   3.112   1.428   6.721  0.4915 -1.0851  0.0233
  183SOPE    HX20910   3.041   1.511   6.706 -0.7350 -1.9780  0.7249
  183SOPE    HY20911   3.162   1.408   6.624  2.1333 -0.2651  0.6547
  183SOPE   O3120912   3.208   1.456   6.825  0.3265  1.0410  0.6231
  183SOPE   C3120913   3.252   1.581   6.831  0.1955 -0.0794  0.7206
  183SOPE   O3220914   3.230   1.664   6.738  0.1613  0.2551  0.0711
  183SOPE   C3220915   3.337   1.602   6.954 -0.1687 -0.1709 -0.4929
  183SOPE   H2X20916   3.435   1.565   6.916 -0.3797 -0.6297 -0.5945
  183SOPE   H2Y20917   3.298   1.526   7.024 -0.4751 -0.5516 -1.0674
  183SOPE   C2320918   2.670   1.177   7.058 -0.0267 -0.2803  0.9037
  183SOPE   H3R20919   2.714   1.075   7.059  1.4532  0.1822 -2.4799
  183SOPE   H3S20920   2.587   1.171   6.985 -0.1514 -1.6427  1.1414
  183SOPE   C2420921   2.596   1.229   7.180 -0.4359  0.2853 -0.0412
  183SOPE   H4R20922   2.530   1.316   7.159 -1.5222 -0.7718 -1.2230
  183SOPE   H4S20923   2.521   1.152   7.209 -0.0669 -0.3530 -0.7332
  183SOPE   C2520924   2.682   1.231   7.305  0.7934 -0.2782 -0.2678
  183SOPE   H5R20925   2.741   1.139   7.326  0.6694 -0.6520 -1.4752
  183SOPE   H5S20926   2.764   1.306   7.297  0.1626  0.6996  1.7824
  183SOPE   C2620927   2.600   1.269   7.430 -0.8557  0.5046 -0.1805
  183SOPE   H6R20928   2.558   1.371   7.418  0.0140  1.2918  2.6563
  183SOPE   H6S20929   2.516   1.197   7.443 -0.9546  0.6467 -0.0365
  183SOPE   C2720930   2.691   1.275   7.554  0.2674  0.4559 -0.2529
  183SOPE   H7R20931   2.757   1.186   7.556  1.6630  1.3979 -1.7831
  183SOPE   H7S20932   2.762   1.358   7.537  0.2036  0.4311 -0.6451
  183SOPE   C2820933   2.615   1.283   7.696  0.2069  0.3669  0.2019
  183SOPE   H8R20934   2.542   1.202   7.719  0.4171  0.5011  1.4205
  183SOPE   H8S20935   2.686   1.258   7.777 -1.6374 -2.5370  1.1098
  183SOPE   C2920936   2.546   1.415   7.718 -0.4008  0.2858 -0.3239
  183SOPE   H9120937   2.523   1.468   7.625 -1.8346 -0.9213 -0.6993
  183SOPE  C21020938   2.514   1.473   7.833 -0.3954 -1.0609 -0.8357
  183SOPE  H10120939   2.487   1.579   7.832  2.1608 -0.3196 -0.1629
  183SOPE  C21120940   2.539   1.418   7.973  0.0220 -0.2470  0.1538
  183SOPE  H11R20941   2.568   1.311   7.966 -1.4667 -0.7126  0.6611
  183SOPE  H11S20942   2.437   1.419   8.018  0.2194  1.0543  0.6092
  183SOPE  C21220943   2.643   1.493   8.067 -0.5446 -0.2463  0.2171
  183SOPE  H12R20944   2.602   1.586   8.111 -1.6832  0.4185 -2.1162
  183SOPE  H12S20945   2.735   1.516   8.009 -0.3286 -0.7505  0.3537
  183SOPE  C21320946   2.682   1.401   8.187  0.0430 -0.8759 -0.1704
  183SOPE  H13R20947   2.701   1.304   8.137  1.8591  0.0527 -1.3916
  183SOPE  H13S20948   2.597   1.385   8.257 -0.5359 -1.8422 -1.0657
  183SOPE  C21420949   2.809   1.442   8.255  0.0175 -0.1637  0.2780
  183SOPE  H14R20950   2.812   1.528   8.326  0.9408  1.5430 -1.7401
  183SOPE  H14S20951   2.876   1.477   8.174  1.2626  1.6735  1.9820
  183SOPE  C21520952   2.878   1.324   8.319 -0.3971  0.2339 -0.0023
  183SOPE  H15R20953   2.988   1.326   8.307 -0.2110 -1.1230  1.2924
  183SOPE  H15S20954   2.840   1.229   8.276 -1.2465  0.3973  0.3556
  183SOPE  C21620955   2.845   1.317   8.467 -0.1992  0.0171 -0.1594
  183SOPE  H16R20956   2.735   1.310   8.480 -0.4073 -0.6158 -1.9855
  183SOPE  H16S20957   2.878   1.416   8.506  0.1876  0.1284 -0.7625
  183SOPE  C21720958   2.911   1.201   8.542  0.3045  0.1665  0.2526
  183SOPE  H17R20959   2.908   1.122   8.463 -0.8862 -1.9061  2.2499
  183SOPE  H17S20960   2.845   1.170   8.625 -1.6756 -1.6319 -1.8442
  183SOPE  C21820961   3.055   1.223   8.598  0.0564 -0.1901 -0.1501
  183SOPE  H18R20962   3.121   1.277   8.526  1.5949  0.0020  1.3280
  183SOPE  H18S20963   3.092   1.122   8.624 -1.2464 -0.9674 -1.2433
  183SOPE  H18T20964   3.053   1.293   8.685  1.7452 -1.1704  0.7277
  183SOPE   C3320965   3.348   1.746   7.022 -0.1290 -0.0624  0.1130
  183SOPE   H3X20966   3.258   1.786   7.072  0.1397  1.6455 -0.7188
  183SOPE   H3Y20967   3.373   1.822   6.945 -1.2269  0.4801  0.2789
  183SOPE   C3420968   3.453   1.753   7.132  0.3387  0.2875 -0.1213
  183SOPE   H4X20969   3.548   1.760   7.075 -1.3664 -1.8004 -3.4966
  183SOPE   H4Y20970   3.434   1.659   7.189 -1.2186  1.2596  1.0256
  183SOPE   C3520971   3.433   1.868   7.237 -0.3068 -0.0902 -0.1150
  183SOPE   H5X20972   3.324   1.870   7.258 -0.0970  0.1867  0.9741
  183SOPE   H5Y20973   3.457   1.961   7.181 -0.1464  0.2743  0.5534
  183SOPE   C3620974   3.519   1.838   7.365  0.3618 -0.7329 -0.5672
  183SOPE   H6X20975   3.627   1.859   7.349  0.1573  0.6881 -0.2323
  183SOPE   H6Y20976   3.505   1.730   7.388 -0.8325 -0.5560 -0.3905
  183SOPE   C3720977   3.467   1.913   7.492  0.7114 -0.4228  0.5567
  183SOPE   H7X20978   3.356   1.914   7.484  0.5234 -0.5786  2.6015
  183SOPE   H7Y20979   3.499   2.019   7.499  3.0964 -1.1478  1.7291
  183SOPE   C3820980   3.503   1.848   7.629 -0.6745 -0.5021  0.1556
  183SOPE   H8X20981   3.456   1.748   7.620 -0.4623 -0.4951 -1.2063
  183SOPE   H8Y20982   3.459   1.908   7.712  0.0993  0.1571  0.1035
  183SOPE   C3920983   3.655   1.839   7.650  0.0970  0.0603  0.3192
  183SOPE   H9X20984   3.707   1.937   7.651 -2.9554  1.8569 -1.1074
  183SOPE   H9Y20985   3.704   1.781   7.569  1.5245  0.6999  0.6972
  183SOPE  C31020986   3.687   1.754   7.778 -0.3781 -0.2855  0.8644
  183SOPE  H10X20987   3.797   1.756   7.795 -0.1084 -0.4321 -0.6830
  183SOPE  H10Y20988   3.652   1.650   7.759 -1.2646 -0.1002  1.4342
  183SOPE  C31120989   3.612   1.813   7.907  0.5710  0.1225  0.5467
  183SOPE  H11X20990   3.510   1.771   7.899  0.8960 -0.3927 -1.2908
  183SOPE  H11Y20991   3.594   1.922   7.897  1.1191  0.0594 -1.6302
  183SOPE  C31220992   3.671   1.786   8.051 -0.0435  0.4083  0.1953
  183SOPE  H12X20993   3.665   1.678   8.075  0.7868  0.3864  0.3138
  183SOPE  H12Y20994   3.607   1.834   8.128 -0.9410 -0.9887  0.3464
  183SOPE  C31320995   3.811   1.854   8.065  0.2580  0.5392 -0.2219
  183SOPE  H13X20996   3.792   1.955   8.024 -2.3715 -0.3683 -1.4041
  183SOPE  H13Y20997   3.888   1.801   8.004  1.8219  0.9506  1.3053
  183SOPE  C31420998   3.869   1.848   8.215  0.0507 -0.2230 -0.0507
  183SOPE  H14X20999   3.807   1.914   8.279 -1.8795 -1.0830 -0.9313
  183SOPE  H14Y21000   3.974   1.884   8.207  0.1896 -0.4035  0.8614
  183SOPE  C31521001   3.864   1.715   8.293 -0.6249 -0.1103  0.4143
  183SOPE  H15X21002   3.945   1.647   8.257  0.7278  0.4054  2.3461
  183SOPE  H15Y21003   3.767   1.669   8.265 -0.0806 -1.4336  0.6443
  183SOPE  C31621004   3.881   1.716   8.441 -0.4576 -0.5930 -0.4601
  183SOPE  H16X21005   3.868   1.814   8.492 -0.3017 -0.8168  0.0160
  183SOPE  H16Y21006   3.986   1.700   8.473 -0.4102 -0.1155 -0.3751
  183SOPE  C31721007   3.793   1.620   8.523 -1.1626 -0.8032  0.1473
  183SOPE  H17X21008   3.688   1.652   8.508 -1.6786 -2.1401  0.7940
  183SOPE  H17Y21009   3.812   1.627   8.632 -1.4561  1.1208  0.1142
  183SOPE  C31821010   3.805   1.471   8.480 -0.4865  0.6885 -0.3091
  183SOPE  H18X21011   3.787   1.467   8.370  1.7435 -0.4693 -0.7010
  183SOPE  H18Y21012   3.737   1.397   8.527  0.5521  0.6008  1.1187
  183SOPE  H18Z21013   3.910   1.436   8.490 -0.7515 -0.4006 -1.1804
  184SOPE     N21014   3.143   0.151   6.251 -0.1449 -0.0283  0.9042
  184SOPE   HN121015   3.065   0.089   6.222 -0.4910  0.6714  0.3416
  184SOPE   HN221016   3.096   0.242   6.239 -0.4819 -0.1682  1.1305
  184SOPE   HN321017   3.215   0.154   6.176 -2.3155  1.7127 -1.2636
  184SOPE   C1221018   3.185   0.148   6.393 -0.1541 -0.1167  0.3396
  184SOPE  H12A21019   3.248   0.057   6.401 -0.7601 -0.5985 -0.3145
  184SOPE  H12B21020   3.102   0.144   6.467 -1.1046  1.2685 -0.6204
  184SOPE   C1121021   3.285   0.271   6.417  0.4423  0.2744 -0.3938
  184SOPE  H11A21022   3.378   0.270   6.356 -0.1086  0.4660 -1.2591
  184SOPE  H11B21023   3.325   0.264   6.521  0.3925 -3.9464 -0.4884
  184SOPE     P21024   3.087   0.444   6.423 -0.2276  0.8876 -0.1346
  184SOPE   O1321025   3.020   0.379   6.310 -0.1242 -0.2294  0.4738
  184SOPE   O1421026   3.086   0.594   6.426 -0.2562 -0.0152  0.0948
  184SOPE   O1221027   3.239   0.402   6.397 -0.0336  0.0517 -0.7007
  184SOPE   O1121028   3.058   0.378   6.566  0.5330 -0.3612 -0.3394
  184SOPE    C121029   3.105   0.451   6.682 -0.0430 -0.8170 -0.4878
  184SOPE    HA21030   3.148   0.550   6.656 -1.1184 -0.0984  0.3872
  184SOPE    HB21031   3.185   0.389   6.729  1.5300  2.0184  0.8450
  184SOPE    C221032   3.006   0.463   6.791  0.1638  0.0507 -0.0155
  184SOPE    HS21033   2.938   0.547   6.766 -0.7505 -0.5853  0.3024
  184SOPE   O2121034   3.075   0.494   6.918 -0.0070  0.0685  0.3492
  184SOPE   C2121035   3.112   0.622   6.931 -0.8742  0.4539 -0.5056
  184SOPE   O2221036   3.079   0.710   6.852  0.1322  0.5143 -0.0235
  184SOPE   C2221037   3.197   0.644   7.059 -0.2360  0.1535 -0.5157
  184SOPE   H2R21038   3.233   0.547   7.101 -0.1231 -0.3218 -1.6654
  184SOPE   H2S21039   3.130   0.686   7.137  0.7019 -0.2539  0.5360
  184SOPE    C321040   2.923   0.342   6.826  0.1288  0.1878 -0.0894
  184SOPE    HX21041   2.986   0.260   6.867  0.1603 -0.0074 -0.5202
  184SOPE    HY21042   2.888   0.301   6.729 -1.1581  1.3765 -0.1555
  184SOPE   O3121043   2.809   0.376   6.907  0.3274  0.0332  0.3455
  184SOPE   C3121044   2.738   0.267   6.941 -0.1521  0.1402 -0.3189
  184SOPE   O3221045   2.776   0.156   6.915 -0.0136 -0.8669 -0.3233
  184SOPE   C3221046   2.611   0.309   7.012 -0.1389 -0.1275  0.4918
  184SOPE   H2X21047   2.545   0.368   6.945  0.7716  0.5778  0.1917
  184SOPE   H2Y21048   2.648   0.369   7.098  2.0408 -3.0540  1.7646
  184SOPE   C2321049   3.328   0.727   7.028  0.7580 -0.4070  0.0252
  184SOPE   H3R21050   3.298   0.828   6.992  0.0586 -1.5191 -2.7907
  184SOPE   H3S21051   3.384   0.677   6.945 -0.4908 -0.2183 -0.9574
  184SOPE   C2421052   3.410   0.747   7.151 -0.5087 -0.6662  0.6013
  184SOPE   H4R21053   3.413   0.650   7.205 -1.4011 -0.2482  1.4132
  184SOPE   H4S21054   3.513   0.770   7.117 -0.3911 -0.9407  0.7670
  184SOPE   C2521055   3.353   0.847   7.255 -0.3017  0.0143 -0.5245
  184SOPE   H5R21056   3.329   0.944   7.207 -0.1202  0.8062  0.9181
  184SOPE   H5S21057   3.255   0.812   7.294  0.5242 -1.0098  0.7034
  184SOPE   C2621058   3.455   0.875   7.371 -0.3871  0.6565  0.5930
  184SOPE   H6R21059   3.545   0.910   7.315 -2.1834  4.6649 -0.1449
  184SOPE   H6S21060   3.426   0.967   7.426  1.3212  0.6327  1.6332
  184SOPE   C2721061   3.475   0.756   7.465 -0.0612 -0.8700 -0.3002
  184SOPE   H7R21062   3.382   0.711   7.504  0.2844 -0.6311  0.8352
  184SOPE   H7S21063   3.545   0.681   7.423 -1.1363 -0.9862 -1.9798
  184SOPE   C2821064   3.537   0.810   7.597 -0.1979  0.0297 -0.2128
  184SOPE   H8R21065   3.631   0.865   7.577  0.4519 -0.3269  1.6274
  184SOPE   H8S21066   3.461   0.885   7.629  0.1386  1.0851 -1.7944
  184SOPE   C2921067   3.562   0.704   7.702 -0.0248 -0.7539 -0.3928
  184SOPE   H9121068   3.663   0.660   7.704  1.1119  1.6394 -1.5200
  184SOPE  C21021069   3.472   0.655   7.797 -0.1137 -0.3598  0.2527
  184SOPE  H10121070   3.494   0.572   7.866 -2.5110  1.4704  3.4656
  184SOPE  C21121071   3.330   0.703   7.827  0.5787  0.5038 -0.1077
  184SOPE  H11R21072   3.309   0.790   7.761 -0.0003 -1.5485 -2.8194
  184SOPE  H11S21073   3.329   0.740   7.932 -0.5212  0.7082 -0.1796
  184SOPE  C21221074   3.226   0.594   7.821 -0.5840 -0.0896 -0.3203
  184SOPE  H12R21075   3.135   0.642   7.863  0.6712  1.9203  0.2315
  184SOPE  H12S21076   3.254   0.507   7.884 -0.8765  0.2555  0.2903
  184SOPE  C21321077   3.209   0.543   7.681  0.4320 -0.1166  0.4444
  184SOPE  H13R21078   3.156   0.445   7.685 -1.4000  0.8805  2.5577
  184SOPE  H13S21079   3.309   0.529   7.634  0.5965 -0.5785  0.9185
  184SOPE  C21421080   3.125   0.641   7.589  0.1183  0.2928  0.8348
  184SOPE  H14R21081   3.186   0.734   7.580 -0.3378  0.5412  0.2193
  184SOPE  H14S21082   3.023   0.665   7.625 -0.3678  0.1481 -0.3908
  184SOPE  C21521083   3.102   0.594   7.436 -0.5958 -0.0250  0.5515
  184SOPE  H15R21084   3.209   0.594   7.405 -0.4555  0.9110  1.0167
  184SOPE  H15S21085   3.033   0.673   7.400 -1.4902 -0.3392  1.5223
  184SOPE  C21621086   3.041   0.459   7.421  0.5809 -0.1224  0.4784
  184SOPE  H16R21087   2.953   0.454   7.488  0.3951 -2.0407  0.1374
  184SOPE  H16S21088   3.116   0.384   7.455  0.0251 -1.6171 -1.3975
  184SOPE  C21721089   3.005   0.422   7.277 -0.6717  0.2529  0.6826
  184SOPE  H17R21090   3.091   0.427   7.207 -0.7825 -0.5646  0.4707
  184SOPE  H17S21091   2.926   0.493   7.245 -1.5400  0.5466  3.2500
  184SOPE  C21821092   2.955   0.275   7.264  0.3263 -0.0757 -0.1105
  184SOPE  H18R21093   2.874   0.256   7.337  0.4979 -0.0364  0.0894
  184SOPE  H18S21094   3.035   0.197   7.271 -0.5191 -0.9530 -0.0613
  184SOPE  H18T21095   2.910   0.266   7.163 -0.1580  0.1273  0.0881
  184SOPE   C3321096   2.533   0.183   7.068  0.2265 -0.2159  0.4223
  184SOPE   H3X21097   2.527   0.109   6.986 -0.6778  0.3441 -0.0271
  184SOPE   H3Y21098   2.426   0.205   7.089  0.1070  0.8829 -1.2114
  184SOPE   C3421099   2.594   0.129   7.201  0.2016  0.2834  0.1433
  184SOPE   H4X21100   2.704   0.115   7.206  0.2471 -0.5638 -2.1487
  184SOPE   H4Y21101   2.552   0.027   7.214  2.6418 -0.9691 -1.1203
  184SOPE   C3521102   2.559   0.208   7.324  0.6144 -0.5650 -1.0639
  184SOPE   H5X21103   2.449   0.205   7.337  0.5392  0.0825 -1.5134
  184SOPE   H5Y21104   2.587   0.315   7.315  0.2714 -0.2785  0.8341
  184SOPE   C3621105   2.623   0.141   7.443 -0.0009 -0.7582  0.1745
  184SOPE   H6X21106   2.722   0.099   7.417 -1.2078 -2.6108 -1.8348
  184SOPE   H6Y21107   2.568   0.052   7.484 -0.2054 -0.8003 -0.1863
  184SOPE   C3721108   2.645   0.237   7.557  0.2414 -0.4743  0.3839
  184SOPE   H7X21109   2.554   0.279   7.606  0.0602 -1.7478  1.2026
  184SOPE   H7Y21110   2.700   0.321   7.509 -1.0437 -0.3190 -0.8792
  184SOPE   C3821111   2.732   0.189   7.664 -0.0240  0.8747 -0.4949
  184SOPE   H8X21112   2.832   0.157   7.627  0.8210  1.8285  0.8568
  184SOPE   H8Y21113   2.689   0.096   7.708  0.2710  0.4320 -1.1233
  184SOPE   C3921114   2.758   0.282   7.779 -0.0335 -0.9161 -0.4864
  184SOPE   H9X21115   2.671   0.282   7.848 -2.1981  0.4369 -3.0121
  184SOPE   H9Y21116   2.762   0.382   7.729 -1.0583 -0.3127  0.5732
  184SOPE  C31021117   2.889   0.254   7.851 -0.5244  0.1340  0.3629
  184SOPE  H10X21118   2.971   0.256   7.776 -2.4485 -0.4370 -1.8878
  184SOPE  H10Y21119   2.897   0.148   7.884  1.8096  0.5463  1.3134
  184SOPE  C31121120   2.919   0.346   7.973  0.9591 -0.1388  0.0719
  184SOPE  H11X21121   2.833   0.333   8.043 -0.0877  0.2135 -1.1117
  184SOPE  H11Y21122   2.913   0.453   7.946  0.7257 -1.0528 -4.1148
  184SOPE  C31221123   3.042   0.300   8.047  0.3671  0.5504 -0.2622
  184SOPE  H12X21124   3.121   0.315   7.970 -0.0466 -3.9904 -1.8250
  184SOPE  H12Y21125   3.034   0.191   8.066  0.5637  0.2017 -2.0562
  184SOPE  C31321126   3.071   0.364   8.190  0.3871  0.4956  0.6362
  184SOPE  H13X21127   2.986   0.337   8.257 -1.2078  2.7924 -0.3567
  184SOPE  H13Y21128   3.070   0.474   8.180  2.5932  0.3879 -2.1160
  184SOPE  C31421129   3.203   0.313   8.248  0.4482  0.2338 -0.6546
  184SOPE  H14X21130   3.211   0.202   8.250  0.0408  0.2091 -0.0438
  184SOPE  H14Y21131   3.201   0.347   8.354  0.2585 -0.8399 -0.2965
  184SOPE  C31521132   3.323   0.374   8.178 -0.5209 -0.5387  0.0095
  184SOPE  H15X21133   3.339   0.471   8.228  0.3912 -0.3364 -0.6606
  184SOPE  H15Y21134   3.305   0.390   8.069 -0.9406  3.8176  0.5418
  184SOPE  C31621135   3.445   0.279   8.205 -0.2972  0.0623 -0.0472
  184SOPE  H16X21136   3.418   0.172   8.186 -0.1541  0.4064 -2.4605
  184SOPE  H16Y21137   3.461   0.272   8.315 -1.4047 -1.3321  0.0514
  184SOPE  C31721138   3.572   0.322   8.129  0.6675  0.1339 -0.5158
  184SOPE  H17X21139   3.553   0.303   8.021 -1.4447 -2.3483  0.1947
  184SOPE  H17Y21140   3.645   0.246   8.163  0.8397  0.3666 -0.3615
  184SOPE  C31821141   3.634   0.460   8.146  0.8106 -0.2922 -0.5128
  184SOPE  H18X21142   3.696   0.475   8.056  1.0833 -0.1533 -0.3010
  184SOPE  H18Y21143   3.700   0.456   8.235 -1.3677 -1.4571  1.1580
  184SOPE  H18Z21144   3.569   0.549   8.156 -0.1458 -0.8968 -1.1545
  185SAPI   C1221145   5.012   6.765  11.104 -0.2766  0.6059  0.0200
  185SAPI    H221146   4.996   6.860  11.050  1.0777 -0.3275 -2.1287
  185SAPI    O221147   5.101   6.689  11.019  0.6627 -0.2589  0.1926
  185SAPI   HO221148   5.073   6.698  10.927  0.9396  1.4991  0.2483
  185SAPI   C1321149   5.068   6.790  11.239 -0.5207 -0.2471  0.2517
  185SAPI    H321150   4.994   6.839  11.305  0.0351 -1.4646  1.8573
  185SAPI    O321151   5.190   6.868  11.243 -0.3952 -0.0974  0.3743
  185SAPI   HO321152   5.247   6.839  11.172 -1.2746  0.0027 -0.3783
  185SAPI   C1421153   5.091   6.645  11.302  0.1911  0.2030  0.2638
  185SAPI    H421154   5.164   6.586  11.242 -0.2206 -0.7027  0.6379
  185SAPI    O421155   5.156   6.657  11.424  0.5254  0.6063  0.2506
  185SAPI   HO421156   5.204   6.740  11.413  0.1716  0.5525 -2.4739
  185SAPI   C1521157   4.965   6.565  11.317  0.2643  0.6023  0.7375
  185SAPI    H521158   4.899   6.632  11.376  2.2602  3.4846 -0.0958
  185SAPI    O521159   4.985   6.432  11.363  0.0149  0.5431 -0.6222
  185SAPI   HO521160   4.918   6.414  11.430  1.4963 -1.4132  0.4240
  185SAPI   C1621161   4.898   6.565  11.182 -0.1400 -0.4145  0.2144
  185SAPI    H621162   4.950   6.496  11.113  2.9188  2.7600 -0.9898
  185SAPI    O621163   4.766   6.521  11.196 -0.1512  0.4528 -0.2575
  185SAPI   HO621164   4.724   6.548  11.114  1.7104  2.1494 -0.7338
  185SAPI   C1121165   4.878   6.699  11.118  0.1155 -0.5033 -0.2965
  185SAPI    H121166   4.813   6.761  11.184 -0.2803  0.4523 -1.5566
  185SAPI     P21167   4.717   6.801  10.933 -0.2488  0.1800 -0.2022
  185SAPI   O1321168   4.788   6.925  10.904 -0.0553  0.2496  0.0748
  185SAPI   O1421169   4.615   6.813  11.041 -0.7491  0.1094 -0.5990
  185SAPI   O1221170   4.827   6.690  10.985 -0.0419 -0.2465  0.2433
  185SAPI   O1121171   4.657   6.732  10.801  0.2216 -0.1287  0.5796
  185SAPI    C121172   4.745   6.722  10.687  0.1098 -0.0883 -0.7249
  185SAPI    HA21173   4.841   6.773  10.708  2.6136 -3.7860 -2.1068
  185SAPI    HB21174   4.776   6.616  10.670  4.3215  1.1636 -1.9145
  185SAPI    C221175   4.683   6.783  10.557 -0.2067 -0.2784 -0.3758
  185SAPI    HS21176   4.738   6.730  10.476  0.7378  1.8987 -1.2526
  185SAPI   O2121177   4.692   6.927  10.554 -0.7309 -0.0481 -0.4025
  185SAPI   C2121178   4.813   6.989  10.552 -0.3399 -0.2179 -0.3854
  185SAPI   O2221179   4.921   6.930  10.556 -0.6614  0.5039 -0.1913
  185SAPI   C2221180   4.786   7.139  10.565 -0.0491  0.4172 -0.6987
  185SAPI   H2R21181   4.683   7.165  10.595 -0.8138 -2.9245  0.0464
  185SAPI   H2S21182   4.854   7.174  10.646 -0.4889 -2.1678  0.9007
  185SAPI    C321183   4.535   6.749  10.542 -0.4045 -0.2313 -0.3486
  185SAPI    HX21184   4.471   6.829  10.583 -0.3146  0.1282 -0.9068
  185SAPI    HY21185   4.510   6.655  10.597  0.3341  0.6454  1.5812
  185SAPI   O3121186   4.512   6.724  10.403 -0.3326  0.4396  0.8301
  185SAPI   C3121187   4.444   6.809  10.340  0.6087  0.5683  0.0995
  185SAPI   O3221188   4.377   6.899  10.385 -0.2183  0.6287  0.3457
  185SAPI   C3221189   4.444   6.772  10.189  0.1983  0.1988  0.1647
  185SAPI   H2X21190   4.433   6.662  10.175  3.6205 -0.3307  0.7050
  185SAPI   H2Y21191   4.537   6.806  10.138  0.3208  0.7878  0.7654
  185SAPI   C2321192   4.827   7.196  10.429  0.2115  0.2088 -0.3754
  185SAPI   H3R21193   4.933   7.167  10.414  0.0197 -1.3623  1.1030
  185SAPI   H3S21194   4.810   7.306  10.439 -0.8836 -0.1549  3.6878
  185SAPI   C2421195   4.751   7.141  10.303 -0.7585  0.3374  0.1347
  185SAPI   H4R21196   4.755   7.030  10.310  1.7500  0.1850 -2.0934
  185SAPI   H4S21197   4.813   7.164  10.213 -0.3779  1.3433  0.6323
  185SAPI   C2521198   4.611   7.182  10.289 -0.2761 -0.3377  0.0145
  185SAPI   H5R21199   4.562   7.243  10.366 -3.3441 -1.6753 -0.7019
  185SAPI   C2621200   4.544   7.168  10.170  0.4223 -0.6637  0.4218
  185SAPI   H6R21201   4.439   7.181  10.197  0.7243  0.0701  1.2994
  185SAPI   C2721202   4.599   7.104  10.046  0.3587  0.9035 -0.2490
  185SAPI   H7R21203   4.559   7.002  10.027  0.8586  0.5268  0.6224
  185SAPI   H7S21204   4.706   7.073  10.043  0.9411  2.6494  0.8871
  185SAPI   C2821205   4.561   7.192   9.932 -0.3560 -0.2948  0.1846
  185SAPI   H8R21206   4.546   7.298   9.957  2.3174  0.3243 -0.5180
  185SAPI   C2921207   4.559   7.153   9.801 -0.2328 -0.2653 -0.4743
  185SAPI   H9R21208   4.552   7.232   9.725 -0.0433 -0.2813 -0.5086
  185SAPI  C21021209   4.589   7.014   9.741  0.3126  0.0322 -0.3854
  185SAPI  H10R21210   4.497   6.979   9.691  0.4641 -0.5180 -0.2829
  185SAPI  H10S21211   4.611   6.945   9.826 -1.3793 -0.1842 -0.1010
  185SAPI  C21121212   4.704   7.003   9.644  0.6050  0.4672 -0.1653
  185SAPI  H11R21213   4.802   7.011   9.692 -0.3197  1.7064  1.6121
  185SAPI  C21221214   4.681   7.003   9.508 -0.4335 -0.6391  0.5019
  185SAPI  H12R21215   4.769   6.999   9.441 -0.5309  2.0428  0.0939
  185SAPI  C21321216   4.546   7.003   9.432 -0.8487 -0.2369 -0.3578
  185SAPI  H13R21217   4.466   7.049   9.495  0.2393 -1.5310  2.1393
  185SAPI  H13S21218   4.524   6.897   9.407 -0.5419 -0.0995 -1.2313
  185SAPI  C21421219   4.573   7.083   9.306 -0.5402 -0.1888 -0.2145
  185SAPI  H14R21220   4.545   7.189   9.316  1.2067  0.2083  0.8542
  185SAPI  C21521221   4.636   7.041   9.192  0.7424  0.5285 -0.6665
  185SAPI  H15R21222   4.646   7.114   9.110  0.9706  1.2322 -0.0284
  185SAPI  C21621223   4.708   6.911   9.171 -0.2333 -0.2746 -0.2406
  185SAPI  H16R21224   4.649   6.848   9.101  1.5551 -0.4641 -1.6647
  185SAPI  H16S21225   4.718   6.859   9.268  1.2417 -0.0146 -0.2385
  185SAPI  C21721226   4.853   6.910   9.117 -0.3064 -0.3212 -0.1974
  185SAPI  H17R21227   4.906   6.815   9.135  1.7108  0.5622 -1.1265
  185SAPI  H17S21228   4.919   6.987   9.162  1.9592 -2.8955  1.1875
  185SAPI  C21821229   4.865   6.942   8.970 -0.2690 -0.0105 -0.8439
  185SAPI  H18R21230   4.843   7.049   8.952  1.1558  0.3774 -0.4356
  185SAPI  H18S21231   4.791   6.881   8.914 -0.1051 -0.4759 -0.5652
  185SAPI  C21921232   5.013   6.903   8.926 -0.4957 -0.7634  0.3489
  185SAPI  H19R21233   5.064   6.816   8.972  0.3980 -1.3094 -1.5648
  185SAPI  H19S21234   5.074   6.991   8.956  0.1675 -0.7432 -0.9812
  185SAPI  C22021235   5.037   6.881   8.776 -0.3255 -0.5298  0.8078
  185SAPI  H20R21236   5.012   6.968   8.711  0.8313 -1.6757 -1.2750
  185SAPI  H20S21237   4.963   6.805   8.742 -1.1809  0.3440  0.6574
  185SAPI  H20T21238   5.142   6.864   8.746  0.1986 -1.1203  2.8201
  185SAPI   C3321239   4.331   6.834  10.104 -0.5340 -0.1396  0.2295
  185SAPI   H3X21240   4.328   6.943  10.122 -0.8967  0.1759 -1.5962
  185SAPI   H3Y21241   4.230   6.792  10.126 -0.7153 -0.0838 -0.4576
  185SAPI   C3421242   4.354   6.815   9.959 -0.8584 -0.0793  0.1459
  185SAPI   H4X21243   4.456   6.839   9.921 -0.7372  0.9434  1.0733
  185SAPI   H4Y21244   4.281   6.883   9.909 -2.6205 -1.3923  0.8621
  185SAPI   C3521245   4.330   6.684   9.900  0.2750  0.4469 -0.0972
  185SAPI   H5X21246   4.225   6.652   9.919  0.4102  0.4465  0.7209
  185SAPI   H5Y21247   4.386   6.606   9.956 -1.4379 -0.1737  0.8494
  185SAPI   C3621248   4.369   6.665   9.746  0.7415  0.2533 -0.6637
  185SAPI   H6X21249   4.386   6.556   9.735  0.9735 -0.1465  2.6262
  185SAPI   H6Y21250   4.462   6.721   9.721  1.2496 -0.2357  0.0887
  185SAPI   C3721251   4.247   6.705   9.670 -0.2288  0.4620 -0.9359
  185SAPI   H7X21252   4.227   6.812   9.693  1.6303  0.6023  0.2426
  185SAPI   H7Y21253   4.157   6.658   9.715 -0.4091  0.1772 -1.5775
  185SAPI   C3821254   4.248   6.678   9.521  0.1340  0.3242  0.2393
  185SAPI   H8X21255   4.274   6.572   9.497 -1.6405 -0.1902  0.4892
  185SAPI   H8Y21256   4.326   6.740   9.471  2.0653 -0.2166  2.3838
  185SAPI   C3921257   4.111   6.705   9.458  0.7933 -0.3706  0.4547
  185SAPI   H9X21258   4.081   6.797   9.512  2.1497 -0.6193  1.6834
  185SAPI   H9Y21259   4.044   6.626   9.498 -2.0710  2.5607  1.8851
  185SAPI  C31021260   4.114   6.716   9.300 -0.2218 -0.1920 -0.3038
  185SAPI  H10X21261   4.143   6.613   9.270 -0.0896 -0.6178  1.2112
  185SAPI  H10Y21262   4.189   6.793   9.274  1.1095 -2.0285 -2.2755
  185SAPI  C31121263   3.983   6.747   9.229  0.6095  0.1910  0.2786
  185SAPI  H11X21264   4.010   6.743   9.121 -1.4603 -1.1805 -0.2480
  185SAPI  H11Y21265   3.951   6.849   9.260 -0.9831 -0.2558  0.2094
  185SAPI  C31221266   3.865   6.658   9.273  0.5538  0.1590 -0.0855
  185SAPI  H12X21267   3.825   6.669   9.376  2.4082 -0.0997  0.6859
  185SAPI  H12Y21268   3.889   6.550   9.264  1.9360  0.3548  0.9307
  185SAPI  C31321269   3.737   6.692   9.192 -0.1951  0.0502  0.0131
  185SAPI  H13X21270   3.699   6.795   9.211 -1.1869 -0.4314  0.7707
  185SAPI  H13Y21271   3.653   6.624   9.219 -0.4980 -0.4177 -1.9860
  185SAPI  C31421272   3.744   6.673   9.040  0.0376 -0.0034  0.3899
  185SAPI  H14X21273   3.784   6.571   9.029 -1.5189 -0.5803 -0.2552
  185SAPI  H14Y21274   3.819   6.747   9.005  0.9704 -1.0716  0.0762
  185SAPI  C31521275   3.608   6.684   8.971 -0.6687  0.2189  0.1035
  185SAPI  H15X21276   3.580   6.792   8.974 -3.0332 -0.3435  0.6516
  185SAPI  H15Y21277   3.534   6.632   9.036 -1.5599 -0.8526 -1.6925
  185SAPI  C31621278   3.615   6.637   8.826  0.0222 -0.0496  0.2452
  185SAPI  H16X21279   3.629   6.527   8.818 -1.1524 -0.2879  1.2834
  185SAPI  H16Y21280   3.698   6.681   8.766 -0.2062 -1.9436 -1.5930
  185SAPI  C31721281   3.479   6.671   8.752 -0.4277 -0.4402 -0.9415
  185SAPI  H17X21282   3.397   6.656   8.825  0.6575  2.7261  1.1441
  185SAPI  H17Y21283   3.469   6.604   8.664 -0.5212  0.4722 -1.6309
  185SAPI  C31821284   3.468   6.818   8.700 -0.6957 -0.5365  0.0499
  185SAPI  H18X21285   3.544   6.830   8.620 -3.5257 -1.1453 -2.9017
  185SAPI  H18Y21286   3.484   6.885   8.788 -3.6118 -0.8678  0.9446
  185SAPI  H18Z21287   3.366   6.839   8.662 -0.5119 -2.5717 -1.7214
  186SAPI   C1221288   6.186   4.120  10.751  0.3576  0.4464  0.3611
  186SAPI    H221289   6.140   4.082  10.657  1.6282 -0.4864  0.0856
  186SAPI    O221290   6.115   4.231  10.799  0.0204  0.0634  0.8107
  186SAPI   HO221291   6.140   4.306  10.744  2.2638 -0.5325  0.8882
  186SAPI   C1321292   6.188   4.006  10.856 -0.6582  0.1912 -0.2064
  186SAPI    H321293   6.238   3.922  10.804 -0.5892 -0.1790  0.4432
  186SAPI    O321294   6.060   3.967  10.900 -0.4747  0.1465 -0.2755
  186SAPI   HO321295   6.007   4.047  10.909 -2.2047 -1.0335  0.5757
  186SAPI   C1421296   6.275   4.046  10.973  0.2393 -0.1296  0.3009
  186SAPI    H421297   6.225   4.133  11.023  0.5422  0.1049  0.1998
  186SAPI    O421298   6.280   3.937  11.067  0.2104  0.1546  0.1874
  186SAPI   HO421299   6.337   3.870  11.028  0.3663 -0.3167  1.2189
  186SAPI   C1521300   6.416   4.089  10.928 -0.0551 -0.3756  0.0846
  186SAPI    H521301   6.451   3.999  10.874  0.2337 -0.0589 -0.2647
  186SAPI    O521302   6.504   4.112  11.043  0.1269 -0.4295  0.1530
  186SAPI   HO521303   6.528   4.205  11.046 -0.7043 -0.2133  0.3823
  186SAPI   C1621304   6.411   4.203  10.827  0.0631 -0.0800  0.0778
  186SAPI    H621305   6.368   4.294  10.874  0.8003  0.9864 -1.2240
  186SAPI    O621306   6.545   4.230  10.788  0.1333 -0.2600  0.0975
  186SAPI   HO621307   6.554   4.276  10.704  1.4392  0.5490  0.6614
  186SAPI   C1121308   6.326   4.155  10.702 -0.0140 -0.5326  0.8628
  186SAPI    H121309   6.372   4.065  10.656 -0.6532  0.4315 -1.8506
  186SAPI     P21310   6.409   4.257  10.465  0.2807 -0.2810 -0.0477
  186SAPI   O1321311   6.357   4.371  10.384  0.1609  0.1319  0.0512
  186SAPI   O1421312   6.418   4.124  10.401 -0.3252 -0.1215 -0.2976
  186SAPI   O1221313   6.318   4.254  10.602 -0.1265  0.4410 -0.1383
  186SAPI   O1121314   6.542   4.297  10.526 -0.1812  0.0826 -0.1534
  186SAPI    C121315   6.597   4.426  10.535  0.5854  0.3272  0.0951
  186SAPI    HA21316   6.525   4.508  10.557  0.0993 -0.2771  0.8185
  186SAPI    HB21317   6.656   4.421  10.629  2.5023  2.1310 -0.9337
  186SAPI    C221318   6.707   4.465  10.432 -0.2260 -0.2620  0.2508
  186SAPI    HS21319   6.742   4.567  10.457 -0.8103 -0.4453  1.9415
  186SAPI   O2121320   6.642   4.457  10.299  0.0566 -0.3334 -0.0110
  186SAPI   C2121321   6.579   4.563  10.258 -0.7128  0.3855  0.0168
  186SAPI   O2221322   6.570   4.664  10.323  0.4723 -0.1214  0.2678
  186SAPI   C2221323   6.526   4.544  10.114  0.6020  0.1636  0.1684
  186SAPI   H2R21324   6.595   4.481  10.053  3.4877  0.6290  2.6776
  186SAPI   H2S21325   6.434   4.484  10.135  1.3051 -0.3388  2.0628
  186SAPI    C321326   6.830   4.367  10.430  0.1722 -0.1682  0.0373
  186SAPI    HX21327   6.810   4.274  10.373  0.3426 -0.1420 -0.0662
  186SAPI    HY21328   6.849   4.331  10.533  0.5052  3.7343  1.4904
  186SAPI   O3121329   6.953   4.435  10.396  0.2694  0.4861 -0.8043
  186SAPI   C3121330   7.022   4.508  10.479  0.2443  0.4016 -0.0575
  186SAPI   O3221331   6.998   4.525  10.596  0.4324  0.3241 -0.0325
  186SAPI   C3221332   7.135   4.573  10.399  0.5355 -0.0330  0.2184
  186SAPI   H2X21333   7.230   4.522  10.426  0.9551  1.3966  1.5411
  186SAPI   H2Y21334   7.127   4.682  10.421  0.8488  0.3095 -1.2652
  186SAPI   C2321335   6.483   4.674  10.044  0.6013  0.2509  0.7660
  186SAPI   H3R21336   6.434   4.755  10.103  0.0431 -0.1975  0.9210
  186SAPI   H3S21337   6.398   4.639   9.982 -0.9888  3.8282  0.6591
  186SAPI   C2421338   6.596   4.740   9.965  0.5753 -0.1453 -0.2314
  186SAPI   H4R21339   6.662   4.678   9.901  0.1685  1.7989 -2.6665
  186SAPI   H4S21340   6.658   4.784  10.046  1.0014 -0.3584 -0.4385
  186SAPI   C2521341   6.548   4.853   9.884  0.5563 -0.1287  0.4979
  186SAPI   H5R21342   6.514   4.941   9.940  1.9861  0.6032  0.2440
  186SAPI   C2621343   6.559   4.875   9.751  0.1471  0.5657  0.6179
  186SAPI   H6R21344   6.538   4.973   9.707 -0.3697 -0.7070 -2.2288
  186SAPI   C2721345   6.625   4.773   9.655  0.2194  0.7902 -0.1619
  186SAPI   H7R21346   6.719   4.733   9.698  0.0143 -1.6508 -1.7865
  186SAPI   H7S21347   6.656   4.831   9.565  3.4707 -1.2596 -0.5292
  186SAPI   C2821348   6.540   4.652   9.618  0.3674 -0.3674  0.1090
  186SAPI   H8R21349   6.482   4.614   9.704  0.0153  1.0528  0.5426
  186SAPI   C2921350   6.501   4.610   9.495 -0.5266  0.0687  0.5595
  186SAPI   H9R21351   6.448   4.514   9.483 -1.5572  0.9052 -2.4132
  186SAPI  C21021352   6.540   4.672   9.363  0.4552  0.1604  0.1603
  186SAPI  H10R21353   6.550   4.782   9.378 -0.8051  0.4589 -1.0282
  186SAPI  H10S21354   6.451   4.656   9.300 -0.7862  0.9147  1.6525
  186SAPI  C21121355   6.677   4.629   9.309 -0.5294 -0.5417  0.0438
  186SAPI  H11R21356   6.763   4.609   9.375  0.4187  0.9801 -0.6749
  186SAPI  C21221357   6.700   4.626   9.175  1.4523 -0.3523  0.3172
  186SAPI  H12R21358   6.802   4.605   9.141  1.8145  0.2611  0.9724
  186SAPI  C21321359   6.595   4.660   9.067 -0.4383 -0.1049  0.3985
  186SAPI  H13R21360   6.649   4.720   8.991 -1.3767  0.4962  0.1925
  186SAPI  H13S21361   6.519   4.728   9.109  2.2985  2.7820  1.0333
  186SAPI  C21421362   6.533   4.528   9.008  0.7080 -0.4745  0.5661
  186SAPI  H14R21363   6.563   4.441   9.068  0.3220 -1.1214 -0.1794
  186SAPI  C21521364   6.476   4.511   8.889  0.9421  0.3991 -0.6704
  186SAPI  H15R21365   6.435   4.412   8.866  1.1229  0.5177 -1.5318
  186SAPI  C21621366   6.459   4.618   8.786  0.0439 -0.5375  0.3609
  186SAPI  H16R21367   6.478   4.724   8.815 -1.4232  0.7186 -2.7186
  186SAPI  H16S21368   6.353   4.635   8.756  0.4077  2.3898  0.4038
  186SAPI  C21721369   6.535   4.600   8.660  0.3595 -0.1991  0.2008
  186SAPI  H17R21370   6.531   4.495   8.624  0.5977 -0.7020  1.5611
  186SAPI  H17S21371   6.644   4.619   8.670  0.0165  2.8068 -0.6308
  186SAPI  C21821372   6.485   4.701   8.556 -0.5409 -0.1666 -0.1629
  186SAPI  H18R21373   6.498   4.808   8.582  1.0962 -0.4935  0.4716
  186SAPI  H18S21374   6.374   4.691   8.553 -0.6494  0.8004  0.2397
  186SAPI  C21921375   6.549   4.664   8.414  0.2806 -0.0973 -0.4557
  186SAPI  H19R21376   6.541   4.555   8.396 -0.4309 -0.3774  1.3540
  186SAPI  H19S21377   6.657   4.685   8.432 -0.1419  1.1875  0.7652
  186SAPI  C22021378   6.510   4.759   8.293  0.4625 -0.0511 -0.4219
  186SAPI  H20R21379   6.406   4.738   8.261  0.1880  0.0866  0.3630
  186SAPI  H20S21380   6.583   4.742   8.210 -1.6584 -0.2823 -2.3233
  186SAPI  H20T21381   6.515   4.864   8.328  0.1232 -0.5741  1.3008
  186SAPI   C3321382   7.133   4.552  10.244 -0.3132  0.0223  1.0432
  186SAPI   H3X21383   7.144   4.444  10.220 -1.0610  0.3222 -0.7997
  186SAPI   H3Y21384   7.226   4.597  10.203 -0.7472  0.5053  0.5801
  186SAPI   C3421385   7.015   4.623  10.167 -0.8642  0.7075  0.1083
  186SAPI   H4X21386   7.019   4.727  10.206 -0.6810  0.4800  0.7116
  186SAPI   H4Y21387   6.919   4.578  10.202 -0.0308 -1.5295 -0.3290
  186SAPI   C3521388   7.019   4.609  10.017 -0.2225  0.3942 -0.0932
  186SAPI   H5X21389   7.123   4.639   9.992  0.5533 -0.6356  1.7103
  186SAPI   H5Y21390   6.949   4.684   9.974 -1.3196 -0.5836 -0.0421
  186SAPI   C3621391   6.998   4.464   9.958  0.1892 -0.0817  0.0005
  186SAPI   H6X21392   6.891   4.434   9.959  0.3894 -0.9014 -0.8522
  186SAPI   H6Y21393   7.061   4.391  10.014 -0.6542 -0.3451  0.6294
  186SAPI   C3721394   7.042   4.450   9.811  0.1903  0.1636  0.0823
  186SAPI   H7X21395   7.018   4.348   9.771  2.0035  0.0175 -0.7568
  186SAPI   H7Y21396   7.151   4.465   9.798  0.2650  0.2370  0.7561
  186SAPI   C3821397   6.958   4.549   9.717  0.6877 -0.3621 -0.6180
  186SAPI   H8X21398   6.986   4.644   9.766  0.6850 -1.4796  1.6919
  186SAPI   H8Y21399   6.847   4.537   9.716  0.7776 -1.2649 -1.0490
  186SAPI   C3921400   7.018   4.565   9.571 -0.1211  0.4456  0.6971
  186SAPI   H9X21401   7.123   4.599   9.583  0.5611 -1.6885  1.3685
  186SAPI   H9Y21402   6.955   4.632   9.510  0.0791 -0.9254 -1.0802
  186SAPI  C31021403   7.042   4.430   9.504  0.8009 -0.6690  0.5065
  186SAPI  H10X21404   6.947   4.372   9.510  0.3478  0.0870  0.7277
  186SAPI  H10Y21405   7.121   4.375   9.560  1.5636  0.3108  0.4038
  186SAPI  C31121406   7.072   4.440   9.351 -0.5739 -0.3539  0.4521
  186SAPI  H11X21407   7.177   4.474   9.343  0.0550 -1.9098  1.5566
  186SAPI  H11Y21408   7.011   4.517   9.300  0.2962 -0.4033 -0.7067
  186SAPI  C31221409   7.041   4.315   9.267 -0.0836  0.1305  0.5565
  186SAPI  H12X21410   6.936   4.280   9.281  0.4233 -1.0037  1.7630
  186SAPI  H12Y21411   7.112   4.234   9.297  0.3697  0.3435  0.0709
  186SAPI  C31321412   7.069   4.320   9.116  0.7293  0.1222 -0.3211
  186SAPI  H13X21413   7.009   4.403   9.072 -0.9389 -0.9474 -0.1340
  186SAPI  H13Y21414   7.025   4.230   9.069  2.2733  0.7771 -3.2451
  186SAPI  C31421415   7.219   4.313   9.073  0.4723  0.2718  0.0107
  186SAPI  H14X21416   7.247   4.210   9.102  1.3246  0.0926 -1.3673
  186SAPI  H14Y21417   7.272   4.396   9.125 -0.3551 -0.0529  1.4412
  186SAPI  C31521418   7.238   4.323   8.915 -0.6186  0.6898 -0.7082
  186SAPI  H15X21419   7.188   4.422   8.908 -2.9468 -0.3316  0.4213
  186SAPI  H15Y21420   7.173   4.243   8.874  1.0731 -0.3442 -1.5253
  186SAPI  C31621421   7.383   4.342   8.858  0.8744  0.4819 -0.8328
  186SAPI  H16X21422   7.421   4.239   8.838 -2.0144 -1.3838  2.2259
  186SAPI  H16Y21423   7.442   4.389   8.939  0.3324 -0.0332 -0.1212
  186SAPI  C31721424   7.373   4.432   8.739 -0.2102  0.1309 -0.5023
  186SAPI  H17X21425   7.475   4.436   8.695  0.2950  1.5794  0.7241
  186SAPI  H17Y21426   7.358   4.536   8.774 -0.2204 -0.0086 -0.0811
  186SAPI  C31821427   7.282   4.386   8.625  0.3353 -0.7372 -0.6586
  186SAPI  H18X21428   7.305   4.282   8.593  0.2184 -1.1724  0.6233
  186SAPI  H18Y21429   7.312   4.458   8.545  2.0864  1.1159  1.5071
  186SAPI  H18Z21430   7.172   4.387   8.636  0.3566 -1.8694 -0.2092
  187SAPI   C1221431   2.733   2.687   6.301  0.9606  0.2767  1.0002
  187SAPI    H221432   2.699   2.718   6.402 -1.3022  1.7153 -0.0957
  187SAPI    O221433   2.853   2.756   6.280  0.3224  0.6567  0.2141
  187SAPI   HO221434   2.832   2.839   6.323 -4.0904  1.0595 -2.1726
  187SAPI   C1321435   2.752   2.540   6.279 -0.7719  0.5133 -0.2268
  187SAPI    H321436   2.658   2.488   6.306 -0.8704  0.7449 -0.1216
  187SAPI    O321437   2.856   2.488   6.361  0.1174  0.8345 -0.4004
  187SAPI   HO321438   2.810   2.442   6.432  2.3002  1.1606  1.3466
  187SAPI   C1421439   2.777   2.514   6.131 -0.0339 -0.7897 -0.0265
  187SAPI    H421440   2.868   2.575   6.109 -0.1869  0.0605  1.5453
  187SAPI    O421441   2.816   2.376   6.109  0.4094 -0.2806  0.0345
  187SAPI   HO421442   2.809   2.336   6.196  0.5613 -0.8831 -0.2338
  187SAPI   C1521443   2.660   2.565   6.043 -0.2086  0.2191 -0.6900
  187SAPI    H521444   2.563   2.521   6.073 -1.0533  1.9505 -0.7589
  187SAPI    O521445   2.682   2.526   5.905 -0.0336  0.3615 -0.9248
  187SAPI   HO521446   2.663   2.432   5.897  0.2617  0.2318 -0.2041
  187SAPI   C1621447   2.647   2.716   6.064  0.2008 -0.1167  0.3528
  187SAPI    H621448   2.742   2.771   6.047  0.2191 -0.0664  0.6066
  187SAPI    O621449   2.543   2.773   5.980  0.7599 -0.2744 -0.2258
  187SAPI   HO621450   2.462   2.726   6.002  0.3580  0.8319  0.7501
  187SAPI   C1121451   2.619   2.745   6.210 -0.2059  0.0139 -0.2914
  187SAPI    H121452   2.529   2.683   6.233  0.3621 -0.2329  1.4491
  187SAPI     P21453   2.462   2.940   6.300  0.0723  0.2504  0.4917
  187SAPI   O1321454   2.350   2.843   6.278 -0.1681 -0.1510 -0.3673
  187SAPI   O1421455   2.436   3.077   6.253 -0.1852  0.3577 -1.1476
  187SAPI   O1221456   2.606   2.887   6.233 -0.4873  0.2277 -0.0198
  187SAPI   O1121457   2.493   2.929   6.453 -0.2044 -0.3921  0.1777
  187SAPI    C121458   2.554   3.038   6.525 -0.1376  0.2958  0.7417
  187SAPI    HA21459   2.640   3.080   6.469  2.3714 -2.3054  2.3622
  187SAPI    HB21460   2.473   3.114   6.533  0.4443  1.6403 -3.5486
  187SAPI    C221461   2.604   2.997   6.660 -0.0062  0.0091  0.2638
  187SAPI    HS21462   2.666   2.905   6.657 -0.2514 -0.1320 -0.9052
  187SAPI   O2121463   2.487   2.984   6.742 -0.0561 -0.3482  0.1606
  187SAPI   C2121464   2.477   2.870   6.804  0.1109 -0.3519 -0.3699
  187SAPI   O2221465   2.562   2.783   6.800 -0.5553  0.2596  0.1300
  187SAPI   C2221466   2.340   2.846   6.862  0.5379 -0.0998 -0.2304
  187SAPI   H2R21467   2.286   2.942   6.845 -0.2930 -0.2265  1.4918
  187SAPI   H2S21468   2.299   2.767   6.796 -0.4727 -0.0231  0.2760
  187SAPI    C321469   2.705   3.107   6.721 -0.0784  0.7247  0.0753
  187SAPI    HX21470   2.654   3.206   6.716 -0.5842  0.4709  0.1557
  187SAPI    HY21471   2.786   3.121   6.645  0.7116  0.5881  0.8769
  187SAPI   O3121472   2.759   3.077   6.851 -0.4709 -0.0760  0.6468
  187SAPI   C3121473   2.695   3.125   6.957  0.5036 -0.2277 -0.1818
  187SAPI   O3221474   2.589   3.181   6.951  0.1161  0.4748 -0.2899
  187SAPI   C3221475   2.768   3.093   7.085  0.2014  0.5089  0.7381
  187SAPI   H2X21476   2.869   3.131   7.057 -0.8769  1.9306 -1.4612
  187SAPI   H2Y21477   2.787   2.984   7.101 -1.3463  0.1009 -0.0082
  187SAPI   C2321478   2.338   2.792   7.005  0.4557 -0.3638 -0.8344
  187SAPI   H3R21479   2.378   2.688   7.012  1.0641 -0.0977 -0.3104
  187SAPI   H3S21480   2.232   2.764   7.025  0.6701 -0.8021 -0.2847
  187SAPI   C2421481   2.387   2.886   7.113  0.4119  0.1626 -0.2486
  187SAPI   H4R21482   2.487   2.920   7.078  0.3226  0.0878 -0.5753
  187SAPI   H4S21483   2.399   2.823   7.204 -0.0119  0.6093  0.1169
  187SAPI   C2521484   2.297   3.006   7.136  0.3901 -0.0915 -0.1598
  187SAPI   H5R21485   2.302   3.080   7.055 -0.3244  0.0667 -0.0607
  187SAPI   C2621486   2.208   3.027   7.240 -0.0752  0.1182 -0.9857
  187SAPI   H6R21487   2.141   3.113   7.232  0.8069  1.0611  1.0303
  187SAPI   C2721488   2.191   2.927   7.349 -0.1135  0.1074 -0.3587
  187SAPI   H7R21489   2.291   2.908   7.396 -0.2846  1.7544  0.7489
  187SAPI   H7S21490   2.151   2.833   7.305 -1.6992  1.1545 -1.2045
  187SAPI   C2821491   2.128   2.984   7.469  0.3341  0.3940  0.1636
  187SAPI   H8R21492   2.137   3.093   7.481  3.1334  0.0023  2.7590
  187SAPI   C2921493   2.070   2.912   7.565  1.0072  0.0760  0.0613
  187SAPI   H9R21494   2.021   2.967   7.647  1.7173 -1.5623  1.6494
  187SAPI  C21021495   2.042   2.759   7.568 -0.1277 -0.9383  0.5246
  187SAPI  H10R21496   2.130   2.700   7.534  1.1742  0.1491  1.8556
  187SAPI  H10S21497   1.969   2.736   7.488  1.7806  3.1080 -2.7645
  187SAPI  C21121498   2.013   2.697   7.702 -0.2552 -0.5952 -0.2516
  187SAPI  H11R21499   2.066   2.754   7.780 -0.6612  3.3467 -2.5442
  187SAPI  C21221500   1.925   2.601   7.736 -0.1152 -0.6430  0.1184
  187SAPI  H12R21501   1.925   2.554   7.836 -1.3297  2.2094  1.5996
  187SAPI  C21321502   1.821   2.547   7.637 -0.3737  0.6817 -0.1165
  187SAPI  H13R21503   1.800   2.614   7.550 -2.5101 -1.9098 -1.7557
  187SAPI  H13S21504   1.715   2.527   7.665  0.1278 -2.3343 -0.1144
  187SAPI  C21421505   1.880   2.430   7.581 -0.1002 -0.0393 -0.0780
  187SAPI  H14R21506   1.949   2.379   7.650  0.6818  0.0438 -0.7879
  187SAPI  C21521507   1.871   2.385   7.453  0.3466  0.2304  0.2077
  187SAPI  H15R21508   1.931   2.299   7.419  0.7594  0.4662  0.3336
  187SAPI  C21621509   1.795   2.450   7.346 -0.5640  0.2293  0.9739
  187SAPI  H16R21510   1.713   2.516   7.382  0.8287  2.1463  0.7414
  187SAPI  H16S21511   1.746   2.364   7.294  0.2259 -0.3126  1.1047
  187SAPI  C21721512   1.875   2.523   7.233  0.0794 -0.6074 -0.3230
  187SAPI  H17R21513   1.938   2.599   7.285 -2.1179  0.1225  1.4443
  187SAPI  H17S21514   1.802   2.572   7.166 -0.3146 -0.2200  0.3821
  187SAPI  C21821515   1.975   2.441   7.139 -0.1019 -0.2722 -0.2950
  187SAPI  H18R21516   1.900   2.379   7.086 -1.1410 -2.0281  2.9055
  187SAPI  H18S21517   2.036   2.364   7.192  0.9945 -1.3068 -2.8806
  187SAPI  C21921518   2.074   2.519   7.049  0.3388  0.1463  0.2403
  187SAPI  H19R21519   2.136   2.588   7.109  0.3531  0.0391  0.3480
  187SAPI  H19S21520   2.012   2.588   6.988  0.6260 -0.1253 -0.3698
  187SAPI  C22021521   2.182   2.439   6.968  0.7910 -0.3296  0.2267
  187SAPI  H20R21522   2.237   2.507   6.900  2.6095 -1.8711  0.0599
  187SAPI  H20S21523   2.146   2.356   6.904 -0.5452 -0.6619  1.3476
  187SAPI  H20T21524   2.256   2.390   7.035  2.2236  2.6863  1.0489
  187SAPI   C3321525   2.702   3.152   7.207  0.1184 -0.1004  0.0794
  187SAPI   H3X21526   2.596   3.118   7.214  0.2388 -0.8553 -1.2984
  187SAPI   H3Y21527   2.688   3.261   7.193 -2.0838 -0.5554 -1.8628
  187SAPI   C3421528   2.790   3.123   7.333 -0.3790  0.2717  0.1839
  187SAPI   H4X21529   2.896   3.152   7.315  1.0013 -1.7441  4.0411
  187SAPI   H4Y21530   2.794   3.013   7.345  0.5381  0.3774  0.9668
  187SAPI   C3521531   2.735   3.184   7.464 -0.1680 -0.0823  0.2904
  187SAPI   H5X21532   2.632   3.152   7.492 -0.2113  1.5674  2.3036
  187SAPI   H5Y21533   2.743   3.294   7.447 -1.0800 -0.2567 -1.5253
  187SAPI   C3621534   2.833   3.148   7.579  0.1328  0.2039  0.3776
  187SAPI   H6X21535   2.938   3.177   7.560  0.0521 -0.2409 -0.8821
  187SAPI   H6Y21536   2.832   3.037   7.566 -0.6615  0.3231 -0.7120
  187SAPI   C3721537   2.788   3.192   7.716 -0.3522  0.2481 -0.2363
  187SAPI   H7X21538   2.683   3.158   7.730 -0.5100  0.3979 -1.0219
  187SAPI   H7Y21539   2.789   3.301   7.740 -1.9490  0.0738  0.8376
  187SAPI   C3821540   2.882   3.129   7.825 -0.5741  0.1129  0.4118
  187SAPI   H8X21541   2.983   3.175   7.815  1.0508 -3.1645  0.2373
  187SAPI   H8Y21542   2.891   3.023   7.793  1.0359  0.2848  0.2150
  187SAPI   C3921543   2.840   3.149   7.970 -1.0850 -0.8399 -0.8559
  187SAPI   H9X21544   2.740   3.101   7.963 -0.9291 -0.9647 -3.0180
  187SAPI   H9Y21545   2.822   3.259   7.974 -2.1395 -1.0195 -0.3745
  187SAPI  C31021546   2.941   3.092   8.068 -0.0430  0.2496 -0.5381
  187SAPI  H10X21547   2.972   2.995   8.023  2.6749 -0.0867  1.7583
  187SAPI  H10Y21548   2.877   3.064   8.155 -1.3198 -0.5039 -1.6730
  187SAPI  C31121549   3.058   3.173   8.106 -0.9040 -0.3189 -0.4909
  187SAPI  H11X21550   3.037   3.252   8.180 -0.5862  0.5813 -1.3465
  187SAPI  H11Y21551   3.101   3.223   8.016 -1.4304 -1.3614 -1.3485
  187SAPI  C31221552   3.169   3.081   8.164  0.3047 -0.4024 -0.2859
  187SAPI  H12X21553   3.194   2.997   8.095 -1.1351  0.0637 -1.4297
  187SAPI  H12Y21554   3.121   3.021   8.244  0.2586 -0.7955 -0.6036
  187SAPI  C31321555   3.294   3.151   8.214  0.4643 -0.0026  0.0976
  187SAPI  H13X21556   3.336   3.098   8.302  0.7818 -1.2414 -0.7794
  187SAPI  H13Y21557   3.284   3.259   8.236  2.4235  0.4918 -1.2176
  187SAPI  C31421558   3.406   3.142   8.116 -0.2503  0.1303  0.6778
  187SAPI  H14X21559   3.370   3.172   8.015 -0.2273  0.6382  0.8163
  187SAPI  H14Y21560   3.438   3.038   8.093 -2.3787 -0.4662  0.1915
  187SAPI  C31521561   3.530   3.225   8.145  0.0875 -0.3857 -0.4069
  187SAPI  H15X21562   3.507   3.322   8.193  2.0424  0.0154 -0.2103
  187SAPI  H15Y21563   3.583   3.245   8.050  0.1246  0.7264 -0.1656
  187SAPI  C31621564   3.618   3.158   8.253  0.8810 -0.2968  0.1568
  187SAPI  H16X21565   3.646   3.058   8.214 -0.7994 -0.5967 -0.3615
  187SAPI  H16Y21566   3.571   3.151   8.353 -1.9313  3.1953 -0.7199
  187SAPI  C31721567   3.755   3.222   8.270 -0.1922 -0.0387  0.1674
  187SAPI  H17X21568   3.808   3.193   8.177 -1.2654 -2.0392  0.1365
  187SAPI  H17Y21569   3.804   3.180   8.360 -0.5341 -2.6369 -0.7715
  187SAPI  C31821570   3.756   3.374   8.294 -0.2061  0.1146 -0.5735
  187SAPI  H18X21571   3.693   3.420   8.215 -3.6023 -0.4803  1.6100
  187SAPI  H18Y21572   3.857   3.421   8.286 -0.0455 -0.0351  0.4707
  187SAPI  H18Z21573   3.721   3.407   8.394 -0.1989 -1.1628 -0.1358
  188SAPI   C1221574   3.944   1.522   6.306  0.1458 -0.2460 -0.3773
  188SAPI    H221575   3.983   1.606   6.368  3.7010 -0.1615 -2.4383
  188SAPI    O221576   3.901   1.428   6.402  0.9801  0.1126 -0.2993
  188SAPI   HO221577   3.982   1.384   6.428  0.2351 -1.8877 -1.1691
  188SAPI   C1321578   3.838   1.567   6.214  0.2878 -0.2043  0.4978
  188SAPI    H321579   3.877   1.641   6.141  1.8673 -3.1101 -1.8476
  188SAPI    O321580   3.733   1.639   6.282  1.0176 -0.0163  0.3567
  188SAPI   HO321581   3.688   1.584   6.345 -0.9127  2.4627  1.3034
  188SAPI   C1421582   3.783   1.459   6.125  0.2313 -0.0996 -0.2689
  188SAPI    H421583   3.734   1.385   6.192  0.3094  1.1222  1.1671
  188SAPI    O421584   3.683   1.507   6.038 -0.0897 -0.1228  0.6118
  188SAPI   HO421585   3.617   1.557   6.085 -1.4241  0.8013 -2.0238
  188SAPI   C1521586   3.899   1.396   6.050 -0.0575  0.2458 -0.7812
  188SAPI    H521587   3.927   1.482   5.986 -3.7119  1.6514 -0.7460
  188SAPI    O521588   3.871   1.294   5.958 -0.2182  0.1371  0.2303
  188SAPI   HO521589   3.945   1.279   5.899 -0.8540  2.1216 -1.1776
  188SAPI   C1621590   4.021   1.364   6.135 -0.5102  0.2998  0.1898
  188SAPI    H621591   3.987   1.269   6.179 -0.6604  1.0759  1.8050
  188SAPI    O621592   4.127   1.342   6.045 -0.3444 -0.4722  0.0344
  188SAPI   HO621593   4.204   1.395   6.068 -0.8361 -1.0368  3.5781
  188SAPI   C1121594   4.063   1.473   6.229  0.6469  0.1409 -0.7565
  188SAPI    H121595   4.102   1.559   6.172  0.8861  1.5081  1.3302
  188SAPI     P21596   4.317   1.459   6.304  0.1562 -0.0281 -0.1110
  188SAPI   O1321597   4.352   1.574   6.388 -0.1293  0.2310 -0.4017
  188SAPI   O1421598   4.348   1.458   6.158  0.3594 -0.2255  0.4177
  188SAPI   O1221599   4.154   1.434   6.335  0.8345  0.0538  0.4001
  188SAPI   O1121600   4.384   1.333   6.379 -0.1386 -0.1681  0.0298
  188SAPI    C121601   4.324   1.200   6.379  0.5238 -0.6229 -0.3107
  188SAPI    HA21602   4.253   1.193   6.294 -0.6117 -0.0170  0.5678
  188SAPI    HB21603   4.406   1.125   6.371  1.0002 -0.1914  0.3603
  188SAPI    C221604   4.251   1.162   6.511  0.1546  0.9015 -0.2420
  188SAPI    HS21605   4.144   1.180   6.486  0.3087  1.6920 -0.3352
  188SAPI   O2121606   4.298   1.257   6.608  0.3529 -0.0442  0.1251
  188SAPI   C2121607   4.205   1.293   6.698  0.6669 -0.0210 -0.2991
  188SAPI   O2221608   4.082   1.283   6.689  0.0664 -0.4698 -0.4938
  188SAPI   C2221609   4.282   1.351   6.823 -0.1079  0.1805  0.5081
  188SAPI   H2R21610   4.381   1.301   6.822  0.4751  1.3191 -0.5165
  188SAPI   H2S21611   4.292   1.460   6.803 -0.7149 -0.1086 -1.5713
  188SAPI    C321612   4.266   1.015   6.557 -0.5176 -0.4861 -0.3905
  188SAPI    HX21613   4.371   0.981   6.548 -0.4220 -0.3462  0.1643
  188SAPI    HY21614   4.213   0.951   6.483 -0.3521 -0.8174 -0.2270
  188SAPI   O3121615   4.215   0.988   6.690  0.0545  0.4880 -0.2379
  188SAPI   C3121616   4.081   0.986   6.700  0.2208  0.1877  0.6565
  188SAPI   O3221617   4.003   1.019   6.612 -0.0372  0.3705  0.1990
  188SAPI   C3221618   4.042   0.955   6.845 -0.3862 -0.2497  0.4375
  188SAPI   H2X21619   4.048   1.045   6.909 -3.7634  0.8994 -0.5861
  188SAPI   H2Y21620   4.121   0.881   6.872 -0.5260 -0.3072  0.6976
  188SAPI   C2321621   4.233   1.324   6.964  0.0917 -0.4856 -0.8043
  188SAPI   H3R21622   4.254   1.218   6.993  0.5802 -0.5019 -1.1994
  188SAPI   H3S21623   4.127   1.357   6.970  0.0804 -0.7392  0.6282
  188SAPI   C2421624   4.316   1.417   7.057  0.2652  0.3399 -0.2247
  188SAPI   H4R21625   4.296   1.519   7.018 -0.1234  0.2684 -0.2094
  188SAPI   H4S21626   4.422   1.387   7.038 -0.3263 -2.7962  0.7581
  188SAPI   C2521627   4.268   1.401   7.202 -0.6410 -0.0034  0.3592
  188SAPI   H5R21628   4.172   1.347   7.208 -1.2766  1.0151 -0.3180
  188SAPI   C2621629   4.345   1.412   7.311  0.3226 -0.4845  0.3798
  188SAPI   H6R21630   4.310   1.398   7.414  0.9033  1.2287  0.8319
  188SAPI   C2721631   4.484   1.462   7.310 -0.2375  0.1355 -0.2256
  188SAPI   H7R21632   4.477   1.566   7.348 -1.0552  0.2288 -0.5985
  188SAPI   H7S21633   4.527   1.463   7.208  0.0312 -2.5706 -0.1975
  188SAPI   C2821634   4.582   1.378   7.386 -0.2530  0.0027  0.8360
  188SAPI   H8R21635   4.641   1.311   7.322  1.0140  0.0133  1.9569
  188SAPI   C2921636   4.615   1.387   7.518  0.3991 -0.3638 -0.0120
  188SAPI   H9R21637   4.685   1.317   7.566  1.2062  1.1041  1.0170
  188SAPI  C21021638   4.557   1.488   7.612  0.2356  0.2880  0.6875
  188SAPI  H10R21639   4.486   1.551   7.556  0.4236  0.1238  0.2648
  188SAPI  H10S21640   4.647   1.547   7.641  0.7525  0.5288 -1.2663
  188SAPI  C21121641   4.488   1.426   7.729 -0.5081  0.8772 -0.2523
  188SAPI  H11R21642   4.388   1.385   7.710 -0.3011  1.1168 -2.0518
  188SAPI  C21221643   4.539   1.390   7.846  0.8654 -0.1407 -0.1149
  188SAPI  H12R21644   4.470   1.342   7.916  1.9231  1.0093  1.7971
  188SAPI  C21321645   4.676   1.387   7.905  0.0279 -0.1702  0.0048
  188SAPI  H13R21646   4.740   1.322   7.840  0.1688 -0.9300  0.8807
  188SAPI  H13S21647   4.654   1.333   7.999 -0.9809 -0.1520 -0.2038
  188SAPI  C21421648   4.749   1.515   7.929  0.1446  0.2874  0.1763
  188SAPI  H14R21649   4.745   1.586   7.845  0.6070  0.7636  0.5502
  188SAPI  C21521650   4.828   1.545   8.038  0.2476  0.2672 -0.1580
  188SAPI  H15R21651   4.887   1.637   8.053 -2.4307  1.6808  2.8105
  188SAPI  C21621652   4.852   1.446   8.151  0.6470 -0.2443  0.3496
  188SAPI  H16R21653   4.960   1.436   8.174  0.1971 -0.0859  2.8149
  188SAPI  H16S21654   4.831   1.339   8.132 -1.7719 -0.0748  1.6378
  188SAPI  C21721655   4.767   1.493   8.263  0.7103 -0.6747 -0.4346
  188SAPI  H17R21656   4.659   1.477   8.242  0.3899 -0.3871  0.9399
  188SAPI  H17S21657   4.795   1.598   8.283  1.2597 -0.3771 -2.5007
  188SAPI  C21821658   4.802   1.425   8.391  0.4952  0.2172 -0.8909
  188SAPI  H18R21659   4.905   1.444   8.428 -0.7489  1.2644  2.4124
  188SAPI  H18S21660   4.788   1.315   8.381 -2.3651  0.3365  0.5777
  188SAPI  C21921661   4.721   1.488   8.501  0.1055  0.8077 -0.2309
  188SAPI  H19R21662   4.720   1.599   8.498  1.6753  0.8914  0.9713
  188SAPI  H19S21663   4.778   1.451   8.589 -0.3532  1.6938  0.4443
  188SAPI  C22021664   4.572   1.438   8.513 -0.1121  0.3615 -0.6056
  188SAPI  H20R21665   4.568   1.328   8.528  1.5552  0.5840  2.3112
  188SAPI  H20S21666   4.531   1.463   8.413  2.3900  2.6391 -1.2074
  188SAPI  H20T21667   4.518   1.489   8.596 -0.5847 -3.5246  1.6988
  188SAPI   C3321668   3.899   0.898   6.840 -0.6667  0.0019 -0.0983
  188SAPI   H3X21669   3.887   0.820   6.762 -1.3886  0.5738 -0.5758
  188SAPI   H3Y21670   3.839   0.989   6.819  0.5681  1.2170  1.3663
  188SAPI   C3421671   3.841   0.839   6.967  0.4148 -0.5903  0.3838
  188SAPI   H4X21672   3.914   0.765   7.006  1.1939  0.6043  1.2183
  188SAPI   H4Y21673   3.747   0.780   6.956 -0.9087  1.2919  1.1281
  188SAPI   C3521674   3.839   0.943   7.080  0.5457 -0.2268 -0.0010
  188SAPI   H5X21675   3.739   0.992   7.077  0.2204 -0.8887 -0.7517
  188SAPI   H5Y21676   3.925   1.012   7.075  0.3737 -0.0613 -0.8929
  188SAPI   C3621677   3.840   0.881   7.221  0.0823  1.1230 -0.1864
  188SAPI   H6X21678   3.759   0.805   7.221  0.4923  0.6748 -0.2392
  188SAPI   H6Y21679   3.813   0.964   7.289  0.5034  2.8196 -2.0246
  188SAPI   C3721680   3.979   0.828   7.266 -0.9864  0.1361  0.3455
  188SAPI   H7X21681   4.052   0.910   7.283 -1.9283  0.9510  0.5410
  188SAPI   H7Y21682   4.025   0.776   7.179 -0.2696  1.7371 -0.2813
  188SAPI   C3821683   3.974   0.738   7.389 -0.1957  0.8242  0.3931
  188SAPI   H8X21684   4.030   0.643   7.376  0.8291  1.2174  1.7197
  188SAPI   H8Y21685   3.867   0.709   7.399 -0.2978  1.5184  1.4833
  188SAPI   C3921686   4.025   0.800   7.518 -0.4251 -0.2051 -1.0463
  188SAPI   H9X21687   4.012   0.910   7.508  0.7921  0.1664  0.8513
  188SAPI   H9Y21688   4.135   0.790   7.509 -0.4927 -0.4219 -1.6543
  188SAPI  C31021689   3.962   0.738   7.647 -0.3723 -0.7625  0.0190
  188SAPI  H10X21690   3.974   0.628   7.657  0.9944 -0.6908 -0.5995
  188SAPI  H10Y21691   3.853   0.752   7.636 -0.5573 -0.1927  2.2075
  188SAPI  C31121692   4.014   0.802   7.774 -0.2896 -0.5105 -0.0507
  188SAPI  H11X21693   3.980   0.906   7.786  0.8031 -0.1735  0.2777
  188SAPI  H11Y21694   4.125   0.813   7.767 -0.1036 -2.2758 -0.4891
  188SAPI  C31221695   3.985   0.725   7.909 -0.2363  0.0675  0.2083
  188SAPI  H12X21696   3.875   0.707   7.912  0.1317 -2.5438  2.4281
  188SAPI  H12Y21697   4.024   0.791   7.989 -1.1966  1.9830 -0.8358
  188SAPI  C31321698   4.056   0.586   7.916  0.2692 -0.2819  0.5155
  188SAPI  H13X21699   4.163   0.615   7.909  1.0672 -2.1730  3.3560
  188SAPI  H13Y21700   4.021   0.527   7.829 -3.4387  0.6610  1.1916
  188SAPI  C31421701   4.021   0.513   8.045  0.5375 -0.3676 -0.2122
  188SAPI  H14X21702   3.985   0.415   8.007  1.1594 -0.8697  0.4647
  188SAPI  H14Y21703   3.929   0.555   8.091 -1.1797 -0.9536 -2.8461
  188SAPI  C31521704   4.128   0.509   8.156 -0.4159  0.1792  0.5090
  188SAPI  H15X21705   4.161   0.614   8.177 -1.0867  0.8287 -1.4735
  188SAPI  H15Y21706   4.212   0.458   8.104  0.1276 -1.0309  2.4464
  188SAPI  C31621707   4.086   0.427   8.279 -0.0023 -0.2579 -0.1260
  188SAPI  H16X21708   4.090   0.324   8.238  1.8789  0.4950 -1.9739
  188SAPI  H16Y21709   3.980   0.441   8.309 -0.0033 -0.5752  0.0231
  188SAPI  C31721710   4.184   0.442   8.404  0.8311 -0.5135  0.3705
  188SAPI  H17X21711   4.191   0.551   8.425  1.0619 -0.4854  0.1481
  188SAPI  H17Y21712   4.282   0.391   8.396  0.8081 -0.3386 -1.2960
  188SAPI  C31821713   4.125   0.376   8.527 -0.0482 -0.5155 -0.6097
  188SAPI  H18X21714   4.211   0.365   8.597  0.5111  2.7113 -0.6543
  188SAPI  H18Y21715   4.084   0.277   8.498  0.2358 -0.3233 -1.7141
  188SAPI  H18Z21716   4.046   0.443   8.567 -0.5940 -1.0800 -0.7270
  189POPC     N21717   2.458   3.496  10.515 -0.3818  0.0411  0.6135
  189POPC   C1221718   2.479   3.619  10.601 -0.1603 -0.1322 -0.3102
  189POPC  H12A21719   2.462   3.706  10.540 -0.2350 -0.3785 -0.6501
  189POPC  H12B21720   2.581   3.610  10.635 -0.2412 -0.4570 -0.1463
  189POPC   C1321721   2.520   3.376  10.575 -0.2578  0.3318  0.0386
  189POPC  H13A21722   2.628   3.377  10.576 -0.0673 -2.0751 -3.0800
  189POPC  H13B21723   2.500   3.361  10.680 -0.4304  1.0084  0.1122
  189POPC  H13C21724   2.478   3.288  10.528  0.0199  1.5876 -2.7430
  189POPC   C1421725   2.318   3.478  10.483  0.3004 -0.3833  0.7507
  189POPC  H14A21726   2.251   3.485  10.568 -0.8113  2.3244 -0.2179
  189POPC  H14B21727   2.288   3.552  10.410  1.3684  0.4892  1.1655
  189POPC  H14C21728   2.296   3.379  10.445 -1.0435  0.1672  0.0316
  189POPC   C1521729   2.518   3.528  10.379 -0.2742  0.5063  0.4185
  189POPC  H15A21730   2.623   3.553  10.380 -0.3965  1.1595 -0.6134
  189POPC  H15B21731   2.465   3.617  10.348 -0.9378 -0.2555 -0.7559
  189POPC  H15C21732   2.500   3.449  10.306  1.3150  1.0117 -0.5550
  189POPC   C1121733   2.382   3.628  10.717 -1.1898  0.4047 -0.3316
  189POPC  H11A21734   2.398   3.544  10.788  0.3430  0.3795 -0.6715
  189POPC  H11B21735   2.274   3.624  10.693 -0.7157 -1.0867 -2.4655
  189POPC     P21736   2.374   3.897  10.724 -0.0098 -0.5351  0.4395
  189POPC   O1321737   2.485   3.954  10.638 -0.5055  0.0377  0.4440
  189POPC   O1421738   2.329   3.975  10.837 -0.0955 -0.6620 -0.0669
  189POPC   O1221739   2.417   3.751  10.781 -0.0227 -0.5721 -0.2701
  189POPC   O1121740   2.253   3.870  10.630  0.9150 -0.0383  0.3810
  189POPC    C121741   2.183   3.969  10.555  0.0434 -0.2061 -0.1421
  189POPC    HA21742   2.200   4.072  10.593  1.1625  0.6070 -2.6680
  189POPC    HB21743   2.078   3.944  10.583 -0.0136  0.1862  0.0015
  189POPC    C221744   2.222   3.962  10.407  0.0477  0.7449 -0.4327
  189POPC    HS21745   2.241   3.855  10.382  1.0223  0.7960  0.0264
  189POPC   O2121746   2.341   4.036  10.385 -0.2227 -0.2393 -0.1500
  189POPC   C2121747   2.450   3.990  10.328  0.3468  0.6492 -0.4500
  189POPC   O2221748   2.464   3.878  10.282  0.9118 -0.0336  0.4329
  189POPC   C2221749   2.554   4.099  10.333 -0.0189 -0.5697  0.3212
  189POPC   H2R21750   2.624   4.063  10.411  1.1307 -1.7982 -1.2105
  189POPC   H2S21751   2.515   4.200  10.357 -2.2425 -1.0657 -0.9180
  189POPC    C321752   2.109   4.019  10.322 -0.2037 -0.0709  0.4489
  189POPC    HX21753   2.101   4.124  10.359 -0.5799 -0.3291  1.1079
  189POPC    HY21754   2.012   3.976  10.352 -0.3972 -0.0764 -0.1665
  189POPC   O3121755   2.134   4.028  10.176  0.4215  0.2010 -0.0286
  189POPC   C3121756   2.134   3.911  10.111  0.3558 -0.0457 -0.2701
  189POPC   O3221757   2.092   3.804  10.151 -0.4801  0.1164  0.8149
  189POPC   C3221758   2.193   3.927   9.976 -1.0651 -0.6981  0.6290
  189POPC   H2X21759   2.302   3.918   9.992 -1.2783 -1.1898  1.9200
  189POPC   H2Y21760   2.159   4.030   9.952 -1.6726 -0.5997  1.8256
  189POPC   C2321761   2.641   4.087  10.202 -0.7069 -0.5118  0.0568
  189POPC   H3R21762   2.660   3.981  10.175  1.9188  0.1752 -1.1550
  189POPC   H3S21763   2.739   4.137  10.210 -1.8317  1.8885 -0.2612
  189POPC   C2421764   2.570   4.157  10.082  0.2131  0.5568  0.0365
  189POPC   H4R21765   2.537   4.258  10.115  0.7311  1.2576 -1.5013
  189POPC   H4S21766   2.480   4.103  10.046 -0.2906  1.3641  0.0710
  189POPC   C2521767   2.668   4.173   9.963 -0.3842  0.4482  0.6643
  189POPC   H5R21768   2.776   4.180   9.989  0.1078 -1.2424 -0.7480
  189POPC   H5S21769   2.640   4.263   9.903 -0.1160  1.2297  1.6754
  189POPC   C2621770   2.650   4.048   9.865 -0.3936 -0.4136 -0.5806
  189POPC   H6R21771   2.550   4.047   9.817  0.2543 -2.0908 -2.0192
  189POPC   H6S21772   2.669   3.958   9.927  2.0377  1.4236  1.5704
  189POPC   C2721773   2.756   4.051   9.752 -0.1183  0.2221 -0.2788
  189POPC   H7R21774   2.857   4.052   9.799 -0.3181 -0.8235  0.2125
  189POPC   H7S21775   2.758   4.146   9.695 -0.4117 -0.1928 -0.9986
  189POPC   C2821776   2.739   3.935   9.657 -0.6911  0.2937 -0.8867
  189POPC   H8R21777   2.736   3.843   9.719  1.9464  0.9524  0.3652
  189POPC   H8S21778   2.830   3.925   9.594  0.3404  1.4754  0.3367
  189POPC   C2921779   2.626   3.948   9.568  0.4990  0.2782  0.8070
  189POPC   H9121780   2.531   3.947   9.624  0.4685  0.7586  0.7687
  189POPC  C21021781   2.621   3.979   9.438  0.4382 -0.4005  0.3780
  189POPC  H10121782   2.525   3.977   9.385  0.0081 -0.0773  1.1276
  189POPC  C21121783   2.734   3.986   9.341  0.5676  0.7377  1.0042
  189POPC  H11R21784   2.811   3.914   9.375  0.5592 -0.5964 -1.5221
  189POPC  H11S21785   2.779   4.087   9.346 -0.1849  1.1289  0.2346
  189POPC  C21221786   2.688   3.950   9.193  0.2427  0.5624  0.2827
  189POPC  H12R21787   2.785   3.948   9.139  0.3651 -0.6226  0.5186
  189POPC  H12S21788   2.619   4.026   9.151  0.2078  0.1787 -0.3713
  189POPC  C21321789   2.625   3.809   9.181  0.1316  0.3766  0.1438
  189POPC  H13R21790   2.533   3.804   9.243  1.1033 -3.4487  1.5289
  189POPC  H13S21791   2.698   3.739   9.226 -1.0577 -0.1557  1.3095
  189POPC  C21421792   2.580   3.742   9.040  0.3706  0.1700  0.1141
  189POPC  H14R21793   2.501   3.803   8.992  0.9502  0.2361 -0.7889
  189POPC  H14S21794   2.548   3.642   9.075 -1.5194 -0.6457 -3.4547
  189POPC  C21521795   2.699   3.721   8.948 -0.3629 -0.5733  0.4995
  189POPC  H15R21796   2.775   3.656   8.996 -0.3286  0.0649  1.3375
  189POPC  H15S21797   2.759   3.813   8.931  1.3179 -1.8089 -0.4455
  189POPC  C21621798   2.655   3.652   8.812  0.0189 -0.0470  0.2795
  189POPC  H16R21799   2.563   3.590   8.820  0.1447 -0.0546  2.1734
  189POPC  H16S21800   2.738   3.585   8.784  1.6938  1.6593  0.9156
  189POPC  C21721801   2.640   3.750   8.695  0.0830 -0.3103 -0.2686
  189POPC  H17R21802   2.734   3.810   8.695  0.8032 -1.3868 -1.6037
  189POPC  H17S21803   2.554   3.815   8.720  0.8886 -0.1922  2.5115
  189POPC  C21821804   2.611   3.682   8.553  0.1004 -0.4477 -0.3538
  189POPC  H18R21805   2.504   3.652   8.558  0.0169  0.0269  1.1799
  189POPC  H18S21806   2.675   3.592   8.538 -1.0760 -1.0763 -1.7409
  189POPC  H18T21807   2.605   3.754   8.469 -3.6129  0.0647  0.1870
  189POPC   C3321808   2.139   3.827   9.867  0.2992 -0.2016 -0.3476
  189POPC   H3X21809   2.030   3.849   9.861  0.3802  0.4519  0.4018
  189POPC   H3Y21810   2.159   3.723   9.900 -0.2091 -0.0472  0.4606
  189POPC   C3421811   2.191   3.848   9.726  0.0168  0.1340  0.4351
  189POPC   H4X21812   2.301   3.839   9.738 -0.0815  0.8853  2.1624
  189POPC   H4Y21813   2.169   3.949   9.687 -0.0427 -0.7711 -2.1113
  189POPC   C3521814   2.153   3.742   9.618 -0.4040  0.4586  0.4511
  189POPC   H5X21815   2.044   3.757   9.607 -0.6534 -1.1833  0.4940
  189POPC   H5Y21816   2.178   3.639   9.653 -1.1063  0.5188  1.1557
  189POPC   C3621817   2.212   3.783   9.482  0.0101 -0.7345 -0.0373
  189POPC   H6X21818   2.319   3.753   9.489 -0.2113 -2.0419 -1.7551
  189POPC   H6Y21819   2.198   3.892   9.464  1.1279 -0.4372  0.7404
  189POPC   C3721820   2.148   3.699   9.370 -0.2212 -0.5419  0.7538
  189POPC   H7X21821   2.043   3.731   9.349  0.7961  2.2865 -0.5223
  189POPC   H7Y21822   2.152   3.593   9.402  2.2278 -0.0731  2.2085
  189POPC   C3821823   2.213   3.704   9.226 -0.3243  1.0225  0.1407
  189POPC   H8X21824   2.314   3.657   9.231 -1.0899 -0.8847 -1.0693
  189POPC   H8Y21825   2.237   3.807   9.192  0.6370  0.7053 -0.1698
  189POPC   C3921826   2.132   3.634   9.119  0.6912  0.1680 -0.2157
  189POPC   H9X21827   2.033   3.678   9.093  1.6515  2.4883 -0.1790
  189POPC   H9Y21828   2.103   3.529   9.145 -0.9200  0.2605 -1.4554
  189POPC  C31021829   2.201   3.632   8.978  0.0128  0.4326 -0.0085
  189POPC  H10X21830   2.309   3.607   8.988  0.8438  2.5311 -2.5754
  189POPC  H10Y21831   2.201   3.737   8.943 -0.5091  0.0009 -1.3686
  189POPC  C31121832   2.133   3.550   8.868  1.0048  0.0961  0.7665
  189POPC  H11X21833   2.031   3.594   8.867  0.5056 -0.8712 -2.3681
  189POPC  H11Y21834   2.118   3.449   8.912 -1.8360  0.0756 -0.0519
  189POPC  C31221835   2.203   3.546   8.737  0.6826 -0.6713  0.4407
  189POPC  H12X21836   2.305   3.501   8.743  0.1068 -2.1197 -0.1015
  189POPC  H12Y21837   2.211   3.651   8.701 -3.9171 -1.2237 -3.0885
  189POPC  C31321838   2.132   3.480   8.621  0.8013  0.5198 -0.3977
  189POPC  H13X21839   2.194   3.490   8.529 -0.4883  0.6392 -1.2817
  189POPC  H13Y21840   2.033   3.528   8.606  0.3063 -0.9176 -2.1256
  189POPC  C31421841   2.110   3.328   8.637  0.5756 -0.0844 -0.9844
  189POPC  H14X21842   2.130   3.302   8.744  0.6217  1.4876 -0.5830
  189POPC  H14Y21843   2.188   3.270   8.583 -0.5738 -2.2405 -0.4056
  189POPC  C31521844   1.969   3.274   8.598 -0.6201  0.0847  0.1817
  189POPC  H15X21845   1.956   3.300   8.491  0.7300 -0.2199 -0.0834
  189POPC  H15Y21846   1.884   3.318   8.654 -0.6736  1.8330 -1.1922
  189POPC  C31621847   1.964   3.120   8.621  0.2399  0.6008  0.0193
  189POPC  H16X21848   1.860   3.080   8.621 -0.2098  1.7144 -0.8584
  189POPC  H16Y21849   2.011   3.095   8.718 -0.4466  1.7960  0.6858
  189POPC  H16Z21850   2.025   3.075   8.540 -1.7204  0.4606 -1.4592
  190POPC     N21851   0.302   4.224  11.263 -0.1251 -0.2065 -0.3391
  190POPC   C1221852   0.297   4.233  11.110  0.6318  0.1087  0.9439
  190POPC  H12A21853   0.393   4.271  11.078  0.6764 -0.3381  0.5425
  190POPC  H12B21854   0.216   4.295  11.072 -0.7368 -1.1323  1.7180
  190POPC   C1321855   0.171   4.175  11.316 -0.0767  0.0136 -0.1785
  190POPC  H13A21856   0.153   4.197  11.420  1.6020  1.0206 -0.0711
  190POPC  H13B21857   0.078   4.206  11.270 -1.7393 -1.1217  2.1547
  190POPC  H13C21858   0.158   4.068  11.311  2.2950 -0.2593 -1.9969
  190POPC   C1421859   0.403   4.130  11.321 -0.5172  0.8688  0.2746
  190POPC  H14A21860   0.364   4.085  11.411  0.3897  0.5247  0.5120
  190POPC  H14B21861   0.434   4.060  11.245  1.9849  2.1020  0.0535
  190POPC  H14C21862   0.493   4.180  11.353  0.9055 -0.8048 -0.8644
  190POPC   C1521863   0.317   4.363  11.310 -0.2596 -1.2370  0.3126
  190POPC  H15A21864   0.404   4.416  11.274  0.0918  0.9187  3.7977
  190POPC  H15B21865   0.342   4.355  11.415  0.8736 -4.9310 -0.0986
  190POPC  H15C21866   0.233   4.426  11.286  0.8983  0.5806  0.8008
  190POPC   C1121867   0.288   4.098  11.039  0.4540  0.2325  0.0383
  190POPC  H11A21868   0.267   4.112  10.931 -0.3861 -0.9636  0.0342
  190POPC  H11B21869   0.208   4.028  11.069  2.2275 -1.6946  0.5470
  190POPC     P21870   0.546   4.049  10.980 -0.4093 -0.2435  0.1139
  190POPC   O1321871   0.658   3.953  11.008  0.0010  0.4615 -0.5134
  190POPC   O1421872   0.573   4.195  11.007 -0.0520  0.1409  0.2807
  190POPC   O1221873   0.413   4.019  11.061  0.5661 -0.5291 -0.0745
  190POPC   O1121874   0.499   4.034  10.838 -0.2109  0.4538  0.4277
  190POPC    C121875   0.443   3.915  10.782 -0.4448  0.1609 -0.8598
  190POPC    HA21876   0.354   3.879  10.838  0.7660 -1.5423  0.0589
  190POPC    HB21877   0.515   3.830  10.789 -0.4865  0.1345 -0.7420
  190POPC    C221878   0.414   3.933  10.630 -0.8793 -0.1283  0.2506
  190POPC    HS21879   0.364   3.835  10.615  0.7605 -1.3970  2.4218
  190POPC   O2121880   0.541   3.942  10.558  0.1271 -0.1074  0.3277
  190POPC   C2121881   0.547   3.869  10.446 -0.5192 -0.0288 -0.2873
  190POPC   O2221882   0.454   3.800  10.404 -0.2178 -0.1247 -0.6005
  190POPC   C2221883   0.695   3.874  10.391  0.5058 -0.0986  0.6965
  190POPC   H2R21884   0.748   3.826  10.477 -0.5361  0.6261  1.7826
  190POPC   H2S21885   0.717   3.982  10.374 -2.3913  0.3066 -1.1628
  190POPC    C321886   0.319   4.049  10.606 -0.1410 -0.2486 -0.4844
  190POPC    HX21887   0.382   4.138  10.629 -1.1697  0.5066 -0.5327
  190POPC    HY21888   0.227   4.037  10.667 -0.3444  0.1934 -0.7014
  190POPC   O3121889   0.286   4.042  10.463 -0.0354 -0.4685 -0.1414
  190POPC   C3121890   0.330   4.136  10.379 -0.1006 -0.4621  0.3960
  190POPC   O3221891   0.407   4.228  10.411 -0.7833 -0.3571  0.2291
  190POPC   C3221892   0.258   4.131  10.250 -0.2153  0.0801 -0.1815
  190POPC   H2X21893   0.252   4.235  10.210  2.5935  0.3613 -0.0890
  190POPC   H2Y21894   0.158   4.085  10.262  0.2576 -1.3344 -1.3739
  190POPC   C2321895   0.707   3.801  10.262 -0.0532  0.4599  0.2177
  190POPC   H3R21896   0.635   3.847  10.190 -0.1658  0.4552  0.3287
  190POPC   H3S21897   0.675   3.696  10.277 -2.3731  1.1883  0.6267
  190POPC   C2421898   0.846   3.818  10.193 -0.0903  0.6819 -0.4702
  190POPC   H4R21899   0.913   3.790  10.277 -0.9412 -0.4609 -0.1475
  190POPC   H4S21900   0.869   3.923  10.166 -0.0799  0.7671 -0.1388
  190POPC   C2521901   0.877   3.732  10.062  0.0455 -0.3973 -0.8772
  190POPC   H5R21902   0.837   3.635  10.099  0.9033  0.1332  1.6362
  190POPC   H5S21903   0.987   3.730  10.045  0.1685 -1.0879 -0.0776
  190POPC   C2621904   0.810   3.778   9.935  0.5523 -0.4204  0.4883
  190POPC   H6R21905   0.836   3.886   9.924 -3.0154  0.5180 -0.1776
  190POPC   H6S21906   0.699   3.773   9.934  0.4719  1.0150 -0.1049
  190POPC   C2721907   0.849   3.692   9.809 -0.3240 -0.1803 -0.6125
  190POPC   H7R21908   0.820   3.585   9.824  1.7552 -0.7255 -0.1700
  190POPC   H7S21909   0.960   3.697   9.804 -0.2586 -0.8526 -0.0248
  190POPC   C2821910   0.788   3.730   9.674 -0.1438 -0.6564  0.3811
  190POPC   H8R21911   0.817   3.835   9.651  2.1235 -0.9165  1.6492
  190POPC   H8S21912   0.680   3.727   9.699 -0.2282 -1.0785 -0.0191
  190POPC   C2921913   0.812   3.639   9.553  0.0030  0.0750  0.1630
  190POPC   H9121914   0.790   3.531   9.559 -1.6632  0.1527 -2.5918
  190POPC  C21021915   0.872   3.676   9.441 -0.0768 -0.1358 -0.9529
  190POPC  H10121916   0.872   3.604   9.357 -0.5998 -0.1646 -0.9294
  190POPC  C21121917   0.925   3.819   9.413  0.0902  0.6490 -0.1332
  190POPC  H11R21918   1.030   3.830   9.446 -0.0876  2.1275 -0.0138
  190POPC  H11S21919   0.868   3.906   9.453  1.3757  1.2727  0.3761
  190POPC  C21221920   0.934   3.838   9.263  0.0883  0.3532 -0.2557
  190POPC  H12R21921   0.982   3.748   9.218  0.6607  0.5536 -0.0476
  190POPC  H12S21922   0.993   3.929   9.244  2.0643 -0.5933  1.0627
  190POPC  C21321923   0.794   3.852   9.198  0.4314 -0.0806 -0.3585
  190POPC  H13R21924   0.744   3.934   9.253 -0.6234 -0.0328 -1.3392
  190POPC  H13S21925   0.734   3.759   9.206 -1.0731  0.9335  0.7572
  190POPC  C21421926   0.805   3.905   9.053  0.1803 -0.0764 -0.0283
  190POPC  H14R21927   0.865   3.832   8.994  0.0173 -1.7589  1.7826
  190POPC  H14S21928   0.858   4.001   9.034 -0.2740  0.2800  0.4741
  190POPC  C21521929   0.667   3.913   8.979 -0.5105 -0.0447 -0.2759
  190POPC  H15R21930   0.613   3.986   9.043  0.5282  1.5257 -1.1263
  190POPC  H15S21931   0.613   3.816   8.974 -0.4711 -0.0141 -1.4149
  190POPC  C21621932   0.693   3.971   8.838 -0.5278  0.0452  0.3880
  190POPC  H16R21933   0.774   3.903   8.802 -0.0844  0.5151  0.4889
  190POPC  H16S21934   0.737   4.073   8.845  0.3134 -0.2273 -0.6409
  190POPC  C21721935   0.576   3.961   8.747  0.0606  0.2088 -0.2225
  190POPC  H17R21936   0.592   4.008   8.648  3.4866 -0.1427  0.0408
  190POPC  H17S21937   0.495   4.021   8.794 -0.8082 -0.2359 -1.1107
  190POPC  C21821938   0.531   3.808   8.734 -0.5438  0.1528  0.2543
  190POPC  H18R21939   0.451   3.791   8.659 -2.4587 -1.5845  2.5514
  190POPC  H18S21940   0.486   3.771   8.828 -2.7290 -1.5796 -1.3699
  190POPC  H18T21941   0.619   3.748   8.703 -0.8731 -0.5467  0.6434
  190POPC   C3321942   0.340   4.064  10.139 -0.1452  0.2532  1.1922
  190POPC   H3X21943   0.368   3.960  10.163 -1.2708 -0.4041 -0.1472
  190POPC   H3Y21944   0.434   4.123  10.135  0.0203 -0.0742 -1.1058
  190POPC   C3421945   0.277   4.073   9.999 -0.1108  0.2636  0.7775
  190POPC   H4X21946   0.273   4.178   9.963 -2.7070  0.3161  1.0088
  190POPC   H4Y21947   0.176   4.030   9.987  0.4234 -0.3104 -2.4243
  190POPC   C3521948   0.366   4.004   9.894 -0.3286 -0.0959 -0.1270
  190POPC   H5X21949   0.354   3.894   9.899 -0.0194 -0.1042  3.7580
  190POPC   H5Y21950   0.470   4.026   9.928 -0.4713  0.7432 -0.2055
  190POPC   C3621951   0.338   4.058   9.754  0.1183  0.2267  0.1324
  190POPC   H6X21952   0.399   4.151   9.749 -0.5003  0.5716 -1.4647
  190POPC   H6Y21953   0.230   4.079   9.738 -0.0287 -0.1053  0.6616
  190POPC   C3721954   0.386   3.956   9.644  0.1457 -0.2920 -0.5304
  190POPC   H7X21955   0.328   3.863   9.660 -3.0503  1.9300  2.2788
  190POPC   H7Y21956   0.494   3.938   9.665  0.7079  2.5836 -0.5533
  190POPC   C3821957   0.366   4.001   9.500  0.1101 -0.6922 -0.1967
  190POPC   H8X21958   0.444   4.077   9.477 -1.7002  2.0664  2.0018
  190POPC   H8Y21959   0.266   4.050   9.503  1.1441  1.5496  2.6387
  190POPC   C3921960   0.358   3.892   9.397 -0.0742  0.3007 -0.0284
  190POPC   H9X21961   0.269   3.829   9.422 -0.1538  0.6097  0.4820
  190POPC   H9Y21962   0.452   3.833   9.401 -0.9618 -1.0981  1.9640
  190POPC  C31021963   0.361   3.932   9.249 -0.4197 -0.3182  0.0987
  190POPC  H10X21964   0.412   3.849   9.196 -0.9244  0.7008 -2.0543
  190POPC  H10Y21965   0.413   4.028   9.230 -1.2524  0.1411  0.1112
  190POPC  C31121966   0.219   3.937   9.182 -0.5473 -0.4204  0.3437
  190POPC  H11X21967   0.174   4.038   9.188 -1.9994 -1.0139 -0.1447
  190POPC  H11Y21968   0.147   3.868   9.231 -1.9389 -1.2277 -2.5961
  190POPC  C31221969   0.229   3.908   9.028 -0.1544 -0.5770  0.8522
  190POPC  H12X21970   0.286   3.812   9.021  0.8357  0.0131  0.5661
  190POPC  H12Y21971   0.288   3.992   8.986 -0.0307 -0.0270  2.1023
  190POPC  C31321972   0.096   3.899   8.947 -0.2725  0.6094  0.7097
  190POPC  H13X21973   0.063   4.003   8.929 -0.6225  0.0744 -2.1632
  190POPC  H13Y21974   0.025   3.845   9.013 -0.8456 -0.7218 -0.9570
  190POPC  C31421975   0.116   3.830   8.818 -0.5022  0.3690  0.4485
  190POPC  H14X21976   0.103   3.720   8.829  0.4477 -0.0811 -2.3173
  190POPC  H14Y21977   0.217   3.840   8.774 -1.5931 -0.1287 -2.3448
  190POPC  C31521978  -0.000   3.863   8.713  0.6526  0.4535 -0.0209
  190POPC  H15X21979   0.020   3.956   8.656 -0.7849  1.4442  1.0077
  190POPC  H15Y21980  -0.089   3.875   8.779  0.8455  1.2249  0.1075
  190POPC  C31621981  -0.024   3.734   8.624  0.5079 -0.0213 -0.2104
  190POPC  H16X21982  -0.078   3.652   8.676 -0.6486 -0.0502 -1.4252
  190POPC  H16Y21983   0.074   3.704   8.581  0.4400 -0.0593 -0.3395
  190POPC  H16Z21984  -0.101   3.751   8.546  0.3023  0.9918  0.1984
  191POPC     N21985   0.319   6.118   5.973  0.7326 -0.1184 -0.5245
  191POPC   C1221986   0.318   5.967   5.988  0.2880 -0.6161  0.6337
  191POPC  H12A21987   0.364   5.941   6.082  3.3104 -0.6297 -0.7333
  191POPC  H12B21988   0.383   5.926   5.912 -0.1341  2.3463 -1.4871
  191POPC   C1321989   0.250   6.167   5.850  0.2464  0.2787 -0.4191
  191POPC  H13A21990   0.295   6.123   5.762  2.5477  2.4826 -0.4274
  191POPC  H13B21991   0.146   6.135   5.851  0.8188 -2.5748 -4.6269
  191POPC  H13C21992   0.267   6.271   5.828  0.8126  0.3074  0.1477
  191POPC   C1421993   0.255   6.187   6.095  0.2656  0.2716  0.2851
  191POPC  H14A21994   0.279   6.146   6.192 -2.8360 -1.1917  0.5601
  191POPC  H14B21995   0.291   6.289   6.102 -0.7293  0.7452 -1.0049
  191POPC  H14C21996   0.148   6.176   6.094  0.4069 -2.3723  2.5815
  191POPC   C1521997   0.464   6.163   5.977  0.4452  0.3367 -0.5280
  191POPC  H15A21998   0.513   6.108   5.898  2.0806  0.1925  0.5407
  191POPC  H15B21999   0.512   6.135   6.069  2.7280 -0.2261 -1.8201
  191POPC  H15C22000   0.468   6.270   5.963 -2.0745  0.6182  0.3565
  191POPC   C1122001   0.176   5.892   5.967 -0.1481  0.2033 -0.0152
  191POPC  H11A22002   0.190   5.783   5.985  0.4673  0.2708 -0.0788
  191POPC  H11B22003   0.151   5.923   5.864  0.0852  2.8089  0.6600
  191POPC     P22004   0.066   5.909   6.210  0.0427  0.0668 -0.3997
  191POPC   O1322005  -0.082   5.898   6.228  0.3359 -0.4786 -0.3196
  191POPC   O1422006   0.133   6.015   6.285 -0.0774  0.1304  0.2238
  191POPC   O1222007   0.078   5.948   6.056 -0.0558  0.1133 -0.1348
  191POPC   O1122008   0.137   5.771   6.227  0.0540  0.2718  0.7195
  191POPC    C122009   0.274   5.761   6.266  0.7942 -0.0017 -0.8579
  191POPC    HA22010   0.330   5.855   6.252 -0.5229  0.6842 -1.7702
  191POPC    HB22011   0.326   5.701   6.188  0.2163 -0.0500 -1.2118
  191POPC    C222012   0.296   5.711   6.410  0.9236  0.2589  0.3048
  191POPC    HS22013   0.261   5.606   6.418  3.3059 -0.4519  3.3243
  191POPC   O2122014   0.243   5.803   6.507 -0.3649  0.1071 -0.2974
  191POPC   C2122015   0.127   5.783   6.568  0.2603 -0.4136 -0.1375
  191POPC   O2222016   0.061   5.682   6.568  0.1126  0.1525  0.6158
  191POPC   C2222017   0.085   5.914   6.624 -0.3920 -1.1362 -0.7011
  191POPC   H2R22018  -0.016   5.911   6.670  0.7387 -1.2980  1.9266
  191POPC   H2S22019   0.094   5.989   6.543  2.1439  0.2275  0.7122
  191POPC    C322020   0.442   5.703   6.447  0.6973  0.2307  0.1806
  191POPC    HX22021   0.492   5.800   6.424  2.3511 -0.5100  0.5038
  191POPC    HY22022   0.498   5.632   6.383  3.0310  0.8132  1.4597
  191POPC   O3122023   0.460   5.660   6.584  0.3194  0.2460  0.1195
  191POPC   C3122024   0.547   5.733   6.653 -0.8190  0.4179  0.2574
  191POPC   O3222025   0.603   5.835   6.612  0.3495  0.0109  0.5313
  191POPC   C3222026   0.561   5.683   6.794 -0.2420 -0.1718  0.3452
  191POPC   H2X22027   0.597   5.578   6.801  1.4078  0.0960 -2.7286
  191POPC   H2Y22028   0.459   5.686   6.839 -0.4860 -0.6086 -0.1635
  191POPC   C2322029   0.183   5.944   6.742  0.9265 -0.2234 -0.1033
  191POPC   H3R22030   0.211   6.051   6.736  1.0542 -0.1693  1.0886
  191POPC   H3S22031   0.277   5.887   6.727  1.2513 -1.1838  4.2112
  191POPC   C2422032   0.117   5.894   6.870  0.1838 -0.3340  0.3602
  191POPC   H4R22033   0.118   5.784   6.880  0.9391 -0.4670 -1.0309
  191POPC   H4S22034   0.013   5.934   6.875 -0.0077 -0.6322 -1.0255
  191POPC   C2522035   0.194   5.951   6.990 -0.3785  0.5860 -0.5310
  191POPC   H5R22036   0.198   6.062   6.981 -0.8893  0.8648  1.8988
  191POPC   H5S22037   0.302   5.926   6.981 -0.6376 -0.5832 -0.5664
  191POPC   C2622038   0.123   5.918   7.121  0.7358  0.2489  0.4720
  191POPC   H6R22039   0.092   5.811   7.132 -3.4644  1.3598  1.3351
  191POPC   H6S22040   0.022   5.963   7.114  0.5525 -0.2102  0.0504
  191POPC   C2722041   0.192   5.970   7.244 -0.6802 -0.3777 -0.4685
  191POPC   H7R22042   0.230   6.071   7.219  1.3546 -1.3019 -1.3038
  191POPC   H7S22043   0.278   5.914   7.285  1.7641  2.9029 -0.7725
  191POPC   C2822044   0.088   5.979   7.365  0.5166  0.2102  0.4153
  191POPC   H8R22045   0.039   5.883   7.395  1.0131 -0.2893 -0.3228
  191POPC   H8S22046   0.000   6.035   7.327  1.1246  1.4055  0.7135
  191POPC   C2922047   0.153   6.060   7.473  0.7036 -0.2364  0.0799
  191POPC   H9122048   0.231   6.130   7.439  1.7814 -1.0376  0.8276
  191POPC  C21022049   0.127   6.054   7.601  0.7275 -0.1062  0.4743
  191POPC  H10122050   0.189   6.106   7.675  1.8550 -0.7566  0.0028
  191POPC  C21122051   0.019   5.965   7.660  0.1761 -0.8002  0.6768
  191POPC  H11R22052  -0.034   5.906   7.582  1.6581 -0.0507 -0.9636
  191POPC  H11S22053  -0.051   6.031   7.714  0.7978  0.6696 -0.2633
  191POPC  C21222054   0.089   5.871   7.758 -0.1677 -0.4289  0.0835
  191POPC  H12R22055   0.161   5.810   7.699  0.7556 -0.9587  1.7166
  191POPC  H12S22056   0.022   5.806   7.819 -0.2271 -0.0498  0.4250
  191POPC  C21322057   0.163   5.943   7.873  0.3436 -0.1757  0.2812
  191POPC  H13R22058   0.112   6.033   7.914  0.9919  0.7123 -0.8059
  191POPC  H13S22059   0.257   5.988   7.833 -0.0735 -0.0620 -0.5889
  191POPC  C21422060   0.216   5.851   7.994  0.3474 -0.5050 -0.0534
  191POPC  H14R22061   0.308   5.801   7.958  0.8233 -1.6609  2.5171
  191POPC  H14S22062   0.138   5.776   8.015  1.4777 -1.9148 -0.7140
  191POPC  C21522063   0.252   5.936   8.124  0.5792 -0.0071  0.0233
  191POPC  H15R22064   0.166   5.994   8.164 -0.2787 -0.8203 -0.5885
  191POPC  H15S22065   0.337   6.005   8.110  1.2866 -0.9642 -0.5854
  191POPC  C21622066   0.302   5.845   8.234  0.0006  0.5622 -0.6944
  191POPC  H16R22067   0.232   5.760   8.248  0.5579  0.3340  0.9537
  191POPC  H16S22068   0.290   5.894   8.333  1.2302  1.1345 -0.8202
  191POPC  C21722069   0.450   5.810   8.233  0.0436 -0.3356  0.5488
  191POPC  H17R22070   0.498   5.909   8.249 -3.8540  2.0703 -1.2209
  191POPC  H17S22071   0.491   5.768   8.139  1.0250 -0.3540  0.9715
  191POPC  C21822072   0.488   5.715   8.348 -0.5309  0.4042  0.4889
  191POPC  H18R22073   0.566   5.650   8.303  0.3027  1.7340 -0.0509
  191POPC  H18S22074   0.403   5.649   8.377 -1.5477  2.2676  2.0129
  191POPC  H18T22075   0.533   5.752   8.442 -1.1412 -1.7717  1.7019
  191POPC   C3322076   0.642   5.786   6.880  0.0119 -0.4607  0.6858
  191POPC   H3X22077   0.618   5.892   6.857 -1.2537 -0.9509 -0.3912
  191POPC   H3Y22078   0.748   5.770   6.853  0.0052 -1.7635  1.3231
  191POPC   C3422079   0.609   5.758   7.030  0.4971 -0.1487  0.1726
  191POPC   H4X22080   0.556   5.660   7.037  0.6552 -0.4527 -2.0993
  191POPC   H4Y22081   0.547   5.848   7.046 -0.8987 -1.1230  0.4668
  191POPC   C3522082   0.717   5.731   7.127  0.6608  1.3324  0.4287
  191POPC   H5X22083   0.802   5.802   7.124  1.7474  0.0426 -0.8586
  191POPC   H5Y22084   0.765   5.632   7.106  0.8070  1.7214 -1.1380
  191POPC   C3622085   0.674   5.713   7.275  0.4100 -1.0895 -0.2039
  191POPC   H6X22086   0.761   5.711   7.345  0.3959 -2.8585 -0.1954
  191POPC   H6Y22087   0.617   5.618   7.283 -1.9745  0.4240  1.9591
  191POPC   C3722088   0.578   5.821   7.315  0.0716 -0.3787  1.0684
  191POPC   H7X22089   0.496   5.821   7.239  0.8501  2.2327  0.1324
  191POPC   H7Y22090   0.625   5.920   7.294 -0.4733 -0.5111 -1.0216
  191POPC   C3822091   0.518   5.806   7.457  0.0710  0.5965 -1.0329
  191POPC   H8X22092   0.464   5.709   7.463 -0.5585  1.0251  0.6742
  191POPC   H8Y22093   0.442   5.885   7.477 -0.5295 -0.3259  0.4509
  191POPC   C3922094   0.632   5.823   7.557  0.3177 -0.5313  0.0663
  191POPC   H9X22095   0.694   5.911   7.528 -0.4149 -0.4512 -1.3517
  191POPC   H9Y22096   0.699   5.736   7.541 -2.0790 -2.2942 -0.8927
  191POPC  C31022097   0.587   5.836   7.702  0.4918  0.6455 -0.4092
  191POPC  H10X22098   0.550   5.743   7.750  0.7076  1.1402  0.7453
  191POPC  H10Y22099   0.506   5.912   7.701  0.8336  1.0478 -2.4885
  191POPC  C31122100   0.707   5.875   7.795 -0.3333  0.0422 -0.0061
  191POPC  H11X22101   0.744   5.975   7.762  0.5442 -0.7568 -1.5795
  191POPC  H11Y22102   0.787   5.800   7.779  0.3041  0.7361 -0.1573
  191POPC  C31222103   0.661   5.889   7.949  0.3537  0.1373  0.2129
  191POPC  H12X22104   0.661   5.788   7.995  4.6083  0.7016  1.9450
  191POPC  H12Y22105   0.561   5.936   7.943  1.1196  2.1074  1.9261
  191POPC  C31322106   0.772   5.970   8.024 -0.0997  0.6492  0.3152
  191POPC  H13X22107   0.806   6.050   7.955  3.0311 -1.1997 -0.4952
  191POPC  H13Y22108   0.869   5.917   8.040  0.7672  1.3058 -2.2866
  191POPC  C31422109   0.744   6.015   8.166 -0.2739  0.3281  0.3974
  191POPC  H14X22110   0.726   5.925   8.230  0.7832  0.7692  1.3446
  191POPC  H14Y22111   0.654   6.080   8.170 -0.1211  0.5907 -0.3644
  191POPC  C31522112   0.860   6.098   8.225 -0.4646  0.5981 -0.3858
  191POPC  H15X22113   0.829   6.166   8.307  1.8104  0.6849  0.4835
  191POPC  H15Y22114   0.903   6.165   8.148 -1.4584  1.1110 -0.5178
  191POPC  C31622115   0.971   6.008   8.288 -0.8285 -0.0605  0.0036
  191POPC  H16X22116   1.055   6.073   8.320 -1.8414  1.5932 -0.5861
  191POPC  H16Y22117   1.009   5.940   8.209  2.0062  1.6441 -0.2216
  191POPC  H16Z22118   0.933   5.941   8.368 -0.7694 -0.7647 -0.5535
  192POPC     N22119   0.864   0.504   5.768 -0.2384 -0.6954  0.0665
  192POPC   C1222120   0.858   0.490   5.922 -0.7716 -0.0216  0.0595
  192POPC  H12A22121   0.753   0.475   5.939 -1.1683  1.0896 -1.2165
  192POPC  H12B22122   0.895   0.576   5.976 -0.5280 -0.0792 -0.0132
  192POPC   C1322123   0.783   0.394   5.702 -0.1767 -0.3295 -0.2488
  192POPC  H13A22124   0.809   0.303   5.753  0.0219  1.2452  2.6893
  192POPC  H13B22125   0.676   0.403   5.715 -0.2513 -0.8247 -0.5022
  192POPC  H13C22126   0.794   0.398   5.595 -4.0918  2.9967 -0.7793
  192POPC   C1422127   0.798   0.637   5.733 -0.2409  0.2297 -0.6736
  192POPC  H14A22128   0.819   0.643   5.627 -0.8429  2.3116 -0.7124
  192POPC  H14B22129   0.691   0.638   5.742 -0.2130  0.5242 -0.3572
  192POPC  H14C22130   0.847   0.725   5.771  1.5248 -0.4823 -1.1796
  192POPC   C1522131   1.005   0.499   5.724 -0.1659  0.6332  0.0678
  192POPC  H15A22132   1.063   0.577   5.772  1.9194 -2.3439  2.7702
  192POPC  H15B22133   1.013   0.494   5.616  0.6213 -0.2018  0.1560
  192POPC  H15C22134   1.051   0.405   5.747  1.3725  0.5820 -2.7512
  192POPC   C1122135   0.935   0.379   5.991 -0.4806  0.7576  0.2296
  192POPC  H11A22136   0.946   0.401   6.100  1.0002 -0.5483  0.3978
  192POPC  H11B22137   1.043   0.375   5.965 -0.5132  1.7743 -0.1053
  192POPC     P22138   0.927   0.112   5.948  0.0010  0.1844  0.1455
  192POPC   O1322139   0.961   0.098   5.805  0.1958 -0.0696 -0.5747
  192POPC   O1422140   0.835   0.011   6.001  0.4500  0.1106 -0.3283
  192POPC   O1222141   0.858   0.253   5.971  0.7178 -0.1299 -0.4850
  192POPC   O1122142   1.055   0.126   6.044 -0.3658 -0.2230  0.7846
  192POPC    C122143   1.027   0.094   6.184  0.6862  0.0613  0.5232
  192POPC    HA22144   0.975  -0.004   6.190  2.1113 -0.8698 -1.2556
  192POPC    HB22145   0.956   0.167   6.229 -0.3558 -0.1767 -0.6656
  192POPC    C222146   1.159   0.082   6.266  0.2804  0.0476  0.3080
  192POPC    HS22147   1.232   0.024   6.206  0.9236  1.2894 -0.1444
  192POPC   O2122148   1.126   0.013   6.387  0.3176 -0.7265 -0.7606
  192POPC   C2122149   1.204  -0.088   6.416 -0.3871  0.0225 -0.5541
  192POPC   O2222150   1.314  -0.118   6.367  0.0064  0.4908  0.2472
  192POPC   C2222151   1.153  -0.160   6.540 -0.3171  0.0698  0.2741
  192POPC   H2R22152   1.107  -0.253   6.499 -1.8149 -0.1503  2.2770
  192POPC   H2S22153   1.080  -0.089   6.584  0.6603  2.1287 -1.2948
  192POPC    C322154   1.218   0.225   6.297  0.3350 -0.7937  0.2198
  192POPC    HX22155   1.140   0.297   6.330  1.9128  0.9731  0.3133
  192POPC    HY22156   1.250   0.264   6.198 -0.1016 -0.0628  0.3600
  192POPC   O3122157   1.332   0.220   6.389  0.3636 -0.1366 -0.0267
  192POPC   C3122158   1.374   0.345   6.429 -0.0427  0.2687 -0.1645
  192POPC   O3222159   1.335   0.451   6.381 -0.0585  0.0122 -0.0537
  192POPC   C3222160   1.476   0.343   6.554 -0.5394  1.1137  1.3018
  192POPC   H2X22161   1.574   0.365   6.506 -0.6953  0.1728  0.5193
  192POPC   H2Y22162   1.486   0.237   6.584  0.3925  0.9755  0.5640
  192POPC   C2322163   1.268  -0.184   6.652 -0.4059 -0.7227  1.2973
  192POPC   H3R22164   1.315  -0.084   6.666 -0.8460  0.0758 -1.9690
  192POPC   H3S22165   1.349  -0.248   6.613  0.3993  0.2925  1.2628
  192POPC   C2422166   1.206  -0.226   6.785  1.0632 -0.3308 -0.2604
  192POPC   H4R22167   1.149  -0.321   6.773  0.7149 -0.1019 -0.4442
  192POPC   H4S22168   1.128  -0.149   6.805 -0.1411 -1.3710 -0.7618
  192POPC   C2522169   1.300  -0.228   6.898  0.2955  0.4110 -1.0109
  192POPC   H5R22170   1.328  -0.123   6.921 -0.3198  0.2014  0.8209
  192POPC   H5S22171   1.384  -0.293   6.865 -0.5820 -0.5303 -1.4823
  192POPC   C2622172   1.255  -0.294   7.029  0.1748 -0.6949 -1.2707
  192POPC   H6R22173   1.172  -0.365   7.009 -0.3386 -0.9293  1.3119
  192POPC   H6S22174   1.212  -0.210   7.088  0.3981  0.2417 -2.4020
  192POPC   C2722175   1.361  -0.361   7.114 -0.6014  0.2641 -0.1282
  192POPC   H7R22176   1.453  -0.299   7.116 -0.6528  0.3578  2.0305
  192POPC   H7S22177   1.404  -0.457   7.077 -0.1687 -0.4279  2.0109
  192POPC   C2822178   1.316  -0.389   7.255  0.0563 -0.0778  0.1153
  192POPC   H8R22179   1.223  -0.450   7.258 -0.2737  0.3375  3.5686
  192POPC   H8S22180   1.281  -0.296   7.306 -1.4578  0.2461 -1.4238
  192POPC   C2922181   1.436  -0.453   7.327 -0.2259 -0.8988 -0.2277
  192POPC   H9122182   1.485  -0.538   7.277 -2.5982 -3.1312  1.0006
  192POPC  C21022183   1.482  -0.423   7.449 -0.8212  0.7094 -0.6005
  192POPC  H10122184   1.579  -0.457   7.487 -0.6118  2.2943  0.3562
  192POPC  C21122185   1.425  -0.316   7.539  0.8235 -0.0178 -0.2696
  192POPC  H11R22186   1.314  -0.322   7.534  0.6249  1.1935  1.4474
  192POPC  H11S22187   1.451  -0.213   7.507  1.2963  0.3120  1.0970
  192POPC  C21222188   1.476  -0.339   7.681  0.2805  0.1010 -0.7645
  192POPC  H12R22189   1.435  -0.254   7.738 -1.4149 -1.1884  0.0355
  192POPC  H12S22190   1.587  -0.341   7.684  0.2913 -1.4069 -1.2757
  192POPC  C21322191   1.418  -0.463   7.745  0.2968  0.0676  0.4421
  192POPC  H13R22192   1.326  -0.487   7.687 -0.3563  0.1546  1.4215
  192POPC  H13S22193   1.392  -0.428   7.847  1.9141  2.7241  0.0358
  192POPC  C21422194   1.507  -0.585   7.741  0.0385  0.7324 -0.3852
  192POPC  H14R22195   1.538  -0.610   7.637 -1.0931 -0.7724 -0.3784
  192POPC  H14S22196   1.436  -0.667   7.762  0.7094  0.5991  1.5637
  192POPC  C21522197   1.630  -0.578   7.846  0.2260  0.4698 -0.9728
  192POPC  H15R22198   1.620  -0.494   7.919 -0.1310 -0.1217 -0.3355
  192POPC  H15S22199   1.720  -0.560   7.783  0.6629 -1.0366 -0.8006
  192POPC  C21622200   1.632  -0.711   7.922  0.0370 -0.1416  0.1439
  192POPC  H16R22201   1.663  -0.798   7.860 -2.0840 -2.1811  1.7642
  192POPC  H16S22202   1.535  -0.738   7.970  0.3092 -0.3971  0.5585
  192POPC  C21722203   1.735  -0.717   8.040  0.5757 -0.0616 -0.0173
  192POPC  H17R22204   1.742  -0.822   8.076  1.4108  0.0226  0.0732
  192POPC  H17S22205   1.689  -0.652   8.117  1.5032  1.2071 -0.5171
  192POPC  C21822206   1.872  -0.669   8.005 -0.1932 -0.0207 -0.3601
  192POPC  H18R22207   1.918  -0.686   7.906  0.3419 -0.5535 -0.0267
  192POPC  H18S22208   1.940  -0.704   8.086 -1.6336 -2.2718 -0.0296
  192POPC  H18T22209   1.864  -0.561   8.027  2.4383  0.3511 -0.9271
  192POPC   C3322210   1.453   0.457   6.654  0.0511 -0.2414 -0.3093
  192POPC   H3X22211   1.364   0.435   6.716  0.2539 -0.3192 -0.0450
  192POPC   H3Y22212   1.430   0.545   6.591  0.4001  0.1761  0.1386
  192POPC   C3422213   1.563   0.481   6.757 -0.8665 -0.1791  0.3346
  192POPC   H4X22214   1.533   0.569   6.817  1.6763  0.2744  1.0773
  192POPC   H4Y22215   1.657   0.504   6.703 -1.2463 -0.4939 -0.4745
  192POPC   C3522216   1.593   0.368   6.852 -0.2224  0.7324 -0.3849
  192POPC   H5X22217   1.598   0.270   6.800 -0.7636 -0.3533  1.4800
  192POPC   H5Y22218   1.524   0.375   6.939 -0.8743  4.0250 -1.0368
  192POPC   C3622219   1.735   0.382   6.918 -0.2228  0.1811  0.4622
  192POPC   H6X22220   1.812   0.401   6.840 -1.0958 -1.3012 -0.8343
  192POPC   H6Y22221   1.765   0.287   6.967  0.1988 -1.1765 -2.2079
  192POPC   C3722222   1.754   0.501   7.014  0.1585 -0.1655 -0.2798
  192POPC   H7X22223   1.693   0.587   6.979 -0.2442 -1.0875 -1.9660
  192POPC   H7Y22224   1.856   0.541   6.997 -0.4433  1.2057 -0.8493
  192POPC   C3822225   1.732   0.459   7.164 -0.2093 -0.5328 -1.0237
  192POPC   H8X22226   1.790   0.365   7.178  2.7948  1.3520  0.0522
  192POPC   H8Y22227   1.628   0.432   7.192 -0.4613  0.6018 -0.8421
  192POPC   C3922228   1.783   0.563   7.263  0.2862 -0.3793 -0.1790
  192POPC   H9X22229   1.712   0.649   7.260 -0.0300 -0.5654  1.1777
  192POPC   H9Y22230   1.884   0.598   7.235 -0.5169  2.8887  0.5980
  192POPC  C31022231   1.780   0.512   7.404  0.4466 -0.6453 -0.0939
  192POPC  H10X22232   1.869   0.446   7.414  1.1326  0.4985  1.7211
  192POPC  H10Y22233   1.690   0.454   7.434  1.4483 -2.4184 -0.3490
  192POPC  C31122234   1.798   0.633   7.501  0.0520  0.1148  0.0007
  192POPC  H11X22235   1.727   0.714   7.473 -0.3556 -0.4120 -0.5261
  192POPC  H11Y22236   1.895   0.678   7.471 -1.3053  1.6065 -2.5305
  192POPC  C31222237   1.779   0.607   7.651  0.0807  0.3562  0.1037
  192POPC  H12X22238   1.820   0.507   7.675  1.2212  1.2438  2.1009
  192POPC  H12Y22239   1.673   0.617   7.682  0.3978 -3.7138  3.3171
  192POPC  C31322240   1.858   0.703   7.740 -0.7224  0.2002 -0.2290
  192POPC  H13X22241   1.856   0.805   7.695  0.0875 -0.1603 -1.1172
  192POPC  H13Y22242   1.959   0.657   7.736 -1.2188 -1.1861  1.6392
  192POPC  C31422243   1.812   0.708   7.886 -0.1680  0.1042  1.0790
  192POPC  H14X22244   1.791   0.606   7.925 -0.8875 -0.4139 -0.5994
  192POPC  H14Y22245   1.715   0.760   7.894  0.0966  0.4875  1.8782
  192POPC  C31522246   1.911   0.793   7.979  0.3990  0.5516  0.8663
  192POPC  H15X22247   1.859   0.795   8.077 -3.8105 -1.3762 -1.0660
  192POPC  H15Y22248   1.914   0.896   7.939 -1.2070  0.2810 -0.0515
  192POPC  C31622249   2.043   0.733   7.989 -0.2565 -0.0040  0.3101
  192POPC  H16X22250   2.106   0.796   8.055 -0.5734 -0.3698  0.9791
  192POPC  H16Y22251   2.090   0.718   7.889  0.5575 -0.3363  0.7329
  192POPC  H16Z22252   2.036   0.629   8.028 -1.4084 -0.0948 -0.0943
  193SOD    SOD22253   6.349   5.862   6.362 -0.0101  0.3112 -0.0792
  194SOD    SOD22254   0.306   6.451  12.422  0.2771 -0.5713 -0.2383
  195SOD    SOD22255   4.483   3.183   2.562  0.1054 -0.1488  0.1977
  196SOD    SOD22256   4.528   6.253   1.076  0.0099 -0.7420  0.4007
  197SOD    SOD22257   6.492   2.230  14.986 -0.8935  0.0746  0.2513
  198SOD    SOD22258   1.805   4.931  16.992 -0.3915  0.2003 -0.1314
  199SOD    SOD22259   5.936   1.527  16.173  0.1957 -0.0705  0.1601
  200SOD    SOD22260   6.218   0.318  10.997  0.2049 -0.1302  0.5070
  201SOD    SOD22261   3.556   1.895   3.069 -0.1328  0.4024 -0.1101
  202SOD    SOD22262   0.881   3.206   5.554  0.3143 -0.0632  0.4696
  203SOD    SOD22263   4.792   1.910   2.413 -0.3344 -0.1493  0.3120
  204SOD    SOD22264   6.163   5.816  11.464  0.8826 -0.0059 -0.2196
  205SOD    SOD22265   2.312   3.205   0.989  0.1046 -0.1080 -0.5647
  206SOD    SOD22266   5.949   5.070   0.702 -0.6428  0.3537  0.1968
  207SOD    SOD22267   3.234   0.528   5.900  0.3825  0.0332 -0.6957
  208SOD    SOD22268   1.719   0.788  10.348  0.0436 -0.3833  0.7236
  209SOD    SOD22269   0.643   2.518  11.608  0.3544  0.2764 -0.7325
  210SOD    SOD22270   6.810   2.963   4.885 -0.1599  0.4068 -0.0860
  211SOD    SOD22271   0.207   1.688  14.485 -0.1186 -0.1193  0.3633
  212SOD    SOD22272   0.932   6.189  10.582  0.2729 -0.0595  0.3510
  213SOD    SOD22273   4.086   3.920   5.652 -0.7969  0.4140 -0.2022
  214SOD    SOD22274   1.201   4.991   3.287  0.2793 -0.2567 -0.4181
  215SOD    SOD22275   2.569   5.589   1.477  0.1748 -0.0110  0.3751
  216SOD    SOD22276   0.253   3.568  16.635 -0.4991  0.2814 -0.2402
  217SOD    SOD22277   3.083   5.381  12.063  0.4206 -0.1343 -0.0260
  218SOD    SOD22278   4.245   5.215   3.311  0.5763 -0.0173  0.2853
  219SOD    SOD22279   0.174   4.047   5.726  0.5336  0.1465 -0.3302
  220SOD    SOD22280   2.182   2.581  17.039  0.1490  0.6465  0.0888
  221SOD    SOD22281   2.425   0.649   0.263 -0.0361 -0.4767  0.6705
  222SOD    SOD22282   0.436   2.029  10.926  0.2079 -0.3250  0.0347
  223SOD    SOD22283   3.074   0.632   4.660  0.4464  0.1379  0.3271
  224SOD    SOD22284   2.931   6.799  16.063  0.1696 -0.2374  0.0700
  225SOD    SOD22285   5.681   6.142  11.148  0.0997 -0.3915 -0.4982
  226SOD    SOD22286   4.796   4.391  14.808  0.3009  0.0113  0.3559
  227SOD    SOD22287   6.570   6.669   4.379 -0.1424  0.0098 -0.4445
  228SOD    SOD22288   0.133   5.008   1.425  0.1057 -0.1077 -0.0594
  229SOD    SOD22289   5.884   2.607   1.886 -0.1492 -0.2200 -0.1084
  230SOD    SOD22290   0.195   2.583   0.071  0.4659 -0.0581 -0.0203
  231SOD    SOD22291   3.643   0.826   2.682  0.3795  0.1032  0.0070
  232SOD    SOD22292   3.981   0.241  15.737 -0.3266 -0.2618 -0.2228
  233SOD    SOD22293   6.098   3.142  13.602 -0.3348 -0.5180  0.5603
  234SOD    SOD22294   4.904   2.611  13.596  0.2274  0.0050 -0.0777
  235SOD    SOD22295   6.667   4.635   0.208 -0.5494  0.3259 -0.1707
  236SOD    SOD22296   6.318   5.731  10.559 -0.1191 -0.8115  0.1135
  237SOD    SOD22297   1.767   1.103   1.699  0.0476  0.1846  0.2071
  238SOD    SOD22298   2.294   1.832  14.740 -0.0989 -0.1175  0.0703
  239SOD    SOD22299   1.781   3.709  14.112  0.2538 -0.2187 -0.2808
  240SOD    SOD22300   3.651   3.110  13.946  0.0557  0.1597  0.1201
  241SOD    SOD22301   6.493   3.798   2.358  0.2234  0.1708  0.2445
  242SOD    SOD22302   4.837   5.951  12.752 -0.5348 -0.0624  0.1295
  243SOD    SOD22303   5.197   5.992   5.709  0.0081  0.1564 -0.3409
  244SOD    SOD22304   3.367   2.130  12.873 -0.1988 -0.3824  0.3535
  245SOD    SOD22305   2.008   5.714  11.738 -0.5409  0.3400 -0.1850
  246SOD    SOD22306   3.885   2.373   5.615 -0.0534  0.1088 -0.6237
  247SOD    SOD22307   5.384   6.586   2.558  0.3939  0.4077 -0.3193
  248SOD    SOD22308   2.596   0.262   2.652  0.1064  0.3520 -0.7177
  249SOD    SOD22309   1.098   2.748  16.516 -0.5551  0.0900 -0.1436
  250SOD    SOD22310   6.394   5.491  14.644 -0.0335  0.3827  0.4487
  251SOD    SOD22311   1.525   3.350  10.864  0.1213  0.3882  0.0470
  252SOD    SOD22312   4.736   5.320  11.049 -0.0824 -0.4482 -0.3419
  253SOD    SOD22313   1.641   4.105  11.066 -0.5837 -0.4923 -0.0757
  254SOD    SOD22314   5.818   4.636   5.653  0.1204  0.1911 -0.4154
  255SOD    SOD22315   0.849   3.156  11.015 -0.1907  0.2963 -0.2569
  256SOD    SOD22316   3.063   2.277  15.485  0.3952 -0.0181  0.0869
  257SOD    SOD22317   1.975   0.375   1.297 -0.1229  0.6620 -0.2147
  258SOD    SOD22318   3.647   6.279   0.643 -0.4198  0.0928  0.1546
  259SOD    SOD22319   5.602   3.359  15.384 -0.4675  0.1094  0.3306
  260SOD    SOD22320   0.231   6.406   2.189 -0.2264  0.3736 -0.1667
  261SOD    SOD22321   6.338   4.784   5.153 -0.4862 -0.3619  0.4428
  262SOD    SOD22322   2.818   6.762  12.762  0.1929 -0.8210  0.0919
  263SOD    SOD22323   5.422   6.000   0.964 -0.0363 -0.2228 -0.0729
  264SOD    SOD22324   6.185   1.276  14.096  0.2479 -0.1111 -0.5191
  265SOD    SOD22325   5.414   6.263  16.403 -0.1967 -0.1080 -0.2629
  266SOD    SOD22326   5.377   2.534  13.871  0.0375 -0.3982 -0.6436
  267SOD    SOD22327   3.097   1.110   5.820  0.3336  0.1114  0.1183
  268SOD    SOD22328   3.210   2.366   6.368  0.1681 -0.5019  0.2151
  269SOD    SOD22329   0.487   2.801   6.217  0.5746 -0.2504 -0.1697
  270CLA    CLA22330   2.906   2.539  13.975 -0.4185  0.0092  0.2387
  271CLA    CLA22331   2.645   0.445   1.722 -0.1888  0.1942  0.0505
  272CLA    CLA22332   6.513   5.883  16.128  0.2638 -0.2648  0.0329
  273CLA    CLA22333   4.324   5.967   3.012 -0.2675 -0.3336  0.7418
  274CLA    CLA22334   6.048   1.367   1.244  0.3901  0.2161  0.0439
  275CLA    CLA22335   0.123   3.545  17.046  0.2781  0.1769  0.0639
  276CLA    CLA22336   4.711   3.696   0.745 -0.2339 -0.3826 -0.5443
  277CLA    CLA22337   2.254   4.163  14.590 -0.2713  0.2166 -0.7167
  278CLA    CLA22338   6.734   1.107   0.279 -0.0029 -0.2819 -0.0860
  279CLA    CLA22339   4.781   4.275  15.549 -0.0284  0.2948  0.1520
  280CLA    CLA22340   0.422   5.929   1.442  0.0961  0.0354  0.0673
  281CLA    CLA22341   5.324   5.760   1.842  0.5665  0.0031 -0.3092
  282CLA    CLA22342   1.649   4.676   3.435  0.0015 -0.2243  0.2901
  283CLA    CLA22343   3.495   0.872   4.936 -0.1999 -0.1338 -0.4568
  284CLA    CLA22344   0.665   6.099  15.215  0.2922  0.0262  0.6369
  285CLA    CLA22345   3.211   3.144   1.854 -0.4090  0.1273  0.4236
  286CLA    CLA22346   1.300   0.677  13.526 -0.5218  0.2112  0.0212
  287CLA    CLA22347   6.563   1.887  14.583 -0.4340  0.4178  0.1182
  288CLA    CLA22348   3.209   1.535  13.535  0.1872 -0.2349  0.1889
  289CLA    CLA22349   4.663   6.559   1.498  0.2757  0.3463 -0.0946
  290CLA    CLA22350   4.013   5.658   4.380 -0.3504 -0.1835  0.1705
  291CLA    CLA22351   0.544   2.982   4.949  0.1454 -0.0331 -0.1437
  292CLA    CLA22352   0.719   4.749  14.126  0.1669  0.2455 -0.0224
  293CLA    CLA22353   0.686   0.365   1.759  0.1052  0.2889 -0.1921
  294CLA    CLA22354   4.562   1.987   0.022  0.2909  0.2562  0.0722
  295CLA    CLA22355   0.572   2.028  14.929  0.0274 -0.0393 -0.4027
  296CLA    CLA22356   3.130   2.490   1.479  0.2708 -0.3810  0.2145
  297CLA    CLA22357   3.249   5.671   0.906 -0.0630  0.1918  0.2151
  298CLA    CLA22358   3.784   2.132   3.739  0.1624 -0.5019 -0.3446
  299CLA    CLA22359   1.944   0.212  13.980  0.2325  0.3935 -0.0635
  300CLA    CLA22360   6.079   5.918   0.536 -0.1308  0.1091  0.0255
  301CLA    CLA22361   6.401   5.367  11.407 -0.3875 -0.1705  0.2101
  302CLA    CLA22362   5.965   3.757  12.006 -0.7624  0.0715  0.7231
  303CLA    CLA22363   2.140   6.367  15.770 -0.1569 -0.3804 -0.6985
  304CLA    CLA22364   5.450   3.848  12.676 -0.2697 -0.8389  0.5071
  305CLA    CLA22365   6.810   6.051  14.925 -0.3926 -0.1266 -0.3198
  306CLA    CLA22366   3.944   6.450   1.411 -0.2968  0.1354  0.3097
  307CLA    CLA22367   4.769   0.494  14.752  0.5317 -0.1194  0.1186
  308CLA    CLA22368   2.081   0.066  15.740 -0.1539  0.4633 -0.1525
  309CLA    CLA22369   6.702   4.889   0.991  0.0903  0.0160  0.0838
  310CLA    CLA22370   1.574   1.292   1.649  0.3979 -0.0824 -0.0865
  311CLA    CLA22371   6.269   1.706  15.827 -0.0762 -0.0538  0.2352
  312CLA    CLA22372   5.745   1.298  13.524  0.1165 -0.0472 -0.1583
  313CLA    CLA22373   2.401   4.291  16.598 -0.1158 -0.0685 -0.2776
  314CLA    CLA22374   6.359   4.066   4.415 -0.4968  0.3718  0.2678
  315CLA    CLA22375   1.289   4.958  16.610  0.1324  0.0401 -0.0618
  316CLA    CLA22376   2.377   5.312  12.715  0.2243  0.1882 -0.3806
  317CLA    CLA22377   4.223   3.535   4.781  0.0336  0.2057 -0.2961
  318CLA    CLA22378   2.434   5.267   1.892 -0.0263 -0.1445  0.0231
  319CLA    CLA22379   6.099   0.335  16.043 -0.0957  0.2577 -0.4227
  320CLA    CLA22380   0.418   4.571  15.788  0.0798  0.1518 -0.3992
  321CLA    CLA22381   0.442   2.156   3.485 -0.5008  0.0765 -0.4182
  322CLA    CLA22382   1.144   2.919  12.850 -0.0039 -0.2944  0.0789
  323TIP3   OH222383   0.759   0.949   3.206 -0.1433  0.5572 -0.2874
  323TIP3    H122384   0.832   0.920   3.152 -0.1772  0.7817 -0.4521
  323TIP3    H222385   0.798   0.967   3.292 -0.4001 -1.7206  0.3759
  324TIP3   OH222386   3.964   0.187   0.621 -0.2490  0.8342 -0.0264
  324TIP3    H122387   3.935   0.242   0.549 -1.6594 -0.6282 -0.6516
  324TIP3    H222388   4.050   0.155   0.595 -1.0674 -0.2841 -1.4450
  325TIP3   OH222389   1.123   2.372   3.121  0.8772  0.0429 -0.0250
  325TIP3    H122390   1.185   2.438   3.153  1.5953 -0.0027 -1.2290
  325TIP3    H222391   1.172   2.326   3.052 -0.2212 -0.5674 -0.4175
  326TIP3   OH222392   6.288   6.457  11.509 -1.0211 -0.4380 -0.6054
  326TIP3    H122393   6.216   6.474  11.447 -2.0301 -1.2699  0.2958
  326TIP3    H222394   6.253   6.391  11.568 -0.1258  0.4308  0.9393
  327TIP3   OH222395   0.161   1.603  15.734 -0.1205  0.5129 -0.5651
  327TIP3    H122396   0.122   1.668  15.676 -0.4366  0.3510 -0.5333
  327TIP3    H222397   0.149   1.519  15.689 -0.3590  0.3883 -0.2730
  328TIP3   OH222398   6.410   4.464   0.864  0.4114 -0.0844 -0.3026
  328TIP3    H122399   6.461   4.545   0.867  0.5351 -0.1815  0.3667
  328TIP3    H222400   6.386   4.447   0.955 -0.4166 -0.3002 -0.5528
  329TIP3   OH222401   4.360   4.751   1.035  0.6234 -0.0042 -0.1317
  329TIP3    H122402   4.345   4.797   0.953  0.6180  0.4834  0.1396
  329TIP3    H222403   4.274   4.749   1.078  0.8344  0.6679  0.3335
  330TIP3   OH222404   2.183   3.930  13.042 -0.1652 -0.6122  0.2767
  330TIP3    H122405   2.221   3.970  12.963 -1.0478 -0.0403  0.1238
  330TIP3    H222406   2.088   3.938  13.029 -0.3924  1.7846  2.4797
  331TIP3   OH222407   3.059   1.223  16.456 -0.3967  0.3199  0.6159
  331TIP3    H122408   3.037   1.139  16.497 -0.1899  0.4582  1.0105
  331TIP3    H222409   3.040   1.210  16.363  1.6899 -0.8734  0.2962
  332TIP3   OH222410   2.566   4.383   0.810 -0.3060 -0.0085  0.1411
  332TIP3    H122411   2.481   4.365   0.769  0.5429  2.5866 -3.1238
  332TIP3    H222412   2.626   4.321   0.769 -0.3748 -1.2898  1.8580
  333TIP3   OH222413   5.420   5.993  14.905 -0.5049  0.8879  0.2549
  333TIP3    H122414   5.503   5.950  14.926 -0.4693  0.6022 -0.4601
  333TIP3    H222415   5.388   6.024  14.990 -0.4102 -0.3305  0.7690
  334TIP3   OH222416   3.119   6.716   3.128  0.5607  0.1009  0.4231
  334TIP3    H122417   3.209   6.748   3.128  0.6775 -0.2240  0.9828
  334TIP3    H222418   3.113   6.664   3.048 -0.4229  3.6114 -2.0477
  335TIP3   OH222419   2.139   2.329  10.535 -0.3000 -0.3757 -0.0334
  335TIP3    H122420   2.120   2.418  10.505  0.0558 -0.1540  0.4006
  335TIP3    H222421   2.078   2.314  10.607  1.4235  0.5255  1.7093
  336TIP3   OH222422   5.257   3.685  13.699  0.2138  0.5651  0.3769
  336TIP3    H122423   5.326   3.642  13.749  0.0904 -1.2056 -0.8726
  336TIP3    H222424   5.233   3.762  13.751  1.5533 -0.0206  1.9296
  337TIP3   OH222425   1.795   2.135   5.573  0.3467 -0.0260 -0.0270
  337TIP3    H122426   1.706   2.100   5.582 -0.0943  0.8751 -0.6930
  337TIP3    H222427   1.847   2.060   5.545 -0.1132 -0.6666  0.7802
  338TIP3   OH222428   3.792   0.254  15.585  0.4094  0.1752 -0.0223
  338TIP3    H122429   3.706   0.286  15.611  0.6142  0.7957 -0.1084
  338TIP3    H222430   3.814   0.304  15.507  1.5045  1.1123  0.8525
  339TIP3   OH222431   6.471   0.828   3.095  0.4107 -0.1524 -0.2144
  339TIP3    H122432   6.524   0.862   3.022  0.0111  0.4094 -0.2512
  339TIP3    H222433   6.473   0.898   3.161 -0.2487 -0.1332 -0.2033
  340TIP3   OH222434   4.997   2.739  13.766 -0.3348 -0.1341 -0.1262
  340TIP3    H122435   4.953   2.818  13.796  0.5800  0.9472 -1.4835
  340TIP3    H222436   5.090   2.758  13.777 -0.1282 -1.4767  0.5786
  341TIP3   OH222437   6.662   3.176  12.393  0.1456  1.1611  0.0194
  341TIP3    H122438   6.575   3.215  12.384 -0.9442 -1.1269 -0.0154
  341TIP3    H222439   6.684   3.189  12.485 -0.9834  0.3692  0.4295
  342TIP3   OH222440   1.467   6.094  14.294 -0.5293 -0.6361  0.3331
  342TIP3    H122441   1.413   6.017  14.280  1.0188 -1.5055 -1.2815
  342TIP3    H222442   1.427   6.161  14.238 -0.8824 -0.7881  0.4012
  343TIP3   OH222443   2.354   4.853  12.778 -0.5268  0.1515 -0.0934
  343TIP3    H122444   2.278   4.814  12.821  0.4173 -0.1969  1.3507
  343TIP3    H222445   2.319   4.925  12.726 -1.6072  1.9763  2.9044
  344TIP3   OH222446   5.885   2.012  16.480 -0.1497  0.1391  0.3567
  344TIP3    H122447   5.965   1.966  16.508 -0.7599  0.0824  2.1298
  344TIP3    H222448   5.910   2.104  16.477  0.3466 -0.0104 -0.5280
  345TIP3   OH222449   3.835   4.467   3.201 -0.7034  0.7409 -0.5997
  345TIP3    H122450   3.797   4.452   3.287  3.0358  1.7101  1.4407
  345TIP3    H222451   3.854   4.380   3.168 -1.3695  0.3805 -0.0613
  346TIP3   OH222452   4.761   2.872   6.017 -0.0814 -0.0440  0.4709
  346TIP3    H122453   4.705   2.903   6.088  0.5739  0.6863  0.6820
  346TIP3    H222454   4.752   2.776   6.020  0.9886 -0.1336  2.4332
  347TIP3   OH222455   0.229   4.737   4.667 -0.3923 -0.0587  0.3819
  347TIP3    H122456   0.140   4.771   4.669 -0.2333  0.4297 -0.6040
  347TIP3    H222457   0.274   4.783   4.738 -0.0366  2.2546 -1.2217
  348TIP3   OH222458   0.822   6.535   3.655 -0.5128 -0.1505 -0.3137
  348TIP3    H122459   0.734   6.570   3.641 -0.4346 -0.1102 -0.7284
  348TIP3    H222460   0.824   6.454   3.604 -0.2508 -0.0557 -0.4578
  349TIP3   OH222461   2.592   3.804  15.565  0.1835 -0.5545 -0.2644
  349TIP3    H122462   2.662   3.835  15.622  1.2121  0.3642 -1.9469
  349TIP3    H222463   2.612   3.712  15.550  0.7645 -0.4079 -0.3844
  350TIP3   OH222464   1.454   3.349  14.030  0.3307 -0.3300 -0.0393
  350TIP3    H122465   1.416   3.262  14.018 -0.5172 -0.1715  1.3627
  350TIP3    H222466   1.399   3.391  14.095  2.1548  0.3750  1.1174
  351TIP3   OH222467   6.235   0.219   4.579 -0.5334  0.3315 -0.0289
  351TIP3    H122468   6.162   0.278   4.565  0.5334  2.4653  2.5221
  351TIP3    H222469   6.212   0.171   4.659 -0.2365 -0.8877 -0.6467
  352TIP3   OH222470   1.426   6.597   0.916 -0.4427  0.5041  0.2515
  352TIP3    H122471   1.453   6.534   0.983 -0.0575 -0.0671 -0.4209
  352TIP3    H222472   1.334   6.612   0.933 -0.5305 -0.2215  0.4539
  353TIP3   OH222473   4.122   4.924  16.577 -0.4900 -0.8683 -0.0723
  353TIP3    H122474   4.131   4.834  16.608  1.4495 -0.2667  1.3651
  353TIP3    H222475   4.117   4.916  16.482 -0.7194 -2.5071  0.0425
  354TIP3   OH222476   4.887   1.615  15.011  0.5004 -0.6069 -0.2279
  354TIP3    H122477   4.946   1.689  15.029 -0.8979  1.0393 -1.9298
  354TIP3    H222478   4.823   1.617  15.083 -0.6501  1.1296 -1.2282
  355TIP3   OH222479   0.596   3.143   3.929  0.1974  0.1239 -0.1976
  355TIP3    H122480   0.682   3.103   3.941  0.5404  0.6350 -0.8443
  355TIP3    H222481   0.593   3.216   3.992 -0.2313 -0.5961  0.6338
  356TIP3   OH222482   0.560   5.051   5.478  0.0773 -0.7690 -0.0908
  356TIP3    H122483   0.487   4.993   5.498 -1.4836  1.5282  1.3455
  356TIP3    H222484   0.598   5.071   5.563  1.3190 -0.5829 -0.6671
  357TIP3   OH222485   6.107   1.334   2.163  0.1653  0.2704 -0.0246
  357TIP3    H122486   6.119   1.255   2.216 -1.2563  0.5860  0.8428
  357TIP3    H222487   6.189   1.382   2.173  0.8969 -0.8889 -0.2351
  358TIP3   OH222488   1.223   2.130   0.405 -0.3613  0.1656  0.3185
  358TIP3    H122489   1.145   2.133   0.351 -2.2045  0.7926  2.8452
  358TIP3    H222490   1.273   2.208   0.380 -2.1438  1.5297  0.8325
  359TIP3   OH222491   0.737   1.531  12.753  0.7651  0.7590  0.4986
  359TIP3    H122492   0.764   1.622  12.746  2.2157  0.5685  2.7821
  359TIP3    H222493   0.815   1.480  12.730  0.3594  0.0875  0.5641
  360TIP3   OH222494   0.738   0.564  13.409  0.0684  0.2017 -0.3044
  360TIP3    H122495   0.787   0.484  13.391 -1.4609 -0.7352 -0.3661
  360TIP3    H222496   0.646   0.541  13.396 -0.4415  1.8508  0.0940
  361TIP3   OH222497   2.367   6.117  11.892 -0.5443  0.0802 -0.4825
  361TIP3    H122498   2.429   6.190  11.887 -0.4321 -0.0325 -0.7623
  361TIP3    H222499   2.292   6.153  11.939 -0.1581  0.1420  0.1064
  362TIP3   OH222500   2.990   0.962  12.020  0.1380  0.5802 -0.4151
  362TIP3    H122501   2.932   0.916  11.960  0.2638  0.0443 -0.1312
  362TIP3    H222502   2.944   1.043  12.042 -0.8335 -0.1746  0.3947
  363TIP3   OH222503   5.270   1.387   3.033  0.4139  0.4664 -0.3394
  363TIP3    H122504   5.237   1.325   2.968 -0.7776  0.5320  0.1659
  363TIP3    H222505   5.253   1.473   2.994 -0.1501  0.5027 -0.0213
  364TIP3   OH222506   0.302   3.743   2.685  0.2196  0.4407  0.0570
  364TIP3    H122507   0.363   3.754   2.759  0.9200 -1.4194 -0.1815
  364TIP3    H222508   0.350   3.775   2.609 -0.0940  1.3437  0.2230
  365TIP3   OH222509   3.075   6.523  16.794 -0.1899 -0.2019 -0.1138
  365TIP3    H122510   3.034   6.597  16.748 -0.8488  0.5373  1.5798
  365TIP3    H222511   3.166   6.548  16.804 -0.3928  0.3616  0.3789
  366TIP3   OH222512   0.124   5.387   0.127 -0.0097  0.8546  0.2037
  366TIP3    H122513   0.193   5.323   0.112 -1.0517 -0.4220  0.6926
  366TIP3    H222514   0.119   5.437   0.045  1.0838  0.5861 -0.0389
  367TIP3   OH222515   5.844   3.815  13.493 -0.4302  0.4001  0.2873
  367TIP3    H122516   5.866   3.874  13.565 -1.8241  0.2153  0.8980
  367TIP3    H222517   5.782   3.865  13.440 -1.3093 -0.3351  0.5847
  368TIP3   OH222518   6.233   0.110   1.609 -0.1772  0.3502  0.9389
  368TIP3    H122519   6.159   0.101   1.670 -1.3393 -1.0240 -0.5829
  368TIP3    H222520   6.256   0.020   1.586 -0.1546  0.8176 -1.0634
  369TIP3   OH222521   6.752   2.063  14.216 -0.3657 -0.1443  0.3953
  369TIP3    H122522   6.752   1.968  14.223  0.6588 -0.0389  2.7926
  369TIP3    H222523   6.747   2.094  14.307  1.0734  2.0648 -0.1990
  370TIP3   OH222524   5.452   2.326  15.425 -0.3812 -0.3257  0.2987
  370TIP3    H122525   5.404   2.329  15.508 -0.8938  0.0023 -0.0094
  370TIP3    H222526   5.391   2.287  15.363 -0.0403 -0.4549  0.0392
  371TIP3   OH222527   2.000   1.624   1.553  0.1344 -0.0984  0.2752
  371TIP3    H122528   2.049   1.594   1.477 -0.4441  0.5654 -0.3771
  371TIP3    H222529   1.915   1.580   1.546 -0.1028  0.3573  0.2480
  372TIP3   OH222530   1.685   3.076   0.167 -0.1285  0.4642 -0.7685
  372TIP3    H122531   1.607   3.130   0.175 -0.1329  0.4231 -0.5358
  372TIP3    H222532   1.718   3.094   0.079  0.2051  1.2878 -0.4809
  373TIP3   OH222533   2.589   2.658  11.524  0.4181  0.1877 -0.3787
  373TIP3    H122534   2.617   2.704  11.603 -0.0579 -0.0551 -0.0593
  373TIP3    H222535   2.663   2.602  11.501  0.1552 -0.5562  0.5344
  374TIP3   OH222536   2.483   5.918  15.785  0.7372  0.5927  0.0007
  374TIP3    H122537   2.394   5.921  15.820 -0.7596 -2.3507 -2.9421
  374TIP3    H222538   2.535   5.881  15.856 -0.3358  2.3345  1.7767
  375TIP3   OH222539   6.316   4.286  14.811 -0.0725  0.3021 -0.1019
  375TIP3    H122540   6.366   4.330  14.879 -1.5812  1.6447  0.1900
  375TIP3    H222541   6.300   4.198  14.846  1.8317 -0.0973 -0.1232
  376TIP3   OH222542   2.393   6.629  12.081  1.2073  0.0410 -0.6313
  376TIP3    H122543   2.458   6.689  12.119 -0.9436  1.9293  0.3036
  376TIP3    H222544   2.360   6.580  12.157 -1.5588  2.2847 -0.2508
  377TIP3   OH222545   6.341   5.231   0.813  0.5502  0.3056 -0.5728
  377TIP3    H122546   6.368   5.266   0.898  0.1030 -0.8832  0.0787
  377TIP3    H222547   6.367   5.139   0.815 -2.6645 -0.7181 -0.2392
  378TIP3   OH222548   6.660   3.409   6.066  0.4808  0.4899 -0.3010
  378TIP3    H122549   6.700   3.322   6.061 -1.8033 -0.6229 -0.8869
  378TIP3    H222550   6.690   3.445   6.150  2.3838 -0.3549 -0.5792
  379TIP3   OH222551   4.052   1.489  15.790  0.1669 -0.4888  0.7052
  379TIP3    H122552   3.976   1.500  15.733 -0.1507  0.0725  1.2298
  379TIP3    H222553   4.124   1.467  15.730  0.1791  1.5063 -0.0965
  380TIP3   OH222554   5.048   4.920  12.483  0.2348 -0.1440 -0.0571
  380TIP3    H122555   5.107   4.855  12.520 -0.9162 -0.5445  1.1669
  380TIP3    H222556   5.056   4.996  12.540  0.1248  0.0752 -0.3296
  381TIP3   OH222557   3.484   5.044   6.035 -0.3171  0.0237  0.2835
  381TIP3    H122558   3.494   5.135   6.063 -1.3591  0.3120 -0.2493
  381TIP3    H222559   3.390   5.029   6.034 -0.1513 -1.1308  0.5528
  382TIP3   OH222560   3.248   4.110   0.308  0.2560  0.4469 -0.6104
  382TIP3    H122561   3.237   4.034   0.250 -0.7065 -0.1714  0.3458
  382TIP3    H222562   3.179   4.100   0.374  1.6787  0.8134  0.9915
  383TIP3   OH222563   1.231   2.073  12.861 -0.3373 -0.2123 -0.0716
  383TIP3    H122564   1.228   1.988  12.903 -1.5226  0.7234  1.8804
  383TIP3    H222565   1.169   2.066  12.788 -0.2355 -1.0811 -0.0852
  384TIP3   OH222566   1.596   6.527  12.755 -0.0122 -0.4588  0.3076
  384TIP3    H122567   1.512   6.524  12.799  0.1970  0.5735  0.7950
  384TIP3    H222568   1.625   6.618  12.762  0.8341 -0.6453 -0.4431
  385TIP3   OH222569   1.673   2.994   5.428  0.2491  0.2858  0.0762
  385TIP3    H122570   1.627   3.077   5.436 -2.1272 -1.1348  2.9326
  385TIP3    H222571   1.710   2.978   5.514  0.3519 -1.7608 -0.2963
  386TIP3   OH222572   1.516   0.664  13.925 -0.1510  0.3278  0.5746
  386TIP3    H122573   1.482   0.690  13.840 -0.4589  0.8766  0.8580
  386TIP3    H222574   1.559   0.580  13.909 -0.3588  0.3388 -0.0827
  387TIP3   OH222575   1.161   2.004   2.416 -0.1535 -0.1285  0.4594
  387TIP3    H122576   1.067   2.005   2.395 -0.1072 -0.7512  0.1980
  387TIP3    H222577   1.196   2.081   2.372 -0.2674 -0.7692 -0.7769
  388TIP3   OH222578   4.358   2.881  12.028 -0.7913 -0.2373 -0.0900
  388TIP3    H122579   4.268   2.908  12.044  0.2318  4.4408 -0.6634
  388TIP3    H222580   4.371   2.898  11.935  0.1612 -3.0723 -0.5647
  389TIP3   OH222581   2.140   1.936   6.263 -0.0016 -0.3716  0.0997
  389TIP3    H122582   2.222   1.956   6.218  0.3671 -0.5931  0.6720
  389TIP3    H222583   2.149   1.975   6.349 -0.4195 -0.5688  0.2382
  390TIP3   OH222584   6.290   4.365   2.817  0.0639  0.5532  0.0285
  390TIP3    H122585   6.272   4.399   2.905 -0.9716  1.0063 -0.3391
  390TIP3    H222586   6.376   4.400   2.795  0.7302 -0.2996  1.2084
  391TIP3   OH222587   1.536   1.122  12.752  0.0327 -0.3696  0.0516
  391TIP3    H122588   1.591   1.101  12.827 -0.1601  0.3437  0.3939
  391TIP3    H222589   1.593   1.107  12.676  0.9172  0.9813  0.4269
  392TIP3   OH222590   2.106   2.597  10.396 -0.2011  0.5542  0.3241
  392TIP3    H122591   2.082   2.542  10.322 -0.9764  1.1472  0.1162
  392TIP3    H222592   2.045   2.671  10.391  0.6508  1.2968  0.7406
  393TIP3   OH222593   1.598   6.016  12.632  0.0742  0.5822  0.2463
  393TIP3    H122594   1.645   6.094  12.603  0.5892  0.6868  1.3162
  393TIP3    H222595   1.530   6.049  12.691  0.7367  0.1861  1.2579
  394TIP3   OH222596   5.061   1.566  13.560 -0.1758  0.0263 -0.1839
  394TIP3    H122597   5.051   1.474  13.538 -3.1889  0.3967 -0.8471
  394TIP3    H222598   5.131   1.569  13.624 -0.2381 -2.7577  0.0997
  395TIP3   OH222599   3.643   0.154  12.312 -0.3655 -0.1809 -0.0721
  395TIP3    H122600   3.608   0.126  12.396  0.3171 -0.4825  0.1238
  395TIP3    H222601   3.592   0.231  12.288  0.4765  0.8596  1.3754
  396TIP3   OH222602   4.034   0.725   1.443 -0.2095 -0.8958  0.0920
  396TIP3    H122603   4.031   0.756   1.533 -3.5192  0.0274 -0.2174
  396TIP3    H222604   3.996   0.637   1.446 -0.2054 -0.9173 -0.3760
  397TIP3   OH222605   5.012   0.659   3.729  0.1379 -0.1691  0.0567
  397TIP3    H122606   4.938   0.600   3.716 -0.4526  0.7517 -1.0497
  397TIP3    H222607   5.087   0.614   3.690 -0.0800 -0.6242  0.1654
  398TIP3   OH222608   1.651   4.906  16.058 -0.1912 -0.2195 -0.3688
  398TIP3    H122609   1.678   4.924  15.968  1.3313  0.9778  0.2882
  398TIP3    H222610   1.571   4.958  16.070 -0.2221 -0.1364 -0.9099
  399TIP3   OH222611   1.560   5.039   1.819  0.6124 -0.7302  0.0111
  399TIP3    H122612   1.621   5.032   1.893 -0.7933  1.0630  1.4609
  399TIP3    H222613   1.610   5.007   1.744  2.7712 -0.8789  1.3923
  400TIP3   OH222614   4.464   0.470  14.866  0.1811 -0.0046  0.0586
  400TIP3    H122615   4.557   0.457  14.847 -0.1465 -3.0133  0.0250
  400TIP3    H222616   4.462   0.503  14.956  1.2840  1.7459 -0.5064
  401TIP3   OH222617   2.872   0.327  14.591  0.1039 -0.2524  0.1638
  401TIP3    H122618   2.787   0.324  14.548  1.1766 -1.1447 -2.0458
  401TIP3    H222619   2.933   0.351  14.521  1.9685 -1.9882  1.1087
  402TIP3   OH222620   6.432   0.084   0.531 -0.0748 -0.5651 -0.2905
  402TIP3    H122621   6.411   0.135   0.453  0.4666  0.1021 -0.0083
  402TIP3    H222622   6.457   0.149   0.597 -0.4711 -1.1185  0.4315
  403TIP3   OH222623   0.892   0.130   4.147 -0.3468 -0.0096 -0.1893
  403TIP3    H122624   0.956   0.200   4.161  0.2913 -0.8941  1.7542
  403TIP3    H222625   0.944   0.058   4.111 -0.7030  0.0313 -0.7794
  404TIP3   OH222626   1.225   1.821   3.932 -0.2547  0.1052 -0.3236
  404TIP3    H122627   1.169   1.858   4.000  0.8303 -0.5505  0.9828
  404TIP3    H222628   1.290   1.769   3.980  0.0526 -1.0556 -1.9187
  405TIP3   OH222629   0.268   1.027  10.702  0.8209 -1.1444  0.7391
  405TIP3    H122630   0.221   1.072  10.632 -0.0958 -2.3535  0.5664
  405TIP3    H222631   0.299   0.946  10.662  2.5969 -0.6527  1.0128
  406TIP3   OH222632   6.241   2.580  13.192 -0.2794  0.2716  0.0571
  406TIP3    H122633   6.207   2.661  13.230 -0.1601  1.1231 -1.5648
  406TIP3    H222634   6.336   2.593  13.191 -0.2251 -0.1137  0.2861
  407TIP3   OH222635   1.480   5.901  13.312 -0.4326  0.0980  0.0287
  407TIP3    H122636   1.396   5.874  13.349  0.5626 -0.5977  1.9197
  407TIP3    H222637   1.515   5.821  13.272 -0.0051 -0.0145  0.6136
  408TIP3   OH222638   3.439   3.833  16.688  0.2110  0.8896  0.4111
  408TIP3    H122639   3.385   3.910  16.672 -0.2472  0.3386 -0.8139
  408TIP3    H222640   3.435   3.819  16.783 -2.0098  0.7272  0.3325
  409TIP3   OH222641   0.874   4.639   3.119 -0.2589 -0.3248  0.5353
  409TIP3    H122642   0.810   4.570   3.101  1.0035 -1.4314  0.0920
  409TIP3    H222643   0.959   4.594   3.116  0.5045  0.9325  1.8874
  410TIP3   OH222644   6.687   1.442   0.560  0.3011 -0.3686 -0.5235
  410TIP3    H122645   6.767   1.412   0.602 -0.4774  0.5860  1.8421
  410TIP3    H222646   6.714   1.515   0.506  1.2568 -1.1789 -1.1737
  411TIP3   OH222647   0.705   2.650  16.451 -0.1503  0.0896  0.4778
  411TIP3    H122648   0.613   2.663  16.426 -0.3569 -1.8252  0.1264
  411TIP3    H222649   0.701   2.625  16.543 -0.1406 -1.5609  0.0507
  412TIP3   OH222650   3.424   5.133  12.512 -0.3195  0.6933  0.9297
  412TIP3    H122651   3.476   5.076  12.568 -0.3545 -1.3645 -0.9908
  412TIP3    H222652   3.334   5.125  12.545 -0.1291  0.6376  1.4426
  413TIP3   OH222653   6.669   0.502   2.967 -0.1897 -0.1557  0.1919
  413TIP3    H122654   6.664   0.533   2.877 -3.4030  0.2620  0.3862
  413TIP3    H222655   6.613   0.424   2.969 -1.3360  0.6392  2.0388
  414TIP3   OH222656   2.504   3.224   0.712 -0.2168  0.3688 -1.0196
  414TIP3    H122657   2.595   3.243   0.736  0.3054 -1.7976 -1.0557
  414TIP3    H222658   2.475   3.301   0.663  0.8849  2.0098  0.7751
  415TIP3   OH222659   0.897   2.229  16.364  0.7672 -0.4454 -0.6071
  415TIP3    H122660   0.986   2.195  16.378  0.6035 -1.4833 -1.8206
  415TIP3    H222661   0.849   2.155  16.327 -0.1984  0.5281 -1.3802
  416TIP3   OH222662   5.249   2.422   1.550 -0.0699 -0.0645 -0.2586
  416TIP3    H122663   5.186   2.413   1.479  0.0463  1.6934 -0.6083
  416TIP3    H222664   5.215   2.492   1.605 -0.2150 -1.4676  1.5272
  417TIP3   OH222665   4.902   4.990   4.004  0.0321 -0.3681  0.1381
  417TIP3    H122666   4.976   5.036   3.963  0.6901 -0.5645  1.0714
  417TIP3    H222667   4.939   4.951   4.083 -0.8539 -1.2958  0.1139
  418TIP3   OH222668   2.136   0.740   2.840 -0.0371 -0.4893 -0.0971
  418TIP3    H122669   2.123   0.743   2.935  0.9205  1.6304  0.0289
  418TIP3    H222670   2.227   0.765   2.828 -0.2672 -0.3255 -1.6101
  419TIP3   OH222671   0.357   5.215   4.967 -0.4896  0.0835 -0.9609
  419TIP3    H122672   0.432   5.256   5.010 -0.7842  0.7792 -1.1071
  419TIP3    H222673   0.326   5.150   5.030 -0.4289  0.5420 -0.4585
  420TIP3   OH222674   3.418   1.636  11.622  0.6050 -0.1924  0.5840
  420TIP3    H122675   3.503   1.623  11.663  0.6766 -0.5445  0.3305
  420TIP3    H222676   3.396   1.727  11.640  0.6451 -0.3358  1.3846
  421TIP3   OH222677   3.476   1.125   0.369 -0.2448  0.2088  0.2991
  421TIP3    H122678   3.564   1.100   0.340 -1.0898 -1.8133 -0.7600
  421TIP3    H222679   3.462   1.211   0.330  1.0008  0.2336 -0.1436
  422TIP3   OH222680   5.374   3.261   2.454 -0.1149 -0.0025  0.0780
  422TIP3    H122681   5.387   3.189   2.392 -2.0904  0.3683 -0.8159
  422TIP3    H222682   5.455   3.313   2.447  0.3379 -0.8194 -1.0335
  423TIP3   OH222683   2.455   2.862   4.646  0.0364 -0.6061  0.5608
  423TIP3    H122684   2.524   2.927   4.665 -0.7372 -0.1716  2.0745
  423TIP3    H222685   2.405   2.900   4.575 -1.7350  1.6194  2.8166
  424TIP3   OH222686   0.014   3.811  16.902 -0.5258  0.1305  1.1886
  424TIP3    H122687   0.059   3.736  16.942  2.6972  1.5091  0.4352
  424TIP3    H222688  -0.032   3.853  16.975 -0.4910 -1.2587  2.0469
  425TIP3   OH222689   5.567   0.622   3.780  0.0653 -0.1346 -0.4691
  425TIP3    H122690   5.545   0.707   3.742 -0.0781 -1.3422 -3.2728
  425TIP3    H222691   5.662   0.616   3.771  0.0450 -0.3939 -0.5025
  426TIP3   OH222692   0.507   6.403   3.221 -0.2537  0.2290  0.0083
  426TIP3    H122693   0.454   6.393   3.300 -0.1298 -1.9006 -0.1096
  426TIP3    H222694   0.494   6.320   3.174  1.5088  0.5204 -1.0591
  427TIP3   OH222695   3.599   2.046  11.963 -0.5870  0.1653 -0.1020
  427TIP3    H122696   3.556   1.987  11.902 -0.9755 -0.7716  1.0433
  427TIP3    H222697   3.659   1.991  12.013 -0.7233  0.7798  0.7767
  428TIP3   OH222698   2.413   5.542   0.919  0.2220  0.7666  0.0793
  428TIP3    H122699   2.488   5.503   0.963  1.5813  3.4684  0.3463
  428TIP3    H222700   2.429   5.528   0.826  1.5080  1.9901  0.0924
  429TIP3   OH222701   0.685   5.415   1.091  0.1610 -0.7356 -0.4230
  429TIP3    H122702   0.688   5.335   1.039 -1.0603 -1.2911  0.3052
  429TIP3    H222703   0.703   5.387   1.180 -3.3941 -0.8564  0.4377
  430TIP3   OH222704   1.822   5.182   0.594 -0.1298 -0.2444 -0.1869
  430TIP3    H122705   1.840   5.102   0.643 -0.8822 -1.4106 -1.7304
  430TIP3    H222706   1.884   5.181   0.522  1.3854  1.7709  0.9846
  431TIP3   OH222707   6.445   3.860   3.689  0.0315  0.3274 -0.6888
  431TIP3    H122708   6.462   3.766   3.700 -1.7788 -0.1311 -1.4280
  431TIP3    H222709   6.492   3.902   3.761 -0.6982 -1.3336  0.8170
  432TIP3   OH222710   3.826   2.192   0.102  0.0185  0.0453  0.4882
  432TIP3    H122711   3.802   2.151   0.018 -1.7440 -0.3061  1.1094
  432TIP3    H222712   3.745   2.234   0.132  0.9310  1.1649  1.4691
  433TIP3   OH222713   5.389   4.556  12.670  0.3660  0.4936 -0.7458
  433TIP3    H122714   5.475   4.517  12.661 -0.0890 -0.3983 -1.3514
  433TIP3    H222715   5.371   4.553  12.765  0.0629 -1.4418 -0.8249
  434TIP3   OH222716   2.573   2.576   2.186  0.3717 -0.8443 -0.0740
  434TIP3    H122717   2.510   2.597   2.255  1.0200  1.4794 -0.1208
  434TIP3    H222718   2.520   2.548   2.112 -0.4703 -1.0164  0.5832
  435TIP3   OH222719   0.096   2.852   5.083  0.3751 -0.3398 -0.0628
  435TIP3    H122720   0.117   2.782   5.145  1.2112  0.0227  0.0797
  435TIP3    H222721   0.136   2.930   5.121 -0.5003  0.2151 -0.2488
  436TIP3   OH222722   0.222   3.441  12.161 -0.0199  0.0167 -0.6567
  436TIP3    H122723   0.238   3.535  12.169 -1.7506  0.5150 -2.3139
  436TIP3    H222724   0.206   3.411  12.250 -2.1374  1.8560 -0.3468
  437TIP3   OH222725   1.984   6.656  14.634  0.0718 -0.2112  0.0490
  437TIP3    H122726   2.078   6.635  14.633 -0.1226 -1.1359 -1.1300
  437TIP3    H222727   1.942   6.579  14.597 -1.1372  0.3418  0.2204
  438TIP3   OH222728   4.180   0.737  16.923  0.5512  0.2615  0.3908
  438TIP3    H122729   4.172   0.832  16.936  0.5200  0.4853 -1.1320
  438TIP3    H222730   4.253   0.727  16.861 -0.7213 -0.5711 -1.0315
  439TIP3   OH222731   2.473   3.454  12.905  0.4170  0.2571  0.2095
  439TIP3    H122732   2.460   3.548  12.911 -0.0006  0.1871  0.4230
  439TIP3    H222733   2.443   3.420  12.989  1.3111  0.0152  0.4434
  440TIP3   OH222734   2.517   1.456  13.065  0.3532  0.1781 -1.1700
  440TIP3    H122735   2.531   1.540  13.108  2.5536 -1.3216  1.2727
  440TIP3    H222736   2.453   1.411  13.120  0.9058 -0.6062 -1.1588
  441TIP3   OH222737   5.057   4.311  12.849 -0.3073 -0.1518  0.1164
  441TIP3    H122738   5.076   4.224  12.814 -1.6668 -0.5893  0.3717
  441TIP3    H222739   5.039   4.364  12.772 -0.7197 -0.4369  0.0098
  442TIP3   OH222740   4.021   1.748   4.018 -0.2452 -0.8232 -0.1991
  442TIP3    H122741   3.983   1.835   4.011  0.7096 -0.3974 -0.1456
  442TIP3    H222742   4.000   1.720   4.107  3.4106  1.2896  1.5446
  443TIP3   OH222743   1.013   4.564   5.243  0.2129 -0.0430  0.2643
  443TIP3    H122744   0.947   4.497   5.228  0.4818 -0.8574  2.3811
  443TIP3    H222745   1.095   4.516   5.254  0.7622  0.7860 -0.0494
  444TIP3   OH222746   0.892   6.563   0.019  0.5319 -0.2316  0.6863
  444TIP3    H122747   0.912   6.475  -0.010  0.3692  0.2314 -0.9094
  444TIP3    H222748   0.802   6.578  -0.011  0.1234  0.0719  1.9824
  445TIP3   OH222749   4.842   5.415  14.726  0.0196 -0.2524  0.2768
  445TIP3    H122750   4.911   5.476  14.700  0.5295 -0.0252  2.0145
  445TIP3    H222751   4.762   5.467  14.724  0.1050 -0.1493 -0.4598
  446TIP3   OH222752   3.668   6.458  11.945 -0.6004 -0.2434 -0.3715
  446TIP3    H122753   3.654   6.546  11.908 -0.7772 -0.4751 -0.8676
  446TIP3    H222754   3.729   6.472  12.017  0.2962  0.1453 -1.1679
  447TIP3   OH222755   4.587   3.103   4.701  0.0904 -0.2460 -0.1286
  447TIP3    H122756   4.647   3.033   4.672 -0.7325 -1.3410  0.7305
  447TIP3    H222757   4.520   3.107   4.632  0.5119  0.1898 -0.5210
  448TIP3   OH222758   5.574   5.046  14.185 -0.5318 -0.2999 -0.3326
  448TIP3    H122759   5.619   5.110  14.240 -0.4846  1.2164 -2.0727
  448TIP3    H222760   5.494   5.025  14.234 -0.2779  0.6479  0.5174
  449TIP3   OH222761   6.684   3.217  12.655 -0.4110  0.2255 -0.8138
  449TIP3    H122762   6.623   3.174  12.714 -1.2740  1.3405 -0.8605
  449TIP3    H222763   6.763   3.231  12.707 -0.5402 -0.3402 -0.4580
  450TIP3   OH222764   5.587   2.046  16.512  0.1240  0.1089  0.0834
  450TIP3    H122765   5.498   2.054  16.479  0.5800  0.6190 -1.0721
  450TIP3    H222766   5.642   2.044  16.433  1.3313  2.3192  0.8054
  451TIP3   OH222767   4.548   1.012  14.965 -0.7367 -0.6106  0.0843
  451TIP3    H122768   4.545   0.977  15.054  0.6967 -2.0190 -0.3707
  451TIP3    H222769   4.590   0.943  14.914 -1.4649  0.1971 -1.6861
  452TIP3   OH222770   0.320   3.488   1.984  0.7698 -0.2542 -0.0355
  452TIP3    H122771   0.251   3.423   1.997 -0.1705  0.9026  1.1245
  452TIP3    H222772   0.371   3.486   2.066  0.7088  0.4736  0.0251
  453TIP3   OH222773   3.368   3.581   1.266  0.5305  0.2699  0.3584
  453TIP3    H122774   3.408   3.540   1.189  1.3188  1.5420  0.0649
  453TIP3    H222775   3.415   3.543   1.340  0.6772  0.0163  0.1368
  454TIP3   OH222776   4.807   0.983  16.448  0.0414  0.1898 -0.0925
  454TIP3    H122777   4.732   1.035  16.419  0.8262  1.6665  0.3664
  454TIP3    H222778   4.883   1.037  16.426  1.1080 -1.8916 -1.8645
  455TIP3   OH222779   3.838   2.064   5.275 -0.4309 -0.1523  0.6325
  455TIP3    H122780   3.791   2.094   5.197 -1.4816 -1.0338  0.8969
  455TIP3    H222781   3.778   2.002   5.317  1.1026 -1.5862  0.8206
  456TIP3   OH222782   0.939   3.304  14.657 -0.1501  0.4535 -0.5910
  456TIP3    H122783   1.020   3.336  14.616  0.4469 -1.3110 -0.8842
  456TIP3    H222784   0.884   3.382  14.666  1.0314  1.4577 -1.6809
  457TIP3   OH222785   2.234   3.838   1.904  0.4576 -0.4798  0.2637
  457TIP3    H122786   2.300   3.815   1.970  1.4897  1.3797 -0.0491
  457TIP3    H222787   2.241   3.933   1.895 -0.5447 -0.5329 -1.6188
  458TIP3   OH222788   1.194   6.740   2.709 -0.1568  0.3319 -0.3039
  458TIP3    H122789   1.100   6.734   2.692 -0.0440 -0.3157 -0.7851
  458TIP3    H222790   1.221   6.649   2.722  0.1808  0.6293  1.1381
  459TIP3   OH222791   3.431   3.513  16.939 -0.4142 -0.1423 -0.5403
  459TIP3    H122792   3.476   3.435  16.907 -0.5685 -0.1600 -0.7197
  459TIP3    H222793   3.423   3.499  17.033 -0.0401 -0.1326 -0.5062
  460TIP3   OH222794   4.865   0.024   4.876 -0.2223  0.4911  0.8488
  460TIP3    H122795   4.957   0.048   4.890 -0.3547  0.2861  2.2075
  460TIP3    H222796   4.817   0.107   4.881 -0.4900  0.2714  3.8709
  461TIP3   OH222797   5.915   6.560   4.412  0.4238 -0.7157  0.3054
  461TIP3    H122798   5.844   6.497   4.428 -1.0800  0.4670 -1.3188
  461TIP3    H222799   5.923   6.562   4.317  0.2522  1.6985  0.2929
  462TIP3   OH222800   0.740   5.183   5.675 -0.3083 -0.2412 -0.2471
  462TIP3    H122801   0.764   5.217   5.589  0.7560  0.3214  0.2543
  462TIP3    H222802   0.822   5.149   5.711 -0.4579  0.6840  1.0427
  463TIP3   OH222803   6.709   3.555  12.180  0.4269  0.4469  0.3825
  463TIP3    H122804   6.730   3.463  12.195  0.4467  0.5454  1.0071
  463TIP3    H222805   6.622   3.553  12.139  0.9141  0.1131 -0.6419
  464TIP3   OH222806   5.008   3.458   3.700  0.4964 -0.2270 -0.1440
  464TIP3    H122807   4.926   3.488   3.739  1.2775  1.4081  0.3079
  464TIP3    H222808   5.052   3.410   3.770  1.1929  1.3633  0.5387
  465TIP3   OH222809   4.082   6.162   4.815  0.4560  0.3492 -0.7911
  465TIP3    H122810   4.136   6.193   4.888 -2.1202  2.5983  0.3395
  465TIP3    H222811   4.090   6.067   4.817  2.3637  0.4828  0.8456
  466TIP3   OH222812   3.922   0.520   2.382  0.3020  0.5135 -0.0044
  466TIP3    H122813   3.853   0.521   2.317  0.6906 -3.6643 -0.7294
  466TIP3    H222814   4.002   0.535   2.332  0.3207  0.8174  0.1122
  467TIP3   OH222815   2.628   0.854   0.041  0.1258 -0.4005  0.2817
  467TIP3    H122816   2.619   0.781   0.103  0.5621 -0.7451 -0.0501
  467TIP3    H222817   2.676   0.920   0.090 -0.1980 -0.3720  0.5597
  468TIP3   OH222818   2.386   5.834   0.777 -0.3350 -0.0210  0.1856
  468TIP3    H122819   2.446   5.766   0.807 -0.1230 -0.3116 -0.8587
  468TIP3    H222820   2.328   5.790   0.715  0.1845  0.8610 -0.9522
  469TIP3   OH222821   5.721   1.933  13.638  0.1852  0.2856 -0.6460
  469TIP3    H122822   5.666   2.007  13.614  0.4148  0.8647  0.5078
  469TIP3    H222823   5.676   1.892  13.712 -0.1999 -1.0659 -1.5866
  470TIP3   OH222824   4.146   2.228  13.956 -0.1890 -0.1524 -0.2428
  470TIP3    H122825   4.099   2.190  13.881 -1.6114  0.6449  0.1951
  470TIP3    H222826   4.153   2.321  13.936 -2.0419  0.3947  1.2440
  471TIP3   OH222827   3.677   3.701   1.463  0.1601  0.6689 -0.7521
  471TIP3    H122828   3.647   3.675   1.550  0.2476  1.6092 -0.4219
  471TIP3    H222829   3.764   3.661   1.455  0.4883  1.1940 -0.0707
  472TIP3   OH222830   2.769   4.291  13.973  0.2738 -0.3883  0.8319
  472TIP3    H122831   2.695   4.249  14.018  0.8991 -1.7557  0.6405
  472TIP3    H222832   2.766   4.382  14.002  0.8742 -1.2495  4.0350
  473TIP3   OH222833   1.768   5.626  15.705  0.0501 -0.1686 -0.2790
  473TIP3    H122834   1.685   5.668  15.731 -0.4666 -1.8104  0.8886
  473TIP3    H222835   1.829   5.699  15.696 -1.6170  1.1449 -1.6543
  474TIP3   OH222836   2.363   3.663   0.409 -0.8036  0.2175  0.2594
  474TIP3    H122837   2.404   3.749   0.401 -0.6599  0.2085  0.8465
  474TIP3    H222838   2.314   3.667   0.491  0.4828 -0.7743  1.1384
  475TIP3   OH222839   0.384   0.645  13.524  0.2157  0.0198 -0.1926
  475TIP3    H122840   0.344   0.681  13.445 -0.8642 -2.0314 -0.6620
  475TIP3    H222841   0.330   0.568  13.545  1.7000 -0.6690  1.3640
  476TIP3   OH222842   1.480   2.540  12.110  0.2376  0.1033 -0.2666
  476TIP3    H122843   1.427   2.500  12.041  1.3626 -1.0443 -0.5274
  476TIP3    H222844   1.470   2.481  12.185 -1.1088  1.4316  0.6482
  477TIP3   OH222845   4.599   0.390  13.087 -0.7486  0.1035 -0.0371
  477TIP3    H122846   4.673   0.439  13.123 -1.4661  1.6358 -0.5619
  477TIP3    H222847   4.628   0.364  13.000 -0.5902  0.1621 -0.0019
  478TIP3   OH222848   1.634   4.502   2.330 -0.5363  0.6082 -0.3801
  478TIP3    H122849   1.552   4.535   2.369  0.2880  3.3052 -0.7299
  478TIP3    H222850   1.651   4.561   2.257  1.2358 -0.5126 -0.9201
  479TIP3   OH222851   0.804   4.087   2.658 -0.0953  0.5267 -0.5373
  479TIP3    H122852   0.862   4.016   2.632 -0.6292  0.8568 -2.8247
  479TIP3    H222853   0.724   4.044   2.687  0.0500  0.1487 -0.6892
  480TIP3   OH222854   3.803   0.812  14.594 -0.4074  0.3176  0.1440
  480TIP3    H122855   3.767   0.886  14.546  0.3755 -0.8876 -2.4430
  480TIP3    H222856   3.824   0.848  14.681 -4.3124  1.9315  0.6160
  481TIP3   OH222857   3.010   2.848   6.083  0.0684  0.3804  0.0069
  481TIP3    H122858   2.962   2.840   6.166  1.1998  0.4087  0.6808
  481TIP3    H222859   3.078   2.912   6.101  1.1076 -0.5382 -0.5688
  482TIP3   OH222860   0.388   4.649   1.388  0.2103  0.0280  0.9172
  482TIP3    H122861   0.361   4.558   1.398  0.0013 -0.2999 -1.8742
  482TIP3    H222862   0.468   4.645   1.335 -0.3413  1.4758 -0.0920
  483TIP3   OH222863   5.988   3.107   6.321 -0.6995  0.3328  0.2118
  483TIP3    H122864   6.065   3.134   6.271 -1.0529  0.4677 -0.2675
  483TIP3    H222865   5.938   3.188   6.334  0.5016  0.7634  2.8060
  484TIP3   OH222866   4.184   3.971  11.151  0.0258  0.3869  0.6099
  484TIP3    H122867   4.237   3.924  11.216  2.1803  0.8327 -0.6986
  484TIP3    H222868   4.099   3.928  11.153  0.8958 -1.4236  1.7498
  485TIP3   OH222869   1.153   5.605  10.817  0.3446  0.4587  0.3489
  485TIP3    H122870   1.079   5.545  10.826  1.1555 -0.6308 -0.0168
  485TIP3    H222871   1.201   5.573  10.740  1.1707  1.1745  0.5491
  486TIP3   OH222872   3.646   2.828   0.875 -0.0538 -0.5828  0.1289
  486TIP3    H122873   3.688   2.865   0.953 -0.6309 -0.7508  0.5277
  486TIP3    H222874   3.689   2.744   0.863  1.1453  0.1150 -0.6818
  487TIP3   OH222875   2.472   4.673  12.457 -0.0648 -0.4328 -0.0500
  487TIP3    H122876   2.415   4.604  12.425 -1.0232  0.5698 -0.5905
  487TIP3    H222877   2.425   4.711  12.531 -0.5989  1.0296 -1.0909
  488TIP3   OH222878   1.731   2.255  13.857  0.2922 -0.1279 -0.3488
  488TIP3    H122879   1.770   2.338  13.830 -3.2016  2.4359  1.6288
  488TIP3    H222880   1.670   2.233  13.787 -0.2387  0.1186  0.0261
  489TIP3   OH222881   0.106   6.715  13.660  0.0363  0.2318  0.3364
  489TIP3    H122882   0.137   6.762  13.737 -1.6495  1.7876  0.1442
  489TIP3    H222883   0.185   6.677  13.621  1.0594  0.3420  2.1907
  490TIP3   OH222884   3.110   3.416  14.221  0.0935 -0.6252  0.2394
  490TIP3    H122885   3.042   3.393  14.158 -2.1430  0.8812  1.9202
  490TIP3    H222886   3.178   3.459  14.168  0.4309 -3.2724 -1.6653
  491TIP3   OH222887   3.787   4.411  12.998  0.3815  0.2393 -0.1359
  491TIP3    H122888   3.809   4.397  12.906 -0.0312  1.3342 -0.4157
  491TIP3    H222889   3.698   4.378  13.007 -0.4025  2.0613 -0.6767
  492TIP3   OH222890   2.182   5.717  13.669 -0.1719 -0.5116  0.4203
  492TIP3    H122891   2.095   5.756  13.671 -0.2657 -0.7394  1.5006
  492TIP3    H222892   2.167   5.623  13.656 -0.3344 -1.0528  3.6350
  493TIP3   OH222893   3.448   2.337  12.806 -0.1670  0.2288  0.2955
  493TIP3    H122894   3.383   2.406  12.820 -1.1532 -0.4879 -0.5842
  493TIP3    H222895   3.532   2.379  12.823 -0.8657  1.0552  1.9373
  494TIP3   OH222896   6.176   3.732   1.562  0.1992  0.1086 -0.2635
  494TIP3    H122897   6.262   3.691   1.571 -0.4167 -0.8606  1.6500
  494TIP3    H222898   6.139   3.730   1.650 -0.7787  2.8212 -0.5366
  495TIP3   OH222899   6.518   0.879  12.337  0.3528  0.0015 -0.2109
  495TIP3    H122900   6.547   0.969  12.349  0.0106 -0.0327  1.0553
  495TIP3    H222901   6.597   0.827  12.348  0.8746  0.1944 -2.5570
  496TIP3   OH222902   3.560   5.365   1.365 -0.0122  0.0430  0.1416
  496TIP3    H122903   3.603   5.366   1.280  1.1750  0.7371  0.7350
  496TIP3    H222904   3.474   5.404   1.349 -0.3674 -1.1236 -1.0019
  497TIP3   OH222905   3.032   3.904   1.593  0.4320  0.6596 -0.6225
  497TIP3    H122906   3.045   3.884   1.500  2.1936 -1.8777  0.0818
  497TIP3    H222907   3.086   3.982   1.608  0.7683  0.6200 -1.5657
  498TIP3   OH222908   4.707   1.659  15.244 -0.1047 -0.1370  0.3502
  498TIP3    H122909   4.631   1.602  15.233 -0.5802  0.6845 -0.9020
  498TIP3    H222910   4.670   1.744  15.268  0.3500  0.4002 -0.7583
  499TIP3   OH222911   1.562   5.663   6.455 -0.7415 -0.3018 -0.3512
  499TIP3    H122912   1.611   5.580   6.449  0.6691  0.5289 -0.9851
  499TIP3    H222913   1.475   5.642   6.423 -0.2872 -1.4549 -0.8924
  500TIP3   OH222914   4.333   1.458  13.529  0.5781 -0.1241  0.2210
  500TIP3    H122915   4.290   1.539  13.501 -0.4097 -1.4507 -2.4827
  500TIP3    H222916   4.384   1.430  13.453  0.8383 -2.0723  1.0486
  501TIP3   OH222917   6.207   3.257  14.241 -0.8608  0.2913 -0.5563
  501TIP3    H122918   6.124   3.300  14.266 -1.4939 -1.1010 -0.1465
  501TIP3    H222919   6.267   3.329  14.224 -1.7222  1.3461  0.6410
  502TIP3   OH222920   5.227   0.009   4.553  1.0583 -0.0287  0.3242
  502TIP3    H122921   5.219   0.046   4.465  0.9672 -0.7244  0.0369
  502TIP3    H222922   5.175  -0.071   4.551 -0.9290  1.1360  1.7221
  503TIP3   OH222923   2.588   1.284   1.622 -0.8366  0.7661  0.2565
  503TIP3    H122924   2.577   1.314   1.712 -2.1871 -1.0100  0.7441
  503TIP3    H222925   2.610   1.191   1.630 -0.1298  0.7604 -1.2490
  504TIP3   OH222926   5.454   3.924  12.973 -0.3592 -0.4195 -0.5180
  504TIP3    H122927   5.479   3.918  12.881 -0.0963  1.7011 -0.6318
  504TIP3    H222928   5.380   3.984  12.975 -0.1012 -0.0987  0.6813
  505TIP3   OH222929   1.181   2.583  12.059  0.4349 -0.0273 -0.1619
  505TIP3    H122930   1.143   2.505  12.100 -1.8968  1.1702  0.1102
  505TIP3    H222931   1.182   2.648  12.129  1.6178  0.4404 -0.5989
  506TIP3   OH222932   6.493   5.340  11.007  0.2814  1.1939 -0.2588
  506TIP3    H122933   6.400   5.361  10.997  0.3431  1.6374  0.0368
  506TIP3    H222934   6.518   5.296  10.926  0.0970  2.1270 -0.8363
  507TIP3   OH222935   4.566   0.887   3.173  0.1720  0.3418  0.0909
  507TIP3    H122936   4.583   0.793   3.180  3.3490  0.6790 -1.3775
  507TIP3    H222937   4.552   0.902   3.079 -4.4916  0.9053  0.6337
  508TIP3   OH222938   4.873   2.209   3.237  0.7575 -0.2157 -0.2919
  508TIP3    H122939   4.840   2.165   3.159  2.0656 -0.2249 -0.8566
  508TIP3    H222940   4.811   2.185   3.306  0.6064 -1.7211 -0.9144
  509TIP3   OH222941   5.700   4.592   4.703  0.3786  0.8848  0.3941
  509TIP3    H122942   5.753   4.654   4.653 -0.8850  1.4931 -0.2575
  509TIP3    H222943   5.611   4.627   4.696 -0.6179 -1.6854 -1.1412
  510TIP3   OH222944   4.091   5.870   5.923 -0.1791  0.2729  0.2744
  510TIP3    H122945   4.048   5.792   5.958  0.7385 -0.8254 -0.9610
  510TIP3    H222946   4.073   5.868   5.829 -1.4857  2.4420  0.4016
  511TIP3   OH222947   2.226   1.753  11.824 -0.0301 -0.7944  0.1891
  511TIP3    H122948   2.257   1.837  11.790 -1.5215 -0.3369 -0.1625
  511TIP3    H222949   2.285   1.731  11.896  1.9360 -0.7309 -1.3408
  512TIP3   OH222950   4.895   0.950   4.179 -0.0547 -0.1940 -0.1106
  512TIP3    H122951   4.925   1.041   4.170 -0.8953  0.0052 -1.1445
  512TIP3    H222952   4.963   0.898   4.136 -0.1023  0.0485 -0.4864
  513TIP3   OH222953   0.211   6.289  12.729 -0.3890  0.0959  0.3673
  513TIP3    H122954   0.256   6.211  12.763 -0.0191  1.1293  2.4122
  513TIP3    H222955   0.137   6.254  12.680 -1.0018 -1.5855  2.3094
  514TIP3   OH222956   3.709   1.930   0.209 -0.1733 -1.0479 -0.3700
  514TIP3    H122957   3.761   1.901   0.134  0.2754 -0.8009 -0.1589
  514TIP3    H222958   3.631   1.969   0.170  0.8415  0.6652 -0.8024
  515TIP3   OH222959   3.439   1.370  11.879 -0.4221  0.4660  0.1033
  515TIP3    H122960   3.487   1.346  11.800 -2.5624  1.1712 -1.5175
  515TIP3    H222961   3.395   1.289  11.906  0.7773  0.0796  0.9624
  516TIP3   OH222962   4.197   0.707   1.209  0.1914 -0.1466  0.6020
  516TIP3    H122963   4.214   0.618   1.178  1.7304 -0.2030  1.5234
  516TIP3    H222964   4.155   0.696   1.294  2.2482 -0.0596  1.6951
  517TIP3   OH222965   4.992   5.363  14.949  1.0292 -0.7779 -0.1083
  517TIP3    H122966   4.932   5.428  14.911  4.9780  2.8135 -0.9642
  517TIP3    H222967   5.056   5.345  14.880  3.8148 -0.3361  2.1700
  518TIP3   OH222968   2.031   0.740   3.351  0.1672  0.8710 -0.5733
  518TIP3    H122969   1.983   0.665   3.388 -1.6709  1.1983 -2.1282
  518TIP3    H222970   2.117   0.704   3.329  0.6687  0.1937  2.0939
  519TIP3   OH222971   6.484   5.459  11.937 -0.1548  0.2716 -0.0544
  519TIP3    H122972   6.573   5.433  11.913 -0.5041 -2.1662  1.0086
  519TIP3    H222973   6.445   5.489  11.855  1.1738 -0.1035 -0.8583
  520TIP3   OH222974   0.248   0.935  11.166 -0.1281  0.0547  0.1980
  520TIP3    H122975   0.217   1.025  11.157 -0.0674  0.2028  1.3251
  520TIP3    H222976   0.322   0.929  11.105 -0.1259  0.7720  0.1192
  521TIP3   OH222977   5.385   4.057  13.446  0.5214 -0.1298  0.2128
  521TIP3    H122978   5.420   4.078  13.533  1.4687  1.1858 -0.4587
  521TIP3    H222979   5.371   3.962  13.448 -0.1435 -0.0320  2.0310
  522TIP3   OH222980   0.207   5.674  12.240  0.5275  0.0498  0.3128
  522TIP3    H122981   0.133   5.719  12.281 -1.5751 -2.9691  0.1977
  522TIP3    H222982   0.208   5.706  12.150 -0.2978  0.5491  0.4718
  523TIP3   OH222983   2.605   4.433   1.074  0.3200  0.6027  0.0530
  523TIP3    H122984   2.585   4.389   0.991  0.3899 -1.7108  1.1625
  523TIP3    H222985   2.630   4.522   1.049  0.3642 -0.0224 -2.3930
  524TIP3   OH222986   3.412   0.576   3.617 -0.3233  0.1631 -0.2657
  524TIP3    H122987   3.441   0.508   3.677 -0.4750  0.4613  0.1485
  524TIP3    H222988   3.487   0.636   3.610  1.2452 -1.8368 -3.4123
  525TIP3   OH222989   3.033   1.349   1.696  0.4133  0.4665  0.1924
  525TIP3    H122990   3.103   1.413   1.681  1.8924 -1.0067  0.4049
  525TIP3    H222991   2.954   1.401   1.709  1.5784  2.2407  0.5057
  526TIP3   OH222992   5.052   5.040   1.172  0.4254  0.6310  0.4148
  526TIP3    H122993   4.983   4.984   1.136  0.7006  1.2699 -1.1748
  526TIP3    H222994   5.091   4.987   1.242 -0.5504 -0.3984  0.2131
  527TIP3   OH222995   0.298   5.431   3.259  0.5658  0.3934 -0.3878
  527TIP3    H122996   0.386   5.435   3.298  1.2458  1.9401 -1.9361
  527TIP3    H222997   0.315   5.424   3.165 -0.9696  1.1161 -0.7399
  528TIP3   OH222998   0.175   6.740  16.385 -0.1964 -0.1680 -0.6649
  528TIP3    H122999   0.267   6.714  16.385  0.6039  2.2982 -2.1993
  528TIP3    H223000   0.171   6.815  16.326 -3.1079  0.2135 -0.1560
  529TIP3   OH223001   3.784   4.897  14.305 -0.4553 -0.2195 -0.6315
  529TIP3    H123002   3.789   4.850  14.389 -0.5930  2.4205  0.9526
  529TIP3    H223003   3.719   4.965  14.319  0.2194  0.9062 -2.5791
  530TIP3   OH223004   5.297   6.607   4.252  0.0677 -0.3676  0.2503
  530TIP3    H123005   5.370   6.600   4.192 -0.4299  0.1757 -0.4369
  530TIP3    H223006   5.296   6.699   4.279 -1.1654 -0.0306 -0.8166
  531TIP3   OH223007   3.911   0.135   5.360 -0.0077 -0.1239 -0.5338
  531TIP3    H123008   3.887   0.079   5.286 -0.3223  0.2545 -0.7243
  531TIP3    H223009   3.845   0.204   5.360  0.6558  0.5191 -0.5960
  532TIP3   OH223010   5.401   5.401   6.585 -0.0492  0.0235 -0.1508
  532TIP3    H123011   5.370   5.312   6.570  1.0217 -0.3171 -0.4194
  532TIP3    H223012   5.459   5.395   6.660 -1.4873  0.8600  1.0786
  533TIP3   OH223013   3.333   1.154  14.592 -0.0405  0.0619 -0.6244
  533TIP3    H123014   3.318   1.067  14.554 -0.0968 -0.1671 -0.0865
  533TIP3    H223015   3.371   1.136  14.678  0.1362  0.5763 -0.5959
  534TIP3   OH223016   5.956   2.501  16.808  0.1218 -0.1699  0.0299
  534TIP3    H123017   5.999   2.532  16.728  0.3342  1.0580  0.5921
  534TIP3    H223018   5.997   2.553  16.878 -0.4545 -0.8320  0.8687
  535TIP3   OH223019   6.468   2.086  14.375  0.4629 -0.2857 -0.3087
  535TIP3    H123020   6.450   2.009  14.429 -1.1415  0.2047 -0.0740
  535TIP3    H223021   6.547   2.124  14.412 -1.3603  0.8987  2.8170
  536TIP3   OH223022   0.014   1.904  11.290  0.0632 -0.4157  0.0625
  536TIP3    H123023  -0.016   1.826  11.244 -1.2829 -0.3358  0.7417
  536TIP3    H223024  -0.029   1.977  11.245  0.5125 -0.1501  0.0590
  537TIP3   OH223025   5.180   2.374  10.344 -0.4710  0.1522  0.6446
  537TIP3    H123026   5.161   2.365  10.251 -0.1051 -1.1548  0.6758
  537TIP3    H223027   5.097   2.400  10.383 -0.7898  0.0783  0.0293
  538TIP3   OH223028   4.594   4.060   4.094 -0.0954 -1.0414 -0.0825
  538TIP3    H123029   4.647   4.025   4.023  0.0110 -3.2018  0.9968
  538TIP3    H223030   4.583   3.987   4.154 -2.1073  0.0856  1.0124
  539TIP3   OH223031   1.801   3.901   5.620  0.8612  0.3649  0.5370
  539TIP3    H123032   1.870   3.900   5.686  0.9196 -1.2158  0.4933
  539TIP3    H223033   1.802   3.813   5.583 -0.9430  0.4173  0.2806
  540TIP3   OH223034   3.239   2.190   0.012 -0.4048  0.0852 -0.5832
  540TIP3    H123035   3.229   2.284  -0.006  0.2065  0.3189  0.2368
  540TIP3    H223036   3.202   2.180   0.100  1.1843 -0.0929  0.0984
  541TIP3   OH223037   5.898   6.547   1.477 -0.1047  0.3552 -0.4565
  541TIP3    H123038   5.983   6.556   1.521 -0.1125 -1.5656  0.0466
  541TIP3    H223039   5.837   6.598   1.531  0.0411 -1.2873  1.3729
  542TIP3   OH223040   4.578   2.443   4.970 -0.2101  0.5691 -0.4257
  542TIP3    H123041   4.654   2.399   5.009 -0.6871  0.2316  0.1315
  542TIP3    H223042   4.609   2.472   4.885  0.1331 -0.7954 -0.7905
  543TIP3   OH223043   1.439   2.090   3.091 -0.4850  0.0207 -0.6054
  543TIP3    H123044   1.503   2.029   3.056 -0.8556 -0.7350  0.0101
  543TIP3    H223045   1.427   2.062   3.182 -2.1061 -0.1997 -0.8739
  544TIP3   OH223046   4.183   4.685  11.535  0.0833 -0.7355  0.4003
  544TIP3    H123047   4.103   4.736  11.543  1.1261  0.7969  1.8369
  544TIP3    H223048   4.170   4.611  11.594 -0.6047 -0.9543 -0.0231
  545TIP3   OH223049   1.139   0.683   1.860 -0.5173 -0.4870 -0.1256
  545TIP3    H123050   1.064   0.628   1.841  0.5981 -1.2759 -2.5405
  545TIP3    H223051   1.140   0.749   1.791  1.0132 -0.4971 -0.1523
  546TIP3   OH223052   0.314   1.714  16.777 -0.3720  0.2296 -0.2828
  546TIP3    H123053   0.235   1.662  16.761  0.8061 -1.6136 -0.3708
  546TIP3    H223054   0.370   1.658  16.830  1.9950  0.3372 -2.4487
  547TIP3   OH223055   4.516   6.178   5.508  0.5251  0.1992 -0.0883
  547TIP3    H123056   4.563   6.237   5.567 -2.4241  0.9640  1.6500
  547TIP3    H223057   4.580   6.109   5.488  2.9407  2.1041  0.5975
  548TIP3   OH223058   1.935   1.730   0.901  0.3125  0.0751  0.4855
  548TIP3    H123059   1.979   1.796   0.847 -1.1489  0.1111 -0.7343
  548TIP3    H223060   1.944   1.649   0.850  0.1103 -0.1804  0.8562
  549TIP3   OH223061   0.484   2.245  14.144 -0.4471 -0.5439  0.3151
  549TIP3    H123062   0.483   2.283  14.056  2.4852 -0.8219  0.0425
  549TIP3    H223063   0.480   2.321  14.203  2.0962  0.0674 -0.1868
  550TIP3   OH223064   2.446   4.658   3.105  0.4003 -0.3856 -0.3461
  550TIP3    H123065   2.391   4.606   3.164 -0.1227 -0.0622 -0.5392
  550TIP3    H223066   2.520   4.686   3.159 -0.3085  0.3058  0.3068
  551TIP3   OH223067   3.752   6.252   1.758 -0.6795  0.0923  0.6553
  551TIP3    H123068   3.778   6.326   1.702  0.5770 -1.7134 -1.3022
  551TIP3    H223069   3.826   6.241   1.817 -0.1620 -0.5099 -0.0795
  552TIP3   OH223070   6.618   1.850  16.264 -0.3415  0.3312 -0.1075
  552TIP3    H123071   6.609   1.811  16.177  0.8152 -1.2501  0.4340
  552TIP3    H223072   6.611   1.775  16.324  1.4879  1.0118  1.0098
  553TIP3   OH223073   2.445   6.737  13.278  0.3895 -0.2204 -0.1291
  553TIP3    H123074   2.530   6.776  13.260 -0.4034  1.7855  0.1748
  553TIP3    H223075   2.432   6.673  13.208  1.3181  0.8374 -1.3003
  554TIP3   OH223076   2.555   0.278   4.155 -0.3737  0.1327 -0.0117
  554TIP3    H123077   2.492   0.344   4.128  0.7129  1.4710  0.5881
  554TIP3    H223078   2.607   0.321   4.223  1.9231 -0.5004 -1.2652
  555TIP3   OH223079   6.615   5.931   4.258 -0.1338  0.5983 -0.3452
  555TIP3    H123080   6.677   5.935   4.185  0.7323 -0.4317  0.3082
  555TIP3    H223081   6.591   5.839   4.263 -2.2884  1.0678 -1.0124
  556TIP3   OH223082   4.283   3.609  13.336 -0.1287  0.0700 -0.5798
  556TIP3    H123083   4.268   3.576  13.248  0.4422  1.4306 -1.2227
  556TIP3    H223084   4.358   3.669  13.327  0.2799 -0.1667  0.9274
  557TIP3   OH223085   3.424   1.263   2.979  0.9616 -0.3551  0.1043
  557TIP3    H123086   3.421   1.330   2.911  1.6724  0.8153  1.1607
  557TIP3    H223087   3.339   1.271   3.024  0.6253 -0.9019 -0.4176
  558TIP3   OH223088   3.168   1.458  15.358 -0.6511  0.0358 -0.2565
  558TIP3    H123089   3.160   1.375  15.405 -1.1843  0.2021 -0.0556
  558TIP3    H223090   3.142   1.438  15.269 -3.4820  0.5523  0.3551
  559TIP3   OH223091   2.664   3.002  14.886 -0.0801  0.3320 -0.2491
  559TIP3    H123092   2.649   3.017  14.793 -0.7365  0.9817 -0.0597
  559TIP3    H223093   2.673   3.090  14.923  0.1305  0.0846  0.3027
  560TIP3   OH223094   4.377   3.497   5.691 -0.0215  0.2639  0.1933
  560TIP3    H123095   4.306   3.525   5.749 -2.0903 -1.8651 -1.1028
  560TIP3    H223096   4.337   3.497   5.604  1.7056 -0.6049 -0.6409
  561TIP3   OH223097   4.300   0.182   4.849  0.0233 -0.0869  0.0262
  561TIP3    H123098   4.393   0.171   4.872 -0.0086  1.3276  0.8710
  561TIP3    H223099   4.255   0.191   4.932 -0.6016  1.2660 -0.4315
  562TIP3   OH223100   2.469   3.067  13.712  0.2650  0.2593 -0.0977
  562TIP3    H123101   2.534   3.106  13.653  0.7368  0.3451  0.4693
  562TIP3    H223102   2.515   3.057  13.795 -0.5404  0.6040  0.3997
  563TIP3   OH223103   0.337   4.627  16.649 -0.1727 -0.1179  0.2341
  563TIP3    H123104   0.379   4.652  16.567  0.7278 -2.9205 -0.2488
  563TIP3    H223105   0.406   4.634  16.715 -0.3463  0.1607  0.3873
  564TIP3   OH223106   3.928   4.888  11.133  0.2830 -0.4436  0.1411
  564TIP3    H123107   3.868   4.871  11.060  0.2508  1.9537 -0.4593
  564TIP3    H223108   4.015   4.876  11.097  0.2479 -0.0966 -0.0582
  565TIP3   OH223109   5.222   3.878  11.736 -0.1217 -0.2249  0.6321
  565TIP3    H123110   5.214   3.811  11.668 -0.0493 -1.2770  1.6292
  565TIP3    H223111   5.300   3.928  11.711  0.1622 -0.8693  0.1820
  566TIP3   OH223112   4.623   2.546   4.717  0.2444 -0.2996  0.0515
  566TIP3    H123113   4.605   2.570   4.626  1.3255  0.0905 -0.0689
  566TIP3    H223114   4.696   2.602   4.743  0.2077 -0.6898  1.0336
  567TIP3   OH223115   6.231   2.451   1.711  0.6860  0.1525 -0.8551
  567TIP3    H123116   6.148   2.410   1.736  1.4924 -0.5515  0.8080
  567TIP3    H223117   6.272   2.388   1.652  0.7230 -0.1967 -0.4556
  568TIP3   OH223118   2.531   3.260   2.604  0.2165 -0.2138  0.2105
  568TIP3    H123119   2.452   3.301   2.567 -0.2128  1.1037  2.3687
  568TIP3    H223120   2.504   3.233   2.692  2.2430  0.5734  1.1347
  569TIP3   OH223121   4.196   0.300  10.422  0.1117 -0.0643 -0.0206
  569TIP3    H123122   4.113   0.256  10.405  0.3930 -0.5384 -0.1786
  569TIP3    H223123   4.263   0.232  10.410  0.5724  0.4735 -0.5529
  570TIP3   OH223124   4.793   2.145  13.078 -0.3437 -0.2698  0.2678
  570TIP3    H123125   4.714   2.117  13.033 -1.0524  0.6419  0.9169
  570TIP3    H223126   4.859   2.079  13.054 -0.8186 -0.0899 -1.6754
  571TIP3   OH223127   2.389   5.609  12.316  0.3912 -0.1026  0.5672
  571TIP3    H123128   2.310   5.633  12.266  0.7700 -0.8407 -0.4056
  571TIP3    H223129   2.358   5.544  12.379  0.1114  0.0508  0.5928
  572TIP3   OH223130   0.609   1.982   2.403  0.1337 -0.2419 -0.6651
  572TIP3    H123131   0.558   1.947   2.330 -1.4721 -0.0055  0.3095
  572TIP3    H223132   0.576   2.070   2.416 -0.6635 -0.7825  1.2744
  573TIP3   OH223133   6.488   4.849   3.301  1.4530 -0.2748  0.4733
  573TIP3    H123134   6.439   4.898   3.235  0.5331 -0.7879  0.7593
  573TIP3    H223135   6.577   4.841   3.265  1.2146  0.2952 -0.2460
  574TIP3   OH223136   5.381   6.706  13.410 -0.1875 -0.0388  0.7662
  574TIP3    H123137   5.389   6.702  13.505  0.7167 -2.5239  0.6594
  574TIP3    H223138   5.465   6.742  13.381 -0.6737  1.2621  0.8784
  575TIP3   OH223139   3.965   2.517   2.423 -0.0318  0.3085  0.0671
  575TIP3    H123140   4.057   2.530   2.445  0.3018 -0.4907 -0.7644
  575TIP3    H223141   3.960   2.532   2.329  0.3421 -4.5305 -0.9845
  576TIP3   OH223142   4.384   3.172   4.082  0.0835 -0.0970 -0.1010
  576TIP3    H123143   4.376   3.237   4.152 -0.3517  0.2568 -0.4760
  576TIP3    H223144   4.338   3.211   4.008 -0.7232 -1.1022 -0.1520
  577TIP3   OH223145   0.733   2.268   5.689 -0.6074 -0.1014  0.3977
  577TIP3    H123146   0.687   2.187   5.712 -2.3747  0.7434 -0.0063
  577TIP3    H223147   0.718   2.326   5.764  0.1122  0.0764  0.4091
  578TIP3   OH223148   1.626   4.002  12.229 -0.0437  0.2452  0.2524
  578TIP3    H123149   1.635   4.041  12.142 -2.0887 -0.6069 -0.4097
  578TIP3    H223150   1.691   3.932  12.231 -1.0218 -0.7607 -1.2511
  579TIP3   OH223151   4.140   3.324   5.014  0.6398 -0.8883  0.4562
  579TIP3    H123152   4.163   3.388   4.947 -0.1555  0.6406  1.5955
  579TIP3    H223153   4.133   3.241   4.966 -0.1677  0.2013 -1.4040
  580TIP3   OH223154   3.050   2.494  12.537 -0.3095 -0.4814  0.5498
  580TIP3    H123155   3.000   2.571  12.565 -1.0019 -1.0539  0.9516
  580TIP3    H223156   3.076   2.513  12.447 -0.2312  0.3360  0.7378
  581TIP3   OH223157   4.360   6.312   1.238 -0.2808  0.3699  0.8156
  581TIP3    H123158   4.366   6.300   1.333 -0.3037 -0.4103  0.7287
  581TIP3    H223159   4.266   6.317   1.221 -0.4068 -1.7283  0.6078
  582TIP3   OH223160   1.402   1.853   5.421  0.1226  0.3562  0.5077
  582TIP3    H123161   1.341   1.836   5.493  1.5013 -0.2110  1.6119
  582TIP3    H223162   1.488   1.853   5.463  0.8563  1.7060 -0.8866
  583TIP3   OH223163   1.589   3.038   1.507  0.3590  1.1926 -0.1336
  583TIP3    H123164   1.575   3.023   1.601 -1.1038  1.5110 -0.2724
  583TIP3    H223165   1.513   2.998   1.465  2.3921 -1.5369 -1.4741
  584TIP3   OH223166   0.461   5.776  12.188 -0.4133  0.2178 -0.5657
  584TIP3    H123167   0.388   5.748  12.243 -0.0118 -0.6131 -0.4248
  584TIP3    H223168   0.528   5.709  12.203  0.8193  1.5875  0.1969
  585TIP3   OH223169   0.878   1.868   5.306 -0.3919 -0.0447  0.5088
  585TIP3    H123170   0.892   1.879   5.212  0.1611  0.4314  0.6421
  585TIP3    H223171   0.816   1.936   5.330 -1.2497 -0.7426  0.3304
  586TIP3   OH223172   3.221   2.900   1.051  0.1012 -0.2231  0.0264
  586TIP3    H123173   3.228   2.821   1.104 -0.2346 -1.8274 -2.1602
  586TIP3    H223174   3.268   2.879   0.970  1.3120  2.3929 -0.0657
  587TIP3   OH223175   3.606   6.511  14.653 -0.1191 -0.5456 -0.3056
  587TIP3    H123176   3.580   6.570  14.724 -0.6681  1.2565 -1.9374
  587TIP3    H223177   3.525   6.466  14.628 -0.3785  0.3601 -1.1442
  588TIP3   OH223178   0.231   0.655  12.339  0.5118  0.5118  0.1475
  588TIP3    H123179   0.289   0.637  12.264  0.1470 -1.4961  0.2840
  588TIP3    H223180   0.281   0.716  12.393  0.9651  1.6677 -1.4910
  589TIP3   OH223181   4.537   4.085  15.205 -0.3973 -0.0474 -0.2828
  589TIP3    H123182   4.507   4.069  15.294 -1.1416 -0.6442 -0.6317
  589TIP3    H223183   4.627   4.118  15.215  0.1025 -1.6064  0.6039
  590TIP3   OH223184   5.866   4.151   4.075  0.3502  0.2603  0.0522
  590TIP3    H123185   5.888   4.205   4.151  0.0597  1.4034 -0.6649
  590TIP3    H223186   5.777   4.121   4.091  0.7084 -0.5117  0.7195
  591TIP3   OH223187   0.573   3.829  14.314 -0.3837 -0.3203 -0.1663
  591TIP3    H123188   0.624   3.889  14.260  1.4258  0.5085  2.2666
  591TIP3    H223189   0.627   3.751  14.322 -0.3896 -0.2327  0.8172
  592TIP3   OH223190   6.290   2.526   4.609 -0.3667  0.4649  0.8026
  592TIP3    H123191   6.295   2.616   4.577  0.9173  0.3401  0.5761
  592TIP3    H223192   6.316   2.472   4.534 -0.2347 -0.0271  1.1933
  593TIP3   OH223193   4.883   5.895  12.007 -0.1748 -0.2858  0.1043
  593TIP3    H123194   4.880   5.812  11.960  0.4668 -0.1275 -0.2231
  593TIP3    H223195   4.837   5.878  12.089 -0.1580 -0.9299 -0.0171
  594TIP3   OH223196   3.669   2.930  15.039 -0.3394  0.2456  0.0772
  594TIP3    H123197   3.649   3.021  15.017 -2.0409 -0.2360 -0.5245
  594TIP3    H223198   3.675   2.885  14.955 -3.5199 -0.9443  0.3640
  595TIP3   OH223199   6.177   5.594   0.206  0.0621 -0.7253 -0.3908
  595TIP3    H123200   6.210   5.640   0.283 -1.7423  1.2501 -0.7261
  595TIP3    H223201   6.256   5.574   0.155  1.3295 -2.2857  1.9704
  596TIP3   OH223202   5.321   5.121   6.549  0.5173  0.4651 -1.2694
  596TIP3    H123203   5.402   5.082   6.581  0.8996 -0.2777 -2.9825
  596TIP3    H223204   5.259   5.111   6.621  0.9335 -2.3049 -1.1935
  597TIP3   OH223205   2.185   5.503  16.481 -0.4309  0.0349 -0.0824
  597TIP3    H123206   2.240   5.486  16.404  1.3206 -1.0267  1.3110
  597TIP3    H223207   2.139   5.420  16.495  0.4753 -0.3314  0.8913
  598TIP3   OH223208   4.414   4.789   5.640 -0.4563  0.5357  0.4163
  598TIP3    H123209   4.346   4.856   5.643 -0.7980  0.2244 -0.2412
  598TIP3    H223210   4.384   4.721   5.700  0.3849  1.4041  1.8884
  599TIP3   OH223211   1.943   6.052  16.729  0.1719 -0.0186 -0.8771
  599TIP3    H123212   2.000   6.001  16.786  2.2712  0.5746 -2.3323
  599TIP3    H223213   1.885   5.987  16.689  0.9664 -0.8894 -0.6551
  600TIP3   OH223214   0.710   2.402   3.205  0.2257  0.0820 -0.6119
  600TIP3    H123215   0.665   2.457   3.270 -0.2344 -0.1337 -0.7476
  600TIP3    H223216   0.714   2.316   3.246  1.0257  0.2290 -0.3629
  601TIP3   OH223217   3.839   3.261   3.672 -0.1857  0.2284  0.4725
  601TIP3    H123218   3.866   3.322   3.603  0.2713 -0.4517  0.0400
  601TIP3    H223219   3.751   3.290   3.696  0.6086  2.0332  1.3963
  602TIP3   OH223220   2.717   4.643  12.594  0.7670 -0.3456  0.1383
  602TIP3    H123221   2.759   4.729  12.592 -0.1038  0.1272  1.0708
  602TIP3    H223222   2.636   4.655  12.543  1.1920 -0.9476 -0.7145
  603TIP3   OH223223   6.437   0.601   2.488 -0.1868 -0.5004 -0.1546
  603TIP3    H123224   6.368   0.667   2.490 -0.7418 -1.0901  1.0885
  603TIP3    H223225   6.413   0.543   2.415  1.0864  1.4143 -2.2462
  604TIP3   OH223226   3.758   2.081  14.293  0.4302  0.0654 -0.2870
  604TIP3    H123227   3.806   2.132  14.228 -1.6614 -0.0070 -1.9947
  604TIP3    H223228   3.767   1.990  14.265 -0.6479  0.0501 -0.6397
  605TIP3   OH223229   2.431   2.240   6.070 -0.0437 -0.2536  0.0532
  605TIP3    H123230   2.436   2.245   6.166  0.8596 -1.2016  0.0683
  605TIP3    H223231   2.383   2.160   6.052 -0.8141  0.2783 -0.2896
  606TIP3   OH223232   2.016   0.888  13.025  0.1305  0.2809 -0.3497
  606TIP3    H123233   2.009   0.923  13.114  0.1734 -1.2472  0.2717
  606TIP3    H223234   1.934   0.843  13.010  0.5699 -0.4278 -0.6659
  607TIP3   OH223235   3.050   6.802  15.856  0.2401 -0.1014  0.0535
  607TIP3    H123236   3.038   6.714  15.819  2.6297 -1.0351  1.2574
  607TIP3    H223237   3.138   6.827  15.827 -0.3010  1.8242 -0.0519
  608TIP3   OH223238   6.308   3.982  16.099 -0.4773  0.4017  0.4408
  608TIP3    H123239   6.320   4.074  16.077  2.1819  0.0163 -0.0134
  608TIP3    H223240   6.213   3.972  16.109 -0.8608  3.0763  0.1461
  609TIP3   OH223241   0.543   4.734   2.901  0.6185 -0.2028  0.0731
  609TIP3    H123242   0.451   4.726   2.926  0.1833  0.8208 -1.0909
  609TIP3    H223243   0.592   4.719   2.982 -0.6018  0.0358  0.8710
  610TIP3   OH223244   6.073   6.412   4.597 -0.2391  0.8182  0.6153
  610TIP3    H123245   6.004   6.352   4.624  1.1990 -0.8978  0.6122
  610TIP3    H223246   6.039   6.455   4.519 -0.3703 -1.8214 -0.8697
  611TIP3   OH223247   1.020   5.602   2.716 -0.0356 -0.3268  0.9390
  611TIP3    H123248   0.963   5.577   2.644 -0.4634  0.8462  0.8450
  611TIP3    H223249   1.072   5.675   2.682 -1.1499  1.1176  2.1710
  612TIP3   OH223250   2.714   0.322   2.170  0.1374  0.3573 -0.4685
  612TIP3    H123251   2.694   0.232   2.143 -0.5201  0.6117 -0.8543
  612TIP3    H223252   2.801   0.316   2.209 -1.2468 -1.1007  2.8218
  613TIP3   OH223253   4.059   4.264  14.644  0.2353  0.1673 -0.4473
  613TIP3    H123254   4.075   4.173  14.623  1.6112 -0.3807  2.4887
  613TIP3    H223255   4.144   4.307  14.634 -0.3702  1.1691 -1.6875
  614TIP3   OH223256   1.070   5.936   2.801 -0.7802 -0.2915 -0.3778
  614TIP3    H123257   1.085   5.901   2.713 -0.4496 -0.5308 -0.2274
  614TIP3    H223258   1.151   5.918   2.848 -1.4670 -1.4642  0.4092
  615TIP3   OH223259   3.963   3.640   0.281  0.1675 -0.0981  0.2695
  615TIP3    H123260   3.927   3.552   0.278 -0.1756  0.0391  0.2950
  615TIP3    H223261   3.985   3.660   0.190  0.0109 -0.1160  0.2271
  616TIP3   OH223262   6.118   0.958  15.186 -0.7288  0.2670 -0.0511
  616TIP3    H123263   6.026   0.983  15.179 -0.2972  1.6067 -1.8899
  616TIP3    H223264   6.146   0.945  15.095  1.5437  2.6244  0.1706
  617TIP3   OH223265   5.168   5.918  16.443 -0.5256 -0.0278  0.9421
  617TIP3    H123266   5.184   5.830  16.477  1.1101  0.1296  0.6348
  617TIP3    H223267   5.123   5.903  16.359  0.4062 -0.6037  0.5377
  618TIP3   OH223268   0.816   0.441  15.954  0.4220  0.3477 -0.8879
  618TIP3    H123269   0.880   0.444  15.883  0.3655  1.5601 -0.9210
  618TIP3    H223270   0.868   0.438  16.034  0.5179  0.7773 -0.9327
  619TIP3   OH223271   1.281   3.423  13.503  0.1499 -0.0041  0.1768
  619TIP3    H123272   1.295   3.332  13.526 -0.9107 -0.1934  0.0908
  619TIP3    H223273   1.280   3.470  13.587  0.3837 -0.1106  0.2394
  620TIP3   OH223274   1.097   6.593  16.309 -0.2916  1.2314  0.1718
  620TIP3    H123275   1.050   6.596  16.391  0.3173  0.1620  0.5873
  620TIP3    H223276   1.153   6.515  16.316 -0.0617  1.2454 -1.1549
  621TIP3   OH223277   0.992   5.726  11.995  0.4152  0.1080  0.3970
  621TIP3    H123278   0.913   5.733  11.941  2.1725  1.7257 -2.1842
  621TIP3    H223279   0.987   5.637  12.032 -2.9046  0.3924  0.9706
  622TIP3   OH223280   0.936   4.812  14.975  0.4908  0.1388  0.4716
  622TIP3    H123281   0.996   4.747  14.940  1.3514  0.8861  0.5379
  622TIP3    H223282   0.915   4.780  15.063  0.8617 -0.0736  0.4846
  623TIP3   OH223283   4.743   2.737   3.417 -0.3254  0.1635  0.4227
  623TIP3    H123284   4.812   2.735   3.351 -0.2523 -0.2327  0.5062
  623TIP3    H223285   4.749   2.824   3.456 -0.7849  0.6295 -0.5286
  624TIP3   OH223286   2.825   1.281  13.148 -0.0525 -0.3442 -0.3168
  624TIP3    H123287   2.888   1.270  13.077 -0.4120 -1.3414 -0.4923
  624TIP3    H223288   2.843   1.369  13.182  0.3623  0.0061 -1.3948
  625TIP3   OH223289   1.445   2.423  11.397 -0.1177  0.4608  0.2839
  625TIP3    H123290   1.534   2.394  11.381 -0.2176  0.5785 -0.5219
  625TIP3    H223291   1.439   2.509  11.355 -0.7907  0.1773 -0.2307
  626TIP3   OH223292   5.310   2.174  15.234  0.1658 -0.4632  0.2676
  626TIP3    H123293   5.306   2.125  15.152  1.2156  0.2428 -0.2229
  626TIP3    H223294   5.240   2.137  15.287  1.2760 -2.9123  0.1523
  627TIP3   OH223295   3.471   2.276  16.261 -0.1925 -0.1671  0.0150
  627TIP3    H123296   3.419   2.222  16.321 -2.5057 -0.2533 -1.9017
  627TIP3    H223297   3.425   2.269  16.177  2.7061  0.2008 -1.7350
  628TIP3   OH223298   2.388   3.664  14.638  0.3099  0.4342 -0.0210
  628TIP3    H123299   2.393   3.669  14.733 -0.6896 -2.1536  0.2372
  628TIP3    H223300   2.295   3.651  14.618  0.4465  1.2611 -1.4091
  629TIP3   OH223301   2.360   4.438  13.961 -0.0033  0.1174  0.3309
  629TIP3    H123302   2.313   4.521  13.963 -0.3657 -0.0990  0.8227
  629TIP3    H223303   2.387   4.423  14.051  0.1658 -0.2451  0.2248
  630TIP3   OH223304   0.082   4.423   2.117 -0.3067 -0.6546  0.5600
  630TIP3    H123305   0.145   4.469   2.062  2.6042 -0.9971  3.2886
  630TIP3    H223306   0.056   4.346   2.066 -0.5471  0.8386 -1.6588
  631TIP3   OH223307   1.968   2.071  14.169 -0.2271  0.0527  0.3765
  631TIP3    H123308   2.044   2.089  14.225  0.1843 -1.6620  0.4380
  631TIP3    H223309   1.974   2.136  14.099  1.7028 -0.4437  0.0253
  632TIP3   OH223310   6.788   5.554  11.733 -0.2670  0.9360 -0.2937
  632TIP3    H123311   6.774   5.462  11.754  2.0347  0.4828 -0.4823
  632TIP3    H223312   6.791   5.556  11.637  1.0546  0.9347 -0.2697
  633TIP3   OH223313   2.190   3.163   2.050  0.2153 -0.2323 -0.4098
  633TIP3    H123314   2.278   3.132   2.029  0.1454 -0.4940 -0.3152
  633TIP3    H223315   2.151   3.184   1.966  0.4643  0.1452 -0.4349
  634TIP3   OH223316   2.438   2.297   1.864 -0.7358 -0.1112 -0.6938
  634TIP3    H123317   2.430   2.225   1.928 -0.3181 -0.9873 -1.6039
  634TIP3    H223318   2.523   2.336   1.882 -0.1984 -0.9643 -1.3047
  635TIP3   OH223319   1.786   6.182  15.312  0.5094  0.0392 -0.1943
  635TIP3    H123320   1.779   6.087  15.313  0.7323  0.0211 -0.0736
  635TIP3    H223321   1.743   6.210  15.393 -0.2543  0.1009 -0.6105
  636TIP3   OH223322   2.586   3.642  16.303  0.4310 -0.2981 -0.2144
  636TIP3    H123323   2.575   3.608  16.214  0.3319 -0.9832  0.0555
  636TIP3    H223324   2.638   3.722  16.292 -2.7671  1.8529 -1.3099
  637TIP3   OH223325   0.196   3.796   0.130 -0.2761 -0.0742 -0.0233
  637TIP3    H123326   0.198   3.724   0.067 -2.0580  0.4922 -0.7964
  637TIP3    H223327   0.136   3.766   0.199  0.4434 -0.0598  0.6259
  638TIP3   OH223328   3.661   6.201  13.595 -0.2743  0.3517 -0.1637
  638TIP3    H123329   3.596   6.133  13.614  1.0758 -1.0155 -0.2677
  638TIP3    H223330   3.674   6.245  13.679 -2.5450  1.8137 -0.4941
  639TIP3   OH223331   3.230   2.120  15.465 -0.4043  0.4567 -0.3837
  639TIP3    H123332   3.262   2.070  15.389 -1.2307 -1.1473  0.2712
  639TIP3    H223333   3.211   2.053  15.531 -0.9848  1.7114  0.7611
  640TIP3   OH223334   0.710   2.583   6.153 -0.2278  0.1767  0.0288
  640TIP3    H123335   0.793   2.594   6.105  0.4700  1.0471  1.3699
  640TIP3    H223336   0.733   2.527   6.227  0.1639  3.3639  2.5515
  641TIP3   OH223337   4.131   1.268  13.160  0.0687 -0.5545  0.2490
  641TIP3    H123338   4.110   1.338  13.222 -1.5100 -0.4238 -0.3924
  641TIP3    H223339   4.046   1.239  13.127  0.8446 -1.0907 -1.3401
  642TIP3   OH223340   1.460   0.871  11.758  0.0757 -0.4102  0.4876
  642TIP3    H123341   1.514   0.913  11.824  1.0054  2.0148 -1.6333
  642TIP3    H223342   1.522   0.827  11.701 -0.6498 -1.9057  0.8081
  643TIP3   OH223343   5.175   2.229  14.941 -0.3108 -0.0385  0.3577
  643TIP3    H123344   5.219   2.148  14.966 -0.0859  0.0545  0.2630
  643TIP3    H223345   5.128   2.256  15.020 -0.2703 -0.1863  0.4311
  644TIP3   OH223346   0.225   5.779  10.376 -0.0611  0.2649  0.1085
  644TIP3    H123347   0.148   5.748  10.423  0.5890 -0.1279  0.9244
  644TIP3    H223348   0.189   5.823  10.298 -1.2098  1.7297  1.3949
  645TIP3   OH223349   5.095   1.198  12.779  0.1408 -0.3275  0.0894
  645TIP3    H123350   5.005   1.221  12.801  0.9144  1.1922  1.8796
  645TIP3    H223351   5.116   1.252  12.703 -0.0038  0.4162  0.5732
  646TIP3   OH223352   2.229   5.566   2.702  0.9425 -0.0721 -0.0171
  646TIP3    H123353   2.158   5.510   2.668 -0.3059  0.1284  2.1270
  646TIP3    H223354   2.300   5.555   2.638 -1.1035  0.0067 -2.4598
  647TIP3   OH223355   5.920   3.281  13.643  0.1676  0.2536 -0.4043
  647TIP3    H123356   5.910   3.373  13.619 -0.1692 -0.0731 -1.5756
  647TIP3    H223357   5.848   3.264  13.704 -0.2691  0.5640 -0.8243
  648TIP3   OH223358   1.986   2.826   3.426  0.3992 -0.2360  0.0068
  648TIP3    H123359   1.943   2.809   3.342  0.3886 -0.6803  0.1038
  648TIP3    H223360   2.049   2.896   3.406 -1.9051  2.1067  0.3211
  649TIP3   OH223361   6.226   4.297  11.935 -0.6530 -0.2631  0.1663
  649TIP3    H123362   6.208   4.203  11.941  0.2471 -0.4115  0.5998
  649TIP3    H223363   6.217   4.316  11.841  1.3518 -1.2456 -0.2712
  650TIP3   OH223364   4.468   6.307   4.112 -0.6474  0.0919  0.1174
  650TIP3    H123365   4.417   6.237   4.073  1.1018 -0.0185 -2.2796
  650TIP3    H223366   4.432   6.387   4.074  0.4668  0.0544 -1.1133
  651TIP3   OH223367   4.841   5.117  13.853 -0.2635  0.1789  0.1313
  651TIP3    H123368   4.784   5.107  13.776  1.7142 -1.2512 -1.2607
  651TIP3    H223369   4.831   5.034  13.900 -1.1816  0.9076  1.2896
  652TIP3   OH223370   2.964   5.853  11.731  0.3148 -0.2205  0.1866
  652TIP3    H123371   3.011   5.771  11.744  2.8556  0.7295 -2.1571
  652TIP3    H223372   2.988   5.906  11.808  2.4164 -0.1154 -0.4779
  653TIP3   OH223373   2.569   2.300   4.904 -0.6625  0.3630 -0.2190
  653TIP3    H123374   2.643   2.311   4.964 -0.5464  0.2536 -0.3405
  653TIP3    H223375   2.509   2.371   4.925  0.2734  1.5087 -1.2737
  654TIP3   OH223376   0.932   0.816  15.242 -0.1742 -0.0480 -0.2046
  654TIP3    H123377   0.928   0.837  15.335 -0.7588 -2.6297  0.4428
  654TIP3    H223378   0.921   0.721  15.238  0.9044 -0.1682 -2.8490
  655TIP3   OH223379   3.217   4.749   5.696  0.4422  0.3371  0.4108
  655TIP3    H123380   3.209   4.654   5.686  0.9935  0.2090  1.0966
  655TIP3    H223381   3.311   4.764   5.709  0.1122  0.6524  3.1233
  656TIP3   OH223382   3.350   3.999   4.719 -0.1732 -0.4484  0.3830
  656TIP3    H123383   3.403   4.038   4.649 -0.7280  1.5071  0.9853
  656TIP3    H223384   3.411   3.991   4.792 -0.3182  0.4485  0.6210
  657TIP3   OH223385   2.457   3.117  14.651  0.5460  0.1671  0.2511
  657TIP3    H123386   2.372   3.085  14.622  0.0502  0.4640  1.3535
  657TIP3    H223387   2.447   3.213  14.654  1.7858  0.4625 -2.2936
  658TIP3   OH223388   3.995   0.224  16.525  0.2570 -0.0892  0.2452
  658TIP3    H123389   4.062   0.233  16.592  2.2521 -0.5892 -1.5960
  658TIP3    H223390   3.934   0.159  16.560 -0.8681  2.2539  3.0885
  659TIP3   OH223391   1.366   2.793  12.086 -0.5385  0.0414 -0.4587
  659TIP3    H123392   1.436   2.820  12.026 -0.1825 -0.1484 -0.1349
  659TIP3    H223393   1.394   2.708  12.120  0.1258  0.9099  1.2866
  660TIP3   OH223394   6.725   5.394  15.085 -0.5294 -0.1390 -0.3718
  660TIP3    H123395   6.659   5.460  15.107 -1.3107 -0.8062 -0.7046
  660TIP3    H223396   6.776   5.435  15.015 -0.6277  0.3497 -0.1675
  661TIP3   OH223397   1.752   4.208   1.145  0.6163 -0.4293  0.0297
  661TIP3    H123398   1.676   4.198   1.088  0.1292  0.0966  0.5686
  661TIP3    H223399   1.799   4.283   1.109  0.1527  0.0879  0.4660
  662TIP3   OH223400   4.072   1.856  11.075 -0.4959 -0.2745 -0.4104
  662TIP3    H123401   4.052   1.889  11.163 -0.3988 -1.1288 -0.0526
  662TIP3    H223402   4.052   1.929  11.017 -1.6696 -0.0623  0.2151
  663TIP3   OH223403   2.531   6.580  15.423 -0.4413  0.3018 -0.4886
  663TIP3    H123404   2.449   6.572  15.473  0.0032 -0.8642  0.1001
  663TIP3    H223405   2.556   6.672  15.433 -1.3594  0.5295 -0.1576
  664TIP3   OH223406   0.995   5.013  15.887  0.0079 -0.6418  0.1456
  664TIP3    H123407   0.973   5.028  15.795  0.3734 -1.1124 -0.0219
  664TIP3    H223408   1.019   5.099  15.920  0.0879 -0.5080 -0.2585
  665TIP3   OH223409   0.988   3.285   0.395  0.7158  0.1743 -0.1589
  665TIP3    H123410   1.079   3.297   0.422  0.9397  0.9053 -1.1888
  665TIP3    H223411   0.955   3.374   0.383  0.3791 -0.1108 -1.4134
  666TIP3   OH223412   3.592   0.191   4.762  0.2763  0.4022  0.3290
  666TIP3    H123413   3.562   0.106   4.794  1.3373  0.5446  1.8580
  666TIP3    H223414   3.559   0.197   4.673 -1.8827 -0.5593  1.0063
  667TIP3   OH223415   4.512   2.164   1.174 -0.3565  0.4087  0.2507
  667TIP3    H123416   4.604   2.152   1.152 -0.4566  1.5906 -0.9482
  667TIP3    H223417   4.503   2.258   1.192 -0.9880  0.0304  2.1740
  668TIP3   OH223418   4.190   1.200   3.194  0.0803 -0.6105 -0.3574
  668TIP3    H123419   4.145   1.219   3.112 -0.5968 -2.9984 -0.5998
  668TIP3    H223420   4.131   1.236   3.261 -0.4587 -0.5998 -0.8263
  669TIP3   OH223421   2.134   5.794   3.449  0.2827  0.4811 -0.0529
  669TIP3    H123422   2.055   5.847   3.446  0.5991  0.9392 -2.3009
  669TIP3    H223423   2.206   5.858   3.450  0.6510  0.0723  0.3521
  670TIP3   OH223424   3.704   0.697  12.608 -0.3289 -0.2558  0.3199
  670TIP3    H123425   3.732   0.742  12.687  0.9599 -0.7508  0.1665
  670TIP3    H223426   3.761   0.620  12.602 -1.8414 -1.4191  0.0636
  671TIP3   OH223427   5.435   5.080  11.390  0.4587 -0.0991  1.0225
  671TIP3    H123428   5.469   5.114  11.473 -0.3762  0.1860  1.2545
  671TIP3    H223429   5.347   5.116  11.383  0.3135 -0.5678  0.2728
  672TIP3   OH223430   2.213   4.802   1.429 -0.2964 -0.2472  0.2106
  672TIP3    H123431   2.148   4.732   1.430 -0.9761  0.3689  1.4168
  672TIP3    H223432   2.226   4.824   1.522 -0.6514  1.7084 -0.1615
  673TIP3   OH223433   0.855   0.326   2.997 -0.2744 -0.5275 -0.3353
  673TIP3    H123434   0.797   0.398   3.020 -0.7396 -0.8568 -0.4566
  673TIP3    H223435   0.936   0.343   3.045 -0.2193  0.3044 -0.7072
  674TIP3   OH223436   6.454   5.930  12.244  0.3235 -0.3951 -0.3311
  674TIP3    H123437   6.402   5.898  12.170 -0.8877 -1.0778  0.7653
  674TIP3    H223438   6.536   5.881  12.240  0.1258 -0.6759 -1.0158
  675TIP3   OH223439   4.508   3.161  16.510 -0.0832  0.2728  0.1996
  675TIP3    H123440   4.572   3.111  16.459  0.0262 -0.0520  0.6454
  675TIP3    H223441   4.497   3.243  16.461 -1.1277 -0.6438 -1.1384
  676TIP3   OH223442   1.119   5.715  14.185 -0.1013 -0.4272  0.0285
  676TIP3    H123443   1.025   5.697  14.177  0.1856 -1.7842 -0.6501
  676TIP3    H223444   1.157   5.631  14.212  0.9082  0.1499  0.4652
  677TIP3   OH223445   3.988   4.669   1.959 -0.1881  0.6152  0.1316
  677TIP3    H123446   4.027   4.736   1.903 -0.9474  0.6799 -0.3412
  677TIP3    H223447   3.963   4.599   1.899 -0.7944  0.5807  0.4136
  678TIP3   OH223448   5.204   1.442   5.092 -0.0532 -0.2595 -0.0292
  678TIP3    H123449   5.265   1.483   5.154  0.3251  0.6837 -0.9918
  678TIP3    H223450   5.123   1.432   5.142  0.5824 -0.5944  0.9627
  679TIP3   OH223451   1.117   4.151   6.030  0.0726  0.4739  0.2338
  679TIP3    H123452   1.136   4.217   6.096  0.5618  1.5581 -0.9642
  679TIP3    H223453   1.176   4.078   6.051 -0.7459  0.2180  1.7929
  680TIP3   OH223454   1.184   3.120  14.270  0.1931 -0.4199 -0.0835
  680TIP3    H123455   1.140   3.038  14.290  0.5523 -0.3520  1.0439
  680TIP3    H223456   1.257   3.124  14.331  0.8202  0.2348 -0.8486
  681TIP3   OH223457   3.923   2.497   3.473  0.3363  0.0285 -0.2352
  681TIP3    H123458   3.954   2.433   3.537  1.0395 -1.3288 -1.8714
  681TIP3    H223459   3.839   2.463   3.443  0.3137  0.3223 -0.5126
  682TIP3   OH223460   6.772   5.032   2.992 -0.3653  0.3167  0.1963
  682TIP3    H123461   6.860   5.051   2.959 -0.7736  1.1417 -0.4552
  682TIP3    H223462   6.764   5.087   3.070 -0.6322  0.9207 -0.2577
  683TIP3   OH223463   1.932   0.453  14.390 -0.3656 -0.2595  0.2766
  683TIP3    H123464   1.958   0.487  14.304  0.6044  1.4504  1.1961
  683TIP3    H223465   1.907   0.362  14.373  0.5779 -0.2070 -1.6804
  684TIP3   OH223466   5.943   2.724   0.312 -0.4918 -0.1625  0.1669
  684TIP3    H123467   6.020   2.718   0.368 -1.0894 -0.0223  1.0192
  684TIP3    H223468   5.953   2.807   0.265  0.0489 -0.3192 -0.0033
  685TIP3   OH223469   4.549   1.889   6.070  0.0144 -0.6082  0.4435
  685TIP3    H123470   4.581   1.821   6.011  0.8993 -1.2289  1.5944
  685TIP3    H223471   4.468   1.854   6.106  0.4031 -1.0114  0.9374
  686TIP3   OH223472   1.223   2.404  14.020  0.3619 -0.0205 -0.1977
  686TIP3    H123473   1.169   2.338  14.065 -0.4503  0.5719 -0.2690
  686TIP3    H223474   1.187   2.407  13.931  1.3486 -0.5158 -0.6251
  687TIP3   OH223475   0.657   5.335   0.321  0.1337  0.2340 -1.6478
  687TIP3    H123476   0.720   5.404   0.299 -0.9761  0.8869 -2.8714
  687TIP3    H223477   0.599   5.376   0.385 -0.1210  0.2191 -1.8685
  688TIP3   OH223478   4.143   4.136   2.776 -0.1289  0.1989  0.4863
  688TIP3    H123479   4.232   4.135   2.740  0.1572 -1.3742  1.1434
  688TIP3    H223480   4.102   4.214   2.738  0.9486 -0.0335 -1.2561
  689TIP3   OH223481   5.805   0.143  10.559 -0.3916 -0.0561  0.1250
  689TIP3    H123482   5.890   0.164  10.598 -0.0421  1.2374 -1.2215
  689TIP3    H223483   5.815   0.168  10.467 -1.5488 -1.8758 -0.5528
  690TIP3   OH223484   1.851   4.279  13.701 -0.2142 -0.2961 -0.4494
  690TIP3    H123485   1.943   4.260  13.723 -0.1002  0.1178 -0.5672
  690TIP3    H223486   1.827   4.211  13.638 -0.4376 -1.2862  0.6652
  691TIP3   OH223487   0.485   1.356  15.144 -0.0428  0.2288 -0.1806
  691TIP3    H123488   0.522   1.352  15.232  2.0719 -0.7690 -1.0434
  691TIP3    H223489   0.403   1.307  15.150  0.5413 -0.6573  1.0207
  692TIP3   OH223490   3.803   1.097  12.256  0.5807  0.5746  0.0778
  692TIP3    H123491   3.726   1.151  12.237  0.1443  0.5076  1.5539
  692TIP3    H223492   3.828   1.120  12.345  0.1576 -1.8757  0.9171
  693TIP3   OH223493   2.728   1.290   0.029 -0.2422 -0.2195 -0.0732
  693TIP3    H123494   2.658   1.268   0.090  0.2355 -0.5247  0.3695
  693TIP3    H223495   2.800   1.321   0.084  0.1896 -0.4805 -0.4785
  694TIP3   OH223496   1.767   3.065   4.405  0.1876  0.5561 -0.1902
  694TIP3    H123497   1.809   3.151   4.399  3.8974 -0.9830  0.6735
  694TIP3    H223498   1.798   3.017   4.329 -0.2134 -0.6427  0.3728
  695TIP3   OH223499   3.505   4.023   6.233  0.1057  0.3463  0.4119
  695TIP3    H123500   3.545   4.109   6.243  1.0177 -0.2207  2.3000
  695TIP3    H223501   3.580   3.963   6.224 -0.3966 -0.4508  1.2964
  696TIP3   OH223502   2.538   4.518   2.629  0.0638  0.5111  0.8085
  696TIP3    H123503   2.596   4.481   2.563  1.0496 -0.5954  2.2219
  696TIP3    H223504   2.561   4.611   2.632  0.1692  0.5296 -0.2037
  697TIP3   OH223505   4.054   0.625  14.962 -0.0593 -0.3117  0.1874
  697TIP3    H123506   4.028   0.568  14.890  0.5517  1.3517 -1.4115
  697TIP3    H223507   4.148   0.609  14.974 -0.1485 -0.5513  0.6119
  698TIP3   OH223508   6.395   4.235   2.499  0.0864  0.1765 -0.8269
  698TIP3    H123509   6.393   4.266   2.409 -3.0436  1.7393 -0.3455
  698TIP3    H223510   6.432   4.308   2.549 -2.7367  1.3902 -0.3256
  699TIP3   OH223511   0.173   5.251   6.093 -0.7132 -0.0679  0.1783
  699TIP3    H123512   0.140   5.197   6.164 -2.3916  0.2110 -0.3445
  699TIP3    H223513   0.149   5.340   6.118  0.0303  0.1960 -0.0329
  700TIP3   OH223514   0.526   4.426  13.517 -0.2757  0.3234 -0.2216
  700TIP3    H123515   0.444   4.379  13.509  0.6315 -1.4330  0.2317
  700TIP3    H223516   0.593   4.364  13.486  1.0608  0.9916  1.1699
  701TIP3   OH223517   0.030   3.707  11.338  0.3331  0.2845  0.5057
  701TIP3    H123518   0.108   3.756  11.311 -0.2173 -0.1947 -2.2377
  701TIP3    H223519  -0.043   3.767  11.324  0.0227  0.1134  1.3095
  702TIP3   OH223520   4.970   3.141   2.255  0.4595 -0.3025  0.4499
  702TIP3    H123521   5.065   3.140   2.261  0.4907 -0.9057 -0.0137
  702TIP3    H223522   4.952   3.175   2.168  0.2363  0.3009  0.7306
  703TIP3   OH223523   3.201   6.006   6.320  0.2903  0.0638  0.0632
  703TIP3    H123524   3.179   5.929   6.374 -1.8174  0.2213 -0.4827
  703TIP3    H223525   3.281   6.040   6.359 -0.2434 -0.8105  2.0744
  704TIP3   OH223526   3.642   1.857   4.031 -0.1795 -0.4742 -0.5364
  704TIP3    H123527   3.569   1.878   4.090  0.1334  0.1410 -0.3711
  704TIP3    H223528   3.651   1.762   4.038  0.5979 -0.3039  1.2877
  705TIP3   OH223529   1.534   5.992   1.530  0.2033  0.1315 -0.4791
  705TIP3    H123530   1.492   6.003   1.445 -0.6400 -0.1011 -0.1045
  705TIP3    H223531   1.462   5.990   1.593  0.5182 -2.7255 -0.0427
  706TIP3   OH223532   6.150   4.331   1.909  0.5764  0.2354 -0.0380
  706TIP3    H123533   6.124   4.344   2.000 -0.2109  0.5267 -0.3006
  706TIP3    H223534   6.243   4.308   1.914  0.6825  0.7990  0.7986
  707TIP3   OH223535   2.198   0.750  14.773  0.4860  0.1630 -0.2400
  707TIP3    H123536   2.294   0.747  14.767  0.4709  0.6806 -0.8451
  707TIP3    H223537   2.167   0.719  14.688  0.0928 -0.8051  0.2429
  708TIP3   OH223538   2.085   3.839   2.902 -0.1891  0.0551 -0.0517
  708TIP3    H123539   2.070   3.909   2.966 -1.7634 -0.5375  0.2652
  708TIP3    H223540   2.172   3.805   2.923  0.2123  1.2844  0.3817
  709TIP3   OH223541   2.046   6.123   6.051 -0.2175  0.4240  0.1433
  709TIP3    H123542   1.967   6.136   6.103  0.5483 -0.3833  1.5857
  709TIP3    H223543   2.029   6.043   6.001 -0.7616  0.9157 -0.4697
  710TIP3   OH223544   6.739   2.789  13.741 -0.3829 -0.0844  0.0354
  710TIP3    H123545   6.792   2.868  13.728 -1.7600  0.9241  0.3451
  710TIP3    H223546   6.752   2.767  13.833  0.1183 -0.3313 -0.0866
  711TIP3   OH223547   0.117   4.639  11.441  0.0255 -0.5760  0.0400
  711TIP3    H123548   0.201   4.677  11.414  1.5606 -2.7293  1.5461
  711TIP3    H223549   0.080   4.604  11.360  0.0578  1.2587 -0.8185
  712TIP3   OH223550   2.969   5.193  12.377 -0.1986  0.3612 -0.1860
  712TIP3    H123551   2.882   5.180  12.414 -0.7692  1.4426 -1.0953
  712TIP3    H223552   2.953   5.234  12.292  1.1089 -1.0611 -1.1850
  713TIP3   OH223553   4.640   0.751  14.151  0.6695 -0.3115 -0.6447
  713TIP3    H123554   4.619   0.657  14.154  1.3662 -0.4624 -0.2205
  713TIP3    H223555   4.555   0.795  14.148  0.3006 -0.9162  0.4427
  714TIP3   OH223556   4.414   2.132  12.191 -0.2957 -0.3158 -0.2736
  714TIP3    H123557   4.416   2.141  12.096  1.2166 -1.4717 -0.3901
  714TIP3    H223558   4.500   2.097  12.214 -0.4737  0.3168  1.5736
  715TIP3   OH223559   4.151   2.994  12.474  0.2264 -0.0765 -0.1687
  715TIP3    H123560   4.098   2.925  12.514  0.3049  1.0806  2.1274
  715TIP3    H223561   4.093   3.035  12.411  0.7869 -3.3963 -3.1357
  716TIP3   OH223562   6.568   4.418  16.057 -0.2268  0.3481 -0.1322
  716TIP3    H123563   6.626   4.410  15.981 -0.5854 -1.4740 -0.2555
  716TIP3    H223564   6.627   4.415  16.132 -0.0749 -0.4550 -0.2792
  717TIP3   OH223565   6.428   0.280  16.318  0.1882  0.5872  0.0538
  717TIP3    H123566   6.416   0.336  16.241  0.5192  0.8946  0.2240
  717TIP3    H223567   6.449   0.194  16.282  1.0447  0.8965 -0.1921
  718TIP3   OH223568   4.480   6.004  16.895 -0.4351 -0.4017  0.3767
  718TIP3    H123569   4.507   5.932  16.838  0.2134  0.8196 -0.9220
  718TIP3    H223570   4.534   6.078  16.867 -1.5803  0.7827  1.1947
  719TIP3   OH223571   1.179   0.652  13.236 -0.4195  0.0836 -0.2638
  719TIP3    H123572   1.106   0.711  13.218 -2.5982 -1.7861  1.7820
  719TIP3    H223573   1.209   0.676  13.324  1.1186  0.4550 -0.8542
  720TIP3   OH223574   0.834   6.282  10.961 -0.7791 -0.0178 -0.5924
  720TIP3    H123575   0.899   6.342  10.998 -0.3870  0.3266 -1.8105
  720TIP3    H223576   0.801   6.234  11.037  0.0134  0.6529  0.2064
  721TIP3   OH223577   3.007   0.925   2.579 -0.0905  0.6266 -0.2589
  721TIP3    H123578   3.083   0.947   2.525  0.6628 -1.3625 -0.0833
  721TIP3    H223579   2.933   0.932   2.520  0.4702  0.5692 -0.9852
  722TIP3   OH223580   6.815   3.492  13.942  0.5022  0.5335  0.4474
  722TIP3    H123581   6.899   3.538  13.945 -0.1750  1.7637  1.6421
  722TIP3    H223582   6.839   3.400  13.928  1.9444  1.0649 -0.9177
  723TIP3   OH223583   3.573   4.322  11.699 -0.1880  0.3824  0.1544
  723TIP3    H123584   3.583   4.228  11.711 -0.4358  0.1722 -1.2320
  723TIP3    H223585   3.658   4.352  11.667 -0.4766  0.4251 -0.5894
  724TIP3   OH223586   1.769   4.054  13.859 -0.0746  0.1776 -0.0257
  724TIP3    H123587   1.721   4.058  13.942 -0.4999 -1.2310 -0.1649
  724TIP3    H223588   1.721   4.111  13.800 -1.2757 -0.7516  0.0062
  725TIP3   OH223589   0.804   6.580  11.196 -0.5831  0.2255  0.1260
  725TIP3    H123590   0.776   6.489  11.183 -0.2736  0.0939  0.3681
  725TIP3    H223591   0.760   6.629  11.126 -0.8750 -0.0845  0.0892
  726TIP3   OH223592   2.948   4.236   3.852  0.7449 -0.1651 -0.1241
  726TIP3    H123593   2.869   4.186   3.833  1.6783 -0.9848 -2.0536
  726TIP3    H223594   2.918   4.327   3.852 -0.3382 -0.5045 -0.0217
  727TIP3   OH223595   3.911   6.062  12.870  0.5214 -0.2700 -0.4108
  727TIP3    H123596   3.983   6.075  12.932 -0.3008 -0.6132  0.6381
  727TIP3    H223597   3.897   5.967  12.869 -2.2422 -0.0211  2.1729
  728TIP3   OH223598   1.743   2.932  16.366  0.3944  0.1332 -0.0735
  728TIP3    H123599   1.838   2.927  16.364  0.6915  3.0812  1.9038
  728TIP3    H223600   1.719   2.963  16.278  1.6600  2.9609  0.4726
  729TIP3   OH223601   2.387   3.413  13.332  0.0990 -0.5200  0.6879
  729TIP3    H123602   2.474   3.439  13.361  0.1354 -1.5605  1.5896
  729TIP3    H223603   2.403   3.358  13.255  0.1704  0.0657  0.2788
  730TIP3   OH223604   2.025   0.858  16.738  0.0811  0.4279 -0.0007
  730TIP3    H123605   1.972   0.898  16.669  0.0513  0.9104  0.3064
  730TIP3    H223606   2.001   0.904  16.818  0.5561  0.2699  0.2363
  731TIP3   OH223607   6.431   0.436   0.862 -0.1729 -0.1991 -0.3116
  731TIP3    H123608   6.339   0.410   0.858 -0.3846  0.6537 -1.7304
  731TIP3    H223609   6.480   0.356   0.845 -0.6541 -0.6132  0.2337
  732TIP3   OH223610   1.174   0.631  11.942 -0.0066  0.2626  0.0242
  732TIP3    H123611   1.155   0.720  11.913  2.2716  1.5848  2.2178
  732TIP3    H223612   1.229   0.642  12.019  0.3666 -3.0768  0.3765
  733TIP3   OH223613   2.947   4.987  13.341 -0.5097 -0.3173 -0.3412
  733TIP3    H123614   2.875   5.019  13.285  2.0646  0.5722 -3.4556
  733TIP3    H223615   2.961   4.897  13.312  0.6201  0.0384 -0.9396
  734TIP3   OH223616   5.389   0.083  11.869 -0.0080 -0.0751  0.3596
  734TIP3    H123617   5.469   0.136  11.866  0.6343 -1.0142  0.2446
  734TIP3    H223618   5.349   0.095  11.783  0.1942  0.1325  0.2942
  735TIP3   OH223619   1.756   6.796   4.147 -0.3807  0.2882  0.4312
  735TIP3    H123620   1.670   6.816   4.184  0.2285  1.7126  1.1956
  735TIP3    H223621   1.815   6.802   4.222  0.8099  2.5758 -0.5806
  736TIP3   OH223622   5.778   4.755  12.831  0.1478 -0.4017  0.1052
  736TIP3    H123623   5.847   4.765  12.897  1.2636 -1.5003 -0.8441
  736TIP3    H223624   5.741   4.669  12.849  0.6619 -0.8408 -0.8593
  737TIP3   OH223625   4.009   5.876   4.642  0.4982  0.0076 -0.0684
  737TIP3    H123626   4.049   5.804   4.593  2.6137  0.4884  0.8203
  737TIP3    H223627   4.015   5.848   4.734  3.1337  1.9689  0.4985
  738TIP3   OH223628   3.024   2.930   5.189 -0.3179 -0.0186 -0.2949
  738TIP3    H123629   2.932   2.940   5.212 -0.7535 -3.1208 -0.2337
  738TIP3    H223630   3.067   2.907   5.272  0.5337  1.2951 -0.3429
  739TIP3   OH223631   1.703   1.272   3.197 -0.3427  0.0959  0.8227
  739TIP3    H123632   1.616   1.301   3.226 -0.0380  1.8593  0.0879
  739TIP3    H223633   1.703   1.287   3.103  0.0856 -1.8104  0.4771
  740TIP3   OH223634   0.244   3.847   1.302  0.2065 -0.3640  0.1479
  740TIP3    H123635   0.288   3.818   1.382 -0.0877 -0.1716  0.3767
  740TIP3    H223636   0.156   3.872   1.330  0.2005 -0.0075 -0.1859
  741TIP3   OH223637   5.889   4.556   5.455  0.3551  0.0798 -0.0020
  741TIP3    H123638   5.843   4.609   5.390 -0.2649 -0.8928 -0.3828
  741TIP3    H223639   5.893   4.469   5.415  0.3884 -0.4151  1.0618
  742TIP3   OH223640   5.280   0.363  15.452  0.6844  0.0390 -0.5393
  742TIP3    H123641   5.222   0.301  15.407  1.1636  0.2306 -1.4248
  742TIP3    H223642   5.368   0.335  15.428  0.8948  1.4061 -1.4172
  743TIP3   OH223643   4.997   5.032   4.431 -0.0027 -0.6521  0.0882
  743TIP3    H123644   4.907   5.046   4.457 -0.0175 -2.1031  0.9057
  743TIP3    H223645   4.992   4.992   4.344 -0.1085 -0.1248 -0.1530
  744TIP3   OH223646   3.998   0.376  14.359 -0.2491 -0.6990 -0.2031
  744TIP3    H123647   4.089   0.377  14.390 -0.7703  1.7061  1.5646
  744TIP3    H223648   3.957   0.450  14.403 -2.3955  0.0298 -3.0846
  745TIP3   OH223649   2.445   0.656  15.866  0.6068 -0.4472  0.1093
  745TIP3    H123650   2.455   0.750  15.847  1.1932 -0.1981  1.4672
  745TIP3    H223651   2.379   0.626  15.805 -0.0369  0.9971  0.0377
  746TIP3   OH223652   6.006   6.746  16.699  0.1275  0.2240 -0.3068
  746TIP3    H123653   6.006   6.675  16.763 -1.1184 -0.2960 -0.8523
  746TIP3    H223654   5.995   6.825  16.751  1.6346  0.0531  0.3188
  747TIP3   OH223655   0.323   5.709   2.339 -0.3456 -0.2619  0.1704
  747TIP3    H123656   0.255   5.650   2.305 -0.6501  0.2978 -0.1985
  747TIP3    H223657   0.275   5.787   2.367 -0.0410 -0.5222  1.4458
  748TIP3   OH223658   3.849   1.528   2.560 -0.4192 -0.4937  0.5867
  748TIP3    H123659   3.845   1.575   2.644 -3.3429  1.0256 -0.2786
  748TIP3    H223660   3.811   1.442   2.579  2.6225 -1.7647  1.5963
  749TIP3   OH223661   6.789   5.256  11.628  0.0706  0.3152  0.0447
  749TIP3    H123662   6.852   5.184  11.629  1.6256  1.6307  1.4954
  749TIP3    H223663   6.829   5.322  11.571  0.2052  1.3044  1.2452
  750TIP3   OH223664   5.690   0.231   2.390  0.4344 -0.3016  0.2347
  750TIP3    H123665   5.642   0.175   2.330  0.4024  0.2051 -0.2138
  750TIP3    H223666   5.625   0.293   2.422  0.9990  1.0983 -1.2238
  751TIP3   OH223667   4.273   5.593  12.284  1.0205 -0.0323 -0.1643
  751TIP3    H123668   4.183   5.610  12.254  0.1560 -0.3827  2.0451
  751TIP3    H223669   4.328   5.641  12.222 -0.7926  1.6794 -0.5704
  752TIP3   OH223670   6.390   3.744  10.932  0.0330 -0.3290  0.2255
  752TIP3    H123671   6.345   3.667  10.897 -2.2037  0.2862  1.5608
  752TIP3    H223672   6.481   3.716  10.942 -0.6131 -2.6388  0.1930
  753TIP3   OH223673   2.978   2.263   1.047  0.1491  0.3933 -0.3092
  753TIP3    H123674   3.043   2.333   1.040 -0.1084  0.6334 -0.3018
  753TIP3    H223675   2.900   2.298   1.004 -0.0232  0.1625 -0.1872
  754TIP3   OH223676   2.483   5.638   5.420 -0.1790  0.2040 -0.0235
  754TIP3    H123677   2.532   5.685   5.354  0.9328 -1.2152 -0.2582
  754TIP3    H223678   2.546   5.622   5.490 -0.4695 -1.0452 -0.0191
  755TIP3   OH223679   4.083   5.993  15.738  0.7780  0.1730 -0.4256
  755TIP3    H123680   4.103   5.900  15.726 -2.2536 -0.5929 -0.5244
  755TIP3    H223681   4.133   6.038  15.670  0.8875 -1.6082 -1.5886
  756TIP3   OH223682   4.522   1.242  12.103  0.2938  0.6661  0.3940
  756TIP3    H123683   4.527   1.318  12.045 -2.9070  1.4528  0.9795
  756TIP3    H223684   4.573   1.267  12.180 -0.8178  2.3272  0.6400
  757TIP3   OH223685   1.038   2.125  13.594  0.8301 -0.0312 -0.0645
  757TIP3    H123686   1.004   2.113  13.683 -0.3078 -0.4878 -0.5412
  757TIP3    H223687   0.960   2.130  13.539  1.5168 -1.9629 -1.3225
  758TIP3   OH223688   3.772   2.572  13.281 -0.8574 -0.3782  0.5105
  758TIP3    H123689   3.846   2.523  13.245 -1.7006 -1.1118 -0.2741
  758TIP3    H223690   3.813   2.644  13.330  0.3595 -0.2967 -0.5593
  759TIP3   OH223691   4.438   6.313  15.786 -1.0331  0.1763 -0.0410
  759TIP3    H123692   4.456   6.390  15.839  1.1032 -0.2291 -0.0546
  759TIP3    H223693   4.435   6.240  15.848 -1.8384  0.1154 -0.1465
  760TIP3   OH223694   6.795   3.029   1.269 -0.3411  0.0475 -0.7270
  760TIP3    H123695   6.748   2.984   1.199 -0.2110  0.2468 -0.9445
  760TIP3    H223696   6.834   3.106   1.227 -0.7383  0.4798 -0.3136
  761TIP3   OH223697   2.313   1.469  11.316 -0.8195  0.2629 -0.3357
  761TIP3    H123698   2.289   1.442  11.227  0.3436  0.3251 -0.6843
  761TIP3    H223699   2.362   1.550  11.303  1.1108 -0.7815  0.1803
  762TIP3   OH223700   3.788   2.180  16.356  0.0578 -0.3608  0.0903
  762TIP3    H123701   3.765   2.145  16.442 -0.6357 -0.7732 -0.2469
  762TIP3    H223702   3.706   2.176  16.307  1.0224 -2.8784 -1.5245
  763TIP3   OH223703   4.815   3.527  11.045 -0.1332 -0.2056  0.2614
  763TIP3    H123704   4.761   3.541  11.122  1.0273  2.7539  0.6687
  763TIP3    H223705   4.754   3.537  10.971 -1.0687 -2.1389  0.7205
  764TIP3   OH223706   0.733   0.056  15.931  0.8132  0.8068  0.0401
  764TIP3    H123707   0.726   0.138  15.882 -0.9763  1.1131  0.7554
  764TIP3    H223708   0.741  -0.012  15.863  0.3533  1.3980 -0.6096
  765TIP3   OH223709   2.388   3.039  13.253  0.7254  0.0474 -0.0394
  765TIP3    H123710   2.402   3.070  13.342  0.7973 -1.0787  0.3612
  765TIP3    H223711   2.382   2.944  13.262 -1.3267  0.0490 -0.9652
  766TIP3   OH223712   4.292   0.090   2.995  0.2844  0.5470 -1.0924
  766TIP3    H123713   4.251   0.117   2.912 -1.6099 -0.5745 -0.5815
  766TIP3    H223714   4.275  -0.004   3.000  1.3373  0.4016  0.0683
  767TIP3   OH223715   4.862   6.116   2.272 -1.0457 -0.8924 -0.1611
  767TIP3    H123716   4.933   6.057   2.245 -0.3138 -0.5778  0.9995
  767TIP3    H223717   4.834   6.081   2.357 -0.7297  0.3040  0.4530
  768TIP3   OH223718   3.046   0.724  12.591  0.2848  0.0525  0.3634
  768TIP3    H123719   3.049   0.768  12.675 -1.1215  2.3543 -0.7006
  768TIP3    H223720   3.130   0.744  12.550  0.2583  0.4737  0.5093
  769TIP3   OH223721   4.094   3.715   0.690 -0.3937 -0.2400 -0.0038
  769TIP3    H123722   4.160   3.653   0.720 -1.1238 -0.1189  2.0088
  769TIP3    H223723   4.011   3.677   0.718 -0.8202  1.8617  1.8434
  770TIP3   OH223724   6.641   3.089   6.334  0.3178  0.1034 -0.2209
  770TIP3    H123725   6.576   3.018   6.329 -0.9783  1.3244 -2.3677
  770TIP3    H223726   6.614   3.140   6.410 -0.0544 -0.4846  0.0552
  771TIP3   OH223727   6.791   1.676  13.154  0.1848 -0.0765 -0.0133
  771TIP3    H123728   6.815   1.768  13.147  3.3036 -0.6973  1.0881
  771TIP3    H223729   6.765   1.664  13.246  0.9380 -0.5055  0.1532
  772TIP3   OH223730   3.240   0.128   0.847  0.5990 -0.1702  0.6381
  772TIP3    H123731   3.272   0.211   0.812  1.7617 -0.7388  0.3143
  772TIP3    H223732   3.193   0.152   0.927 -1.7965  1.1197 -1.0377
  773TIP3   OH223733   3.824   2.559  16.925 -0.7123  0.8328 -0.1268
  773TIP3    H123734   3.790   2.485  16.875 -0.1556  0.4775  0.0152
  773TIP3    H223735   3.746   2.601  16.963 -0.9990  0.1186  0.0788
  774TIP3   OH223736   0.557   2.921   5.282 -0.4314  0.0176 -0.0227
  774TIP3    H123737   0.546   2.912   5.187 -0.5596  0.1107 -0.0167
  774TIP3    H223738   0.637   2.872   5.301 -0.7373 -0.5186 -0.0936
  775TIP3   OH223739   5.074   2.301  15.493  0.0318 -0.0293  0.6311
  775TIP3    H123740   4.989   2.266  15.518  0.5965 -1.2928  0.8847
  775TIP3    H223741   5.134   2.226  15.501  1.6204  1.3402  2.7338
  776TIP3   OH223742   4.578   5.736  14.138 -0.5901  0.3250  0.2679
  776TIP3    H123743   4.659   5.765  14.180  1.4293 -0.5245 -2.6796
  776TIP3    H223744   4.605   5.662  14.082 -3.6423 -0.7518  0.0105
  777TIP3   OH223745   5.105   5.672   3.033  0.7880 -0.7730 -0.5628
  777TIP3    H123746   5.040   5.725   2.987  0.7039 -0.6546 -0.3058
  777TIP3    H223747   5.176   5.661   2.969  1.1431  0.2756 -0.3691
  778TIP3   OH223748   3.700   3.923  15.855  0.0642  0.7170 -0.0794
  778TIP3    H123749   3.632   3.990  15.858 -0.5847  0.0999 -0.4378
  778TIP3    H223750   3.693   3.886  15.767  0.8360  0.6075 -0.0999
  779TIP3   OH223751   4.012   4.703   4.723 -0.2437 -0.0251 -0.2049
  779TIP3    H123752   4.039   4.746   4.805  0.4337 -0.6513 -0.0845
  779TIP3    H223753   4.050   4.615   4.729 -0.2531 -0.1011 -1.1585
  780TIP3   OH223754   3.456   1.287  16.433 -0.3508 -0.1575  0.2455
  780TIP3    H123755   3.410   1.369  16.414  0.9525  0.7229  0.7875
  780TIP3    H223756   3.386   1.222  16.440 -1.5250  1.1123  0.9098
  781TIP3   OH223757   2.604   4.943  11.896  0.2620 -0.4379 -0.2842
  781TIP3    H123758   2.610   4.956  11.802  0.1107  1.7274 -0.0454
  781TIP3    H223759   2.511   4.922  11.912  0.1811 -0.2989 -0.5682
  782TIP3   OH223760   0.257   3.169  17.052 -0.7284 -0.0667 -0.2781
  782TIP3    H123761   0.293   3.098  16.998  1.5242  0.2538  0.6919
  782TIP3    H223762   0.173   3.189  17.011 -0.9400 -2.5289 -1.2510
  783TIP3   OH223763   3.749   5.675   5.655 -0.3250 -0.2069  0.5369
  783TIP3    H123764   3.797   5.592   5.655 -3.1340 -1.9665  0.7753
  783TIP3    H223765   3.690   5.669   5.730 -1.3433  1.5687 -0.0623
  784TIP3   OH223766   2.820   5.986   5.456 -0.3893 -0.0762  0.0907
  784TIP3    H123767   2.730   5.971   5.427 -0.1287 -0.9986 -0.2821
  784TIP3    H223768   2.864   6.024   5.379 -0.5096  0.5978  0.3465
  785TIP3   OH223769   4.732   0.017  16.301  0.0646  0.1145 -0.0267
  785TIP3    H123770   4.778   0.029  16.218  1.1611  1.3021  0.7232
  785TIP3    H223771   4.696   0.103  16.322 -1.4197 -0.4990  0.0558
  786TIP3   OH223772   1.096   2.436   0.463 -0.1957 -0.0277  0.0700
  786TIP3    H123773   1.128   2.527   0.461 -0.5305  0.1038  0.4216
  786TIP3    H223774   1.148   2.390   0.398 -1.1999  0.8019 -1.3809
  787TIP3   OH223775   0.267   2.152  11.257 -0.3583 -0.7807 -0.1031
  787TIP3    H123776   0.186   2.202  11.244 -0.4030 -0.7422  0.3235
  787TIP3    H223777   0.258   2.076  11.200 -0.3600 -0.3881 -0.6382
  788TIP3   OH223778   3.866   4.328  12.750  0.1775  0.2860  0.4456
  788TIP3    H123779   3.823   4.401  12.705  0.8290  1.0590  1.0313
  788TIP3    H223780   3.802   4.257  12.749 -0.9370  1.2629  0.9105
  789TIP3   OH223781   3.315   0.937  10.892 -0.1445 -0.6822 -0.4283
  789TIP3    H123782   3.341   1.018  10.936  1.5872 -1.2322 -0.3442
  789TIP3    H223783   3.398   0.890  10.878 -1.0172 -2.0493 -1.2388
  790TIP3   OH223784   1.259   4.289  13.889  0.3566 -0.0152  0.2291
  790TIP3    H123785   1.192   4.318  13.827  0.7525  0.1046 -0.1516
  790TIP3    H223786   1.339   4.284  13.837  0.9286  1.0861  0.9398
  791TIP3   OH223787   3.263   0.372   2.813 -0.0807  0.0312 -0.3769
  791TIP3    H123788   3.332   0.364   2.746  0.4969  0.4741  0.1599
  791TIP3    H223789   3.193   0.420   2.769  0.4188  0.5834 -0.5791
  792TIP3   OH223790   2.915   1.564   3.190 -0.5239  0.3897  0.5510
  792TIP3    H123791   2.880   1.621   3.122  2.5943 -1.2577 -2.8243
  792TIP3    H223792   2.895   1.475   3.160  1.6779 -0.4277  1.2514
  793TIP3   OH223793   4.459   5.539  13.792  0.2138 -0.0556  0.1112
  793TIP3    H123794   4.417   5.463  13.752  0.5776 -0.9434  1.3594
  793TIP3    H223795   4.474   5.514  13.883  1.8115  0.9029  0.1631
  794TIP3   OH223796   3.415   5.567  15.208 -0.0735 -0.4566 -0.0273
  794TIP3    H123797   3.425   5.500  15.141 -0.7132 -2.3447  1.6410
  794TIP3    H223798   3.484   5.548  15.272  0.8644  1.6163 -0.3431
  795TIP3   OH223799   3.808   4.567  14.007  0.0695 -0.0922  0.8278
  795TIP3    H123800   3.869   4.640  14.020  0.2789 -0.4936  2.2067
  795TIP3    H223801   3.765   4.557  14.092 -1.4904 -0.2149  0.0506
  796TIP3   OH223802   4.459   0.312  16.821  0.0760  0.2916  0.5615
  796TIP3    H123803   4.475   0.388  16.877  1.2588  0.9438 -0.5951
  796TIP3    H223804   4.406   0.346  16.749  0.2099 -0.0872  0.2778
  797TIP3   OH223805   1.495   1.318  12.464  0.0350 -0.3412  0.2072
  797TIP3    H123806   1.502   1.231  12.426  1.3102 -0.1519 -0.0613
  797TIP3    H223807   1.501   1.377  12.389 -0.1512 -0.0197  0.4460
  798TIP3   OH223808   2.168   5.298  11.610  0.5867  0.1675  1.1961
  798TIP3    H123809   2.131   5.380  11.579 -0.4675 -1.2241 -1.4567
  798TIP3    H223810   2.162   5.304  11.706 -2.8305  1.6773  1.0052
  799TIP3   OH223811   3.581   3.305  13.827  0.0935 -0.2012  0.1449
  799TIP3    H123812   3.575   3.363  13.903  3.1741 -0.2828  0.5932
  799TIP3    H223813   3.573   3.364  13.751  1.0587  0.5138  0.5792
  800TIP3   OH223814   0.408   6.752   2.440  0.0085 -0.3100  0.3206
  800TIP3    H123815   0.436   6.711   2.522 -1.1018 -0.9891  0.3711
  800TIP3    H223816   0.488   6.792   2.405  0.4112  0.3805  1.9458
  801TIP3   OH223817   5.739   2.709   3.017 -0.2821 -0.4766 -0.0760
  801TIP3    H123818   5.745   2.615   3.003 -2.4989 -0.6111 -0.4005
  801TIP3    H223819   5.692   2.719   3.100 -2.0662  0.2981 -1.1247
  802TIP3   OH223820   6.318   4.684   0.476 -0.1212 -0.8061 -0.2118
  802TIP3    H123821   6.306   4.592   0.499  0.4853 -0.6014  1.0246
  802TIP3    H223822   6.231   4.722   0.484 -0.8515 -1.6728 -2.9226
  803TIP3   OH223823   2.954   3.877   6.882 -0.6134 -0.4891 -0.0162
  803TIP3    H123824   2.963   3.819   6.806 -2.9090  1.2529 -1.7705
  803TIP3    H223825   2.879   3.842   6.930 -0.4184 -0.4375  0.3266
  804TIP3   OH223826   1.789   0.996  13.983 -0.1896 -0.3485 -0.6342
  804TIP3    H123827   1.749   0.945  13.912  2.3457 -1.2897 -1.5270
  804TIP3    H223828   1.805   1.082  13.944 -1.8690  0.2727 -0.0440
  805TIP3   OH223829   0.975   1.432  16.631 -0.0785  0.2979 -0.2398
  805TIP3    H123830   0.964   1.344  16.667  0.3731  0.8637  1.3448
  805TIP3    H223831   0.989   1.488  16.707  0.7684  1.5805 -1.2875
  806TIP3   OH223832   5.049   5.261  12.894 -0.4602  0.5854 -0.7368
  806TIP3    H123833   5.002   5.301  12.967  1.4735  1.0003  0.3610
  806TIP3    H223834   5.028   5.316  12.818 -0.3022  1.8673  0.1148
  807TIP3   OH223835   1.085   2.385   5.133  0.2700  0.2307  0.3683
  807TIP3    H123836   1.065   2.476   5.108 -0.6760 -0.4377 -1.5210
  807TIP3    H223837   1.044   2.332   5.064  0.9638 -1.6327  1.3285
  808TIP3   OH223838   1.295   0.405   5.929 -0.6652  0.0083  0.2454
  808TIP3    H123839   1.297   0.461   5.851  0.6891 -1.7493 -1.0693
  808TIP3    H223840   1.385   0.405   5.961 -0.4157 -2.0557 -0.3179
  809TIP3   OH223841   1.968   4.660  13.547 -0.0694  0.4850 -0.5438
  809TIP3    H123842   1.957   4.737  13.603  0.0597 -0.0555  0.2488
  809TIP3    H223843   2.055   4.627  13.570 -0.2643 -0.0907 -0.6275
  810TIP3   OH223844   0.771   3.073  13.918 -0.0971  0.0356 -0.5229
  810TIP3    H123845   0.707   3.003  13.906  0.7114 -0.4297 -2.3214
  810TIP3    H223846   0.804   3.093  13.830  1.6700  0.7965  0.2482
  811TIP3   OH223847   0.135   3.429  16.777 -0.3162  0.4298  0.2205
  811TIP3    H123848   0.110   3.477  16.855  1.6777 -0.0145  1.1942
  811TIP3    H223849   0.121   3.337  16.800 -2.5334  0.3661 -1.0507
  812TIP3   OH223850   2.131   3.107  16.844 -0.6677 -0.7179 -0.1723
  812TIP3    H123851   2.108   3.139  16.757 -0.8730 -3.4323 -1.2070
  812TIP3    H223852   2.154   3.186  16.893 -1.9832  1.0451 -2.2127
  813TIP3   OH223853   6.455   4.093   4.885  0.1712  0.1409 -0.5654
  813TIP3    H123854   6.506   4.162   4.843  1.1291 -0.7758 -0.9560
  813TIP3    H223855   6.364   4.117   4.869  0.4782  1.3816 -0.5564
  814TIP3   OH223856   1.586   6.478   1.096 -0.3667  0.1519  0.0962
  814TIP3    H123857   1.629   6.393   1.105 -1.7415 -0.8315 -1.9005
  814TIP3    H223858   1.656   6.538   1.071  0.5425 -0.4517  1.1120
  815TIP3   OH223859   6.672   1.134  11.448 -0.0935 -0.1423 -0.3830
  815TIP3    H123860   6.617   1.138  11.370 -0.0168  1.1629 -0.3855
  815TIP3    H223861   6.643   1.208  11.502  0.6581 -0.3177  0.2849
  816TIP3   OH223862   1.025   6.301   4.461 -0.9276  0.0654 -0.4313
  816TIP3    H123863   1.110   6.284   4.500 -0.4275 -0.0748 -1.5525
  816TIP3    H223864   1.019   6.396   4.456 -1.3978  0.1160  0.8269
  817TIP3   OH223865   6.749   0.547  15.595  0.2344  0.1160 -0.0610
  817TIP3    H123866   6.778   0.495  15.520 -0.1731  0.3251 -0.3633
  817TIP3    H223867   6.657   0.566  15.578  0.2697  0.5948  0.2470
  818TIP3   OH223868   4.217   4.812  11.096 -0.0349  1.1948 -0.0405
  818TIP3    H123869   4.217   4.778  11.186  0.5832  1.2313 -0.0244
  818TIP3    H223870   4.283   4.760  11.050 -1.0808  0.4658 -0.7546
  819TIP3   OH223871   1.981   2.356  10.898  0.7270  0.4455 -0.7677
  819TIP3    H123872   1.939   2.302  10.965  0.7632  1.1625 -0.1535
  819TIP3    H223873   2.057   2.305  10.870  0.4154 -0.0938 -0.6538
  820TIP3   OH223874   0.353   2.647  16.904  0.2902  0.8169  0.0796
  820TIP3    H123875   0.343   2.552  16.910  2.5499  0.6364  2.6626
  820TIP3    H223876   0.271   2.677  16.865 -0.6482 -2.1328 -0.4658
  821TIP3   OH223877   2.880   0.829   0.368 -0.0327  0.0844 -0.6667
  821TIP3    H123878   2.955   0.771   0.370  0.9636  1.3393  0.7355
  821TIP3    H223879   2.847   0.829   0.458 -0.3403  1.2335 -0.7555
  822TIP3   OH223880   6.347   6.732  16.821  0.2684 -0.1369 -0.6892
  822TIP3    H123881   6.312   6.743  16.733  0.2788 -0.5610 -0.7488
  822TIP3    H223882   6.269   6.723  16.877  0.2666 -1.0737 -0.8203
  823TIP3   OH223883   1.241   2.107   1.711  0.1420 -0.2199 -0.2016
  823TIP3    H123884   1.320   2.077   1.667  1.3888 -0.3587  2.0239
  823TIP3    H223885   1.170   2.061   1.665  1.3516 -0.5311 -1.8625
  824TIP3   OH223886   6.448   6.653  16.369 -0.3951  0.0739 -0.0979
  824TIP3    H123887   6.400   6.651  16.452  0.8542  0.3526  0.6599
  824TIP3    H223888   6.395   6.601  16.309 -1.9900  0.9498  0.4941
  825TIP3   OH223889   0.477   1.747  13.646  0.1150  0.0144  0.3239
  825TIP3    H123890   0.442   1.733  13.558  0.2333  1.1271  0.0764
  825TIP3    H223891   0.571   1.731  13.636 -0.1772 -2.3968  0.8564
  826TIP3   OH223892   1.237   2.389  10.434 -0.4000 -0.4556  0.4440
  826TIP3    H123893   1.300   2.344  10.378 -0.1095 -0.2120  0.5761
  826TIP3    H223894   1.208   2.323  10.496  0.7257 -0.2243  1.2326
  827TIP3   OH223895   4.210   3.027  16.296  0.1352 -0.5723 -0.4430
  827TIP3    H123896   4.199   3.001  16.387 -0.9954 -1.2972 -0.7598
  827TIP3    H223897   4.219   3.122  16.298 -2.9877 -0.1757  0.2308
  828TIP3   OH223898   4.092   4.199  13.361 -0.8020  0.5286 -0.3915
  828TIP3    H123899   4.124   4.264  13.424 -3.4495  0.5050  1.1202
  828TIP3    H223900   4.065   4.251  13.285  0.8651  0.7225 -0.8976
  829TIP3   OH223901   4.749   5.717  11.219  0.4269 -0.2573 -0.7608
  829TIP3    H123902   4.766   5.730  11.312  2.1669 -0.3197 -1.0470
  829TIP3    H223903   4.826   5.752  11.175  0.7066 -2.3451 -2.0654
  830TIP3   OH223904   3.659   4.125   3.442 -0.0537 -0.5956 -0.3872
  830TIP3    H123905   3.732   4.076   3.480  0.3069  0.4944  0.3614
  830TIP3    H223906   3.583   4.069   3.456 -0.0131 -0.1256  2.3231
  831TIP3   OH223907   6.113   4.961  12.196  0.2793  1.1371  0.1179
  831TIP3    H123908   6.197   4.986  12.233  0.0829  1.3298  0.4341
  831TIP3    H223909   6.048   5.002  12.253 -0.1317 -2.0729  2.2193
  832TIP3   OH223910   1.575   1.281   1.973  0.2741  0.4820 -0.4682
  832TIP3    H123911   1.642   1.228   2.017 -1.4416 -0.5992  0.9944
  832TIP3    H223912   1.600   1.279   1.880  1.8166 -0.5341 -0.0630
  833TIP3   OH223913   3.429   3.655  12.528 -0.6989 -0.3047  0.5021
  833TIP3    H123914   3.508   3.609  12.554  0.2438  1.0107  0.1094
  833TIP3    H223915   3.365   3.633  12.595  0.4817 -0.1417  1.7460
  834TIP3   OH223916   0.915   0.767   0.084 -0.2122  0.2021 -0.2634
  834TIP3    H123917   0.897   0.799  -0.005 -2.0997 -0.4345 -0.1479
  834TIP3    H223918   0.975   0.832   0.121  2.1896 -0.4920 -2.5935
  835TIP3   OH223919   3.692   4.086   3.171  0.0644  0.2182 -0.2286
  835TIP3    H123920   3.643   4.008   3.147  0.2985 -0.2480  0.7273
  835TIP3    H223921   3.664   4.105   3.261  2.6387 -0.9430  0.9284
  836TIP3   OH223922   4.288   3.165   1.864  0.4562 -0.0419  0.6031
  836TIP3    H123923   4.223   3.177   1.934 -0.3462 -0.4567 -0.0644
  836TIP3    H223924   4.284   3.246   1.813 -0.1854 -0.4244  0.0351
  837TIP3   OH223925   4.403   3.742   2.216  0.4062  0.0247  0.4958
  837TIP3    H123926   4.353   3.710   2.141 -1.5167 -0.5837  1.9578
  837TIP3    H223927   4.341   3.798   2.263  1.3773 -0.0898  1.9446
  838TIP3   OH223928   6.104   3.800  12.293  0.0424  0.0825  1.0073
  838TIP3    H123929   6.049   3.757  12.359 -2.0302  0.6787 -0.2761
  838TIP3    H223930   6.057   3.789  12.211  0.5208  2.8995  0.2653
  839TIP3   OH223931   4.522   5.260  15.324 -0.3687 -0.6958  0.2751
  839TIP3    H123932   4.461   5.190  15.301 -0.6278 -0.4897  0.3204
  839TIP3    H223933   4.468   5.339  15.322  0.0529 -0.4231 -0.3639
  840TIP3   OH223934   6.454   6.006   6.203 -0.0526  0.0485 -0.0658
  840TIP3    H123935   6.545   5.983   6.190 -0.3507 -0.7531 -0.8212
  840TIP3    H223936   6.452   6.102   6.197  0.5379 -0.0048 -1.4859
  841TIP3   OH223937   1.798   5.666  11.667  0.3317  0.1398 -0.4288
  841TIP3    H123938   1.706   5.689  11.682 -0.5505 -3.1007 -0.2081
  841TIP3    H223939   1.797   5.612  11.588  2.1547  0.4639 -0.7206
  842TIP3   OH223940   5.794   1.926   3.614 -0.3648  0.1935 -0.2415
  842TIP3    H123941   5.778   1.837   3.582  2.1715 -0.4100 -0.0408
  842TIP3    H223942   5.887   1.927   3.634 -0.7023  2.3737  1.5109
  843TIP3   OH223943   5.462   2.533   3.477  0.3179 -0.0900 -0.2451
  843TIP3    H123944   5.412   2.595   3.424  2.0211 -0.1160 -1.9942
  843TIP3    H223945   5.448   2.449   3.433  0.0226 -0.5197  0.6521
  844TIP3   OH223946   5.350   3.354  16.871  0.2647 -0.1327 -0.0343
  844TIP3    H123947   5.389   3.403  16.943 -0.9447 -0.1109  0.6132
  844TIP3    H223948   5.374   3.404  16.792  1.1942  0.0907  0.3793
  845TIP3   OH223949   0.509   3.977  14.846  0.1994  0.5160 -0.3092
  845TIP3    H123950   0.415   3.963  14.855  0.5144 -1.2745  0.7029
  845TIP3    H223951   0.536   3.919  14.775  0.7532 -0.0821  0.3762
  846TIP3   OH223952   6.719   4.820   0.067  0.0894 -0.2485  0.0098
  846TIP3    H123953   6.659   4.860   0.004  0.3291  0.5882  0.2923
  846TIP3    H223954   6.806   4.831   0.028  0.1505 -0.6073  0.0386
  847TIP3   OH223955   1.773   3.609  12.314 -0.3023  0.0045 -0.9677
  847TIP3    H123956   1.769   3.664  12.393 -0.1575 -0.8668 -0.3366
  847TIP3    H223957   1.825   3.533  12.340  1.4578  0.6155 -2.5039
  848TIP3   OH223958   6.357   4.778   4.257 -0.2503  0.4124  0.3564
  848TIP3    H123959   6.421   4.830   4.305  0.0399 -0.3792  0.8461
  848TIP3    H223960   6.391   4.776   4.167  1.0819 -0.9758  0.8382
  849TIP3   OH223961   6.049   0.991  13.719 -0.1482 -0.4916  0.1921
  849TIP3    H123962   6.098   0.982  13.800  0.8325 -2.2119 -0.5333
  849TIP3    H223963   6.010   0.905  13.704  1.5810 -0.9710 -2.2656
  850TIP3   OH223964   6.497   5.771  13.333 -0.2135 -0.5552  0.4870
  850TIP3    H123965   6.532   5.776  13.422 -1.8775 -0.7368  1.1882
  850TIP3    H223966   6.417   5.824  13.335 -0.4171 -0.7626 -0.8330
  851TIP3   OH223967   5.874   1.219   3.060 -0.0837  0.2933 -0.1508
  851TIP3    H123968   5.866   1.252   3.149 -0.4661 -0.8289  0.2358
  851TIP3    H223969   5.855   1.296   3.005 -2.8559  0.3513  0.7286
  852TIP3   OH223970   1.158   1.610   0.507 -0.2670 -0.1874 -0.8265
  852TIP3    H123971   1.224   1.605   0.576  0.5597 -2.5746 -1.6823
  852TIP3    H223972   1.150   1.703   0.488 -0.0503  0.5078  1.9978
  853TIP3   OH223973   3.318   1.447   0.728  0.2247 -0.0856 -0.2008
  853TIP3    H123974   3.347   1.361   0.758 -1.3126 -1.0571 -1.3547
  853TIP3    H223975   3.226   1.435   0.708  0.4126  1.3520 -2.1217
  854TIP3   OH223976   2.397   2.368   0.239  0.4281  0.6086  0.1175
  854TIP3    H123977   2.479   2.363   0.189 -0.1236 -1.6767 -0.6793
  854TIP3    H223978   2.354   2.446   0.206  1.0188  0.2700 -1.5562
  855TIP3   OH223979   6.320   3.054  14.790 -0.6911 -0.5299 -0.0976
  855TIP3    H123980   6.400   3.069  14.841 -1.3133  1.3219  0.4175
  855TIP3    H223981   6.342   3.086  14.702 -0.7812 -0.1920 -0.0017
  856TIP3   OH223982   4.925   6.242   3.576  0.0044 -0.3050  0.7333
  856TIP3    H123983   4.949   6.240   3.484  0.9791  2.1636  0.8703
  856TIP3    H223984   4.835   6.208   3.578 -0.9986  1.8986 -1.5097
  857TIP3   OH223985   4.045   0.175  12.954 -0.2107  0.1737 -0.3908
  857TIP3    H123986   4.135   0.155  12.979  0.4514  1.0024 -1.9501
  857TIP3    H223987   4.016   0.099  12.903  0.7261  1.1598 -2.4960
  858TIP3   OH223988   4.198   3.292  10.360 -0.3197 -0.2578 -0.5012
  858TIP3    H123989   4.189   3.364  10.423 -0.5131  0.3683 -1.2288
  858TIP3    H223990   4.109   3.261  10.345 -0.1069 -1.7705  1.0492
  859TIP3   OH223991   1.936   6.803   1.265  0.6417  0.3980 -0.1660
  859TIP3    H123992   2.025   6.784   1.295  0.4250  0.9492  0.8721
  859TIP3    H223993   1.881   6.741   1.313  0.1649  2.0642  1.5570
  860TIP3   OH223994   0.037   3.149  14.206  0.3469 -0.2292 -0.4211
  860TIP3    H123995   0.034   3.136  14.301  0.2357 -1.4952 -0.5887
  860TIP3    H223996   0.088   3.229  14.195 -1.0977  0.9287  0.7744
  861TIP3   OH223997   4.607   3.241  14.605  0.1546 -0.9693 -0.3497
  861TIP3    H123998   4.598   3.336  14.609 -0.2237 -0.9647 -1.1398
  861TIP3    H223999   4.702   3.226  14.600  0.3410 -0.7353  1.6041
  862TIP3   OH224000   4.123   1.222  14.596 -0.0887  0.1403  0.0260
  862TIP3    H124001   4.194   1.159  14.603 -0.0805  0.2663  1.3393
  862TIP3    H224002   4.119   1.263  14.683 -0.9238  1.0342 -0.4214
  863TIP3   OH224003   5.432   3.096   2.917  0.2647  0.1800 -0.2744
  863TIP3    H124004   5.344   3.061   2.901  0.4551  0.3620 -1.9489
  863TIP3    H224005   5.422   3.158   2.989 -0.4617 -1.7683  1.3819
  864TIP3   OH224006   5.961   6.140  15.787 -0.3964  0.4137 -0.0585
  864TIP3    H124007   6.022   6.070  15.766 -0.3625  0.3734  0.1717
  864TIP3    H224008   6.015   6.220  15.786 -0.2839  0.3505  0.3826
  865TIP3   OH224009   3.903   6.146   3.660 -0.0652 -0.2707  0.3485
  865TIP3    H124010   3.814   6.112   3.657  0.7436 -2.5623  0.2807
  865TIP3    H224011   3.897   6.226   3.713 -2.3141  0.2936 -0.6474
  866TIP3   OH224012   4.011   5.538  16.312 -0.0504 -0.2896  0.3283
  866TIP3    H124013   3.960   5.601  16.261 -0.2108 -1.0117 -0.4262
  866TIP3    H224014   4.100   5.544  16.277 -0.2498 -1.0851 -0.3448
  867TIP3   OH224015   0.598   4.624   1.226 -0.5348 -0.0326 -0.1243
  867TIP3    H124016   0.605   4.626   1.131 -2.4972  0.2530 -0.2960
  867TIP3    H224017   0.641   4.705   1.255 -2.1984  1.2224 -0.9829
  868TIP3   OH224018   2.024   6.408   3.674 -0.4163  0.7736 -1.2383
  868TIP3    H124019   2.011   6.323   3.714 -0.9834  2.1085  1.6689
  868TIP3    H224020   1.943   6.424   3.625 -2.2691  1.3332  1.7544
  869TIP3   OH224021   5.246   2.768   2.547  0.1095 -0.2528  0.2681
  869TIP3    H124022   5.215   2.821   2.620  1.5684  0.8589  0.1300
  869TIP3    H224023   5.195   2.800   2.472  1.3423  1.4085  0.0786
  870TIP3   OH224024   2.335   1.581   6.569 -0.0206 -0.0778  0.1957
  870TIP3    H124025   2.272   1.515   6.539 -0.0855 -0.2749  0.7497
  870TIP3    H224026   2.280   1.651   6.606  0.0734 -0.1602  0.4979
  871TIP3   OH224027   5.266   1.852  13.184 -0.4421 -0.4755 -0.3441
  871TIP3    H124028   5.262   1.775  13.241 -0.4097 -0.5924 -0.4982
  871TIP3    H224029   5.335   1.831  13.121  0.6803  0.3248  0.5500
  872TIP3   OH224030   6.024   5.522  11.089  0.4973  0.2854 -0.1604
  872TIP3    H124031   6.107   5.499  11.048  1.6392  0.2672  2.0256
  872TIP3    H224032   5.963   5.455  11.058  1.3202  0.1748 -1.6399
  873TIP3   OH224033   4.752   5.396  11.432 -0.0127 -0.2922 -0.0355
  873TIP3    H124034   4.683   5.459  11.412 -1.9101 -2.2059  0.0915
  873TIP3    H224035   4.776   5.359  11.347 -1.2802 -1.6649  0.1534
  874TIP3   OH224036   6.464   5.140  16.614 -0.8374  0.0524 -0.1239
  874TIP3    H124037   6.542   5.094  16.645 -0.8785  1.0132  1.5153
  874TIP3    H224038   6.392   5.078  16.630 -0.5548 -0.4183 -0.6448
  875TIP3   OH224039   0.495   0.422   5.485  0.2099  0.2346  0.3514
  875TIP3    H124040   0.494   0.449   5.577  2.2794 -1.7435  1.0563
  875TIP3    H224041   0.528   0.498   5.437  0.9277  0.6579  1.4995
  876TIP3   OH224042   0.522   5.720  16.539  0.9339 -0.1679  0.1818
  876TIP3    H124043   0.430   5.729  16.512  1.0154 -0.1434 -0.0950
  876TIP3    H224044   0.520   5.728  16.634  0.6840  0.1388  0.1526
  877TIP3   OH224045   2.660   5.050   1.070  0.3190 -0.2895  0.1079
  877TIP3    H124046   2.717   4.973   1.081 -0.2873 -1.3919 -3.2425
  877TIP3    H224047   2.678   5.080   0.981 -1.0264  2.2068  0.5860
  878TIP3   OH224048   5.589   2.535  12.791  0.0211 -0.8707 -0.1160
  878TIP3    H124049   5.675   2.565  12.822 -0.6428  1.1155 -0.0549
  878TIP3    H224050   5.607   2.495  12.706  0.9406  0.0989 -0.4004
  879TIP3   OH224051   0.411   6.311   0.252  0.0310  0.0536 -0.1064
  879TIP3    H124052   0.484   6.277   0.303 -1.9445 -0.3660  2.6616
  879TIP3    H224053   0.450   6.379   0.197  2.2863  0.8804  2.2981
  880TIP3   OH224054   5.464   0.440  15.691 -0.0565  0.0427  0.5281
  880TIP3    H124055   5.505   0.371  15.743 -0.0995 -0.1529  0.3066
  880TIP3    H224056   5.371   0.416  15.687  0.2381 -1.0477 -1.2857
  881TIP3   OH224057   4.695   1.985   1.383 -0.1796  0.1947 -0.6666
  881TIP3    H124058   4.755   1.997   1.309 -0.3351  0.0791 -0.8138
  881TIP3    H224059   4.615   1.951   1.343  0.1874 -1.1815 -0.3088
  882TIP3   OH224060   4.994   4.790  12.221  0.5748  0.0255 -0.5301
  882TIP3    H124061   4.929   4.848  12.181  1.1968  0.2530 -1.2374
  882TIP3    H224062   5.011   4.829  12.306 -1.2920 -0.8530  0.3173
  883TIP3   OH224063   3.374   0.220  15.472  0.2738 -0.4053  0.2773
  883TIP3    H124064   3.297   0.270  15.497  0.0550 -0.0581 -1.0434
  883TIP3    H224065   3.421   0.276  15.411  0.8932 -1.1360  0.0592
  884TIP3   OH224066   1.783   6.612   3.527 -0.0888  0.1043 -0.4338
  884TIP3    H124067   1.845   6.616   3.454 -0.2560  0.1847 -0.5716
  884TIP3    H224068   1.730   6.691   3.518  1.6656  1.5999  1.3605
  885TIP3   OH224069   0.468   5.695  16.817  0.1917 -0.7130  0.7342
  885TIP3    H124070   0.374   5.680  16.820  0.0332  0.2705  0.8117
  885TIP3    H224071   0.506   5.614  16.852 -0.7028 -0.2368  2.9666
  886TIP3   OH224072   3.309   1.276   6.134  0.1070  0.4682  0.0112
  886TIP3    H124073   3.375   1.309   6.194 -1.1203  1.9514  0.6242
  886TIP3    H224074   3.233   1.257   6.190 -0.1563 -0.7752 -0.7215
  887TIP3   OH224075   1.488   3.089   2.163 -0.3318  0.1104  0.3991
  887TIP3    H124076   1.399   3.072   2.193 -0.4646 -1.7518 -0.8673
  887TIP3    H224077   1.522   3.003   2.139  1.9304  0.7448  1.1109
  888TIP3   OH224078   5.962   3.433  11.149 -0.1716 -0.5647 -0.0276
  888TIP3    H124079   6.052   3.463  11.144 -0.6010  0.7557 -0.0902
  888TIP3    H224080   5.969   3.338  11.161  1.2164 -0.4393  0.2919
  889TIP3   OH224081   2.147   3.364  15.199 -0.8182 -0.2641  0.6761
  889TIP3    H124082   2.216   3.423  15.228  1.0768  0.3622 -4.2012
  889TIP3    H224083   2.188   3.277  15.200 -1.1185 -0.4024  0.9778
  890TIP3   OH224084   3.344   3.214   0.307  0.2081  0.4325 -0.0338
  890TIP3    H124085   3.371   3.127   0.277 -2.1365  0.1496 -1.5946
  890TIP3    H224086   3.252   3.203   0.332 -0.6611  2.7586 -1.8610
  891TIP3   OH224087   2.021   6.202  11.314  0.6920 -0.1975 -0.3230
  891TIP3    H124088   2.084   6.242  11.374 -1.7385  0.1675  2.1601
  891TIP3    H224089   2.037   6.108  11.323 -1.2206 -0.3561  3.0251
  892TIP3   OH224090   4.109   2.519   0.377  0.1402  0.2693 -0.1456
  892TIP3    H124091   4.092   2.425   0.388 -0.3183  0.3034 -0.4945
  892TIP3    H224092   4.084   2.536   0.286  0.6551  0.6395 -0.2207
  893TIP3   OH224093   2.229   3.157  15.400 -0.4909  0.3878 -0.4516
  893TIP3    H124094   2.250   3.065  15.414 -0.2698  0.0713 -2.6045
  893TIP3    H224095   2.138   3.165  15.428 -0.9029 -0.7832 -1.4002
  894TIP3   OH224096   6.063   0.751   2.125 -0.0260 -0.0520  0.0477
  894TIP3    H124097   6.103   0.819   2.179 -1.2818  0.4006  0.4380
  894TIP3    H224098   6.120   0.745   2.048  0.8627  0.4619  0.6509
  895TIP3   OH224099   5.045   4.458  16.963 -0.1324 -0.2496  0.2886
  895TIP3    H124100   5.054   4.436  16.870  0.8098  3.8912 -0.7915
  895TIP3    H224101   4.951   4.471  16.975 -0.2937 -1.0970  0.0268
  896TIP3   OH224102   5.725   0.269  14.124 -0.6610 -0.1039 -0.2178
  896TIP3    H124103   5.812   0.238  14.148 -0.7619  0.0518  0.3918
  896TIP3    H224104   5.740   0.334  14.055 -0.4665 -1.5827 -1.6126
  897TIP3   OH224105   2.407   0.289  15.936  0.4392  0.1157 -0.6514
  897TIP3    H124106   2.353   0.352  15.984  0.1837  0.7885 -1.8005
  897TIP3    H224107   2.387   0.304  15.844  1.4230 -0.7013 -1.0252
  898TIP3   OH224108   6.820   3.632   4.294  0.1604  0.1804  0.3926
  898TIP3    H124109   6.829   3.581   4.374 -1.1294  0.6322  0.8459
  898TIP3    H224110   6.910   3.652   4.268  0.7288 -2.2679  0.2047
  899TIP3   OH224111   6.597   1.792   0.792  0.3348  0.0326  0.1383
  899TIP3    H124112   6.641   1.784   0.876  2.2510 -1.3611 -0.9027
  899TIP3    H224113   6.648   1.859   0.745 -1.1832  1.3598  0.3271
  900TIP3   OH224114   0.974   0.168   2.815 -0.3821 -0.5779  0.0841
  900TIP3    H124115   0.953   0.249   2.861  0.6622  0.4483 -1.1678
  900TIP3    H224116   1.067   0.153   2.834  0.2931  0.3045 -2.2492
  901TIP3   OH224117   5.225   3.424   1.697  0.7044 -0.3897  0.4803
  901TIP3    H124118   5.305   3.392   1.739  2.1846  0.2770 -1.6522
  901TIP3    H224119   5.256   3.470   1.619 -1.7710  0.1021 -0.2959
  902TIP3   OH224120   2.320   2.034  16.818  0.1624 -0.0005  0.2017
  902TIP3    H124121   2.340   2.080  16.737  1.0538  1.7503  1.3500
  902TIP3    H224122   2.230   2.059  16.839  0.1108 -0.0443  0.0358
  903TIP3   OH224123   0.645   3.846   1.166  0.0045  0.1458  0.4310
  903TIP3    H124124   0.726   3.869   1.210  0.1027  0.0028  0.3269
  903TIP3    H224125   0.634   3.752   1.184 -0.6465  0.3704  1.2657
  904TIP3   OH224126   2.184   4.051  15.226  0.4321 -0.5994 -0.1119
  904TIP3    H124127   2.173   4.096  15.310 -1.6160 -1.7031  0.2753
  904TIP3    H224128   2.150   4.113  15.161  1.3369 -0.0336 -0.0548
  905TIP3   OH224129   2.511   5.853   4.580 -0.1172  0.0651 -0.3850
  905TIP3    H124130   2.600   5.818   4.579 -0.6270 -1.3541  0.4431
  905TIP3    H224131   2.473   5.820   4.661 -0.8255  2.2073  0.2360
  906TIP3   OH224132   1.931   0.484   6.103  0.0223 -0.1872  0.6291
  906TIP3    H124133   1.898   0.399   6.134 -1.0261  0.9364  2.8865
  906TIP3    H224134   2.008   0.500   6.157  1.4729 -0.5964 -1.2537
  907TIP3   OH224135   6.659   2.121  13.232 -0.2368  0.4726  0.0782
  907TIP3    H124136   6.685   2.180  13.162 -1.1659  1.9886  0.9479
  907TIP3    H224137   6.626   2.179  13.301 -0.1299 -1.0036  1.4402
  908TIP3   OH224138   3.317   5.343  15.551 -0.0945  0.2545  0.1842
  908TIP3    H124139   3.293   5.432  15.580 -1.6443 -0.9879  3.1232
  908TIP3    H224140   3.233   5.302  15.531  0.4973 -0.9676  0.1723
  909TIP3   OH224141   6.386   4.817  13.112  0.6999  0.0206 -0.0763
  909TIP3    H124142   6.391   4.854  13.200 -0.9794 -0.0208  0.0657
  909TIP3    H224143   6.336   4.736  13.123  0.3880  0.0649 -1.0937
  910TIP3   OH224144   3.537   3.011  10.793  0.0561  0.7053  0.4090
  910TIP3    H124145   3.480   2.959  10.736  0.5308  0.6853 -0.0569
  910TIP3    H224146   3.589   2.947  10.841  0.0975  0.7370  0.4061
  911TIP3   OH224147   3.760   3.469   3.500  0.2958 -0.4112  0.4676
  911TIP3    H124148   3.752   3.467   3.404 -0.0848 -0.8414  0.5077
  911TIP3    H224149   3.805   3.552   3.518 -0.1492 -0.0488 -0.0455
  912TIP3   OH224150   4.560   3.432  16.394 -0.5633  0.5838  0.0101
  912TIP3    H124151   4.603   3.420  16.309 -0.4736  1.3273 -0.0515
  912TIP3    H224152   4.539   3.525  16.398 -1.7146  0.3363  0.2572
  913TIP3   OH224153   4.917   2.583  12.093  0.2364  0.0470  0.5862
  913TIP3    H124154   4.934   2.492  12.117 -0.4928 -0.6659 -1.3585
  913TIP3    H224155   4.823   2.594  12.107 -0.0471 -0.1378 -0.9785
  914TIP3   OH224156   1.818   2.399   5.652 -0.0292  0.2707 -0.5016
  914TIP3    H124157   1.812   2.327   5.589 -1.6006  2.0655 -2.5318
  914TIP3    H224158   1.905   2.437   5.638  1.1369 -1.6001  1.1338
  915TIP3   OH224159   5.234   4.831   2.921 -0.1348 -0.2930 -0.3363
  915TIP3    H124160   5.231   4.758   2.859 -0.0967 -1.4129  0.9317
  915TIP3    H224161   5.259   4.791   3.004  1.6295  1.4164  0.0457
  916TIP3   OH224162   1.085   5.677   3.990  0.2034 -0.1503  0.4550
  916TIP3    H124163   1.048   5.671   4.078  1.0998 -0.2042  0.8328
  916TIP3    H224164   1.175   5.707   4.003 -0.2844  1.9403 -0.5829
  917TIP3   OH224165   4.263   6.307  13.922 -0.2133  0.1391 -0.7415
  917TIP3    H124166   4.175   6.288  13.955 -0.7348  0.0047 -2.1414
  917TIP3    H224167   4.254   6.302  13.827  0.9456  1.7212 -0.9748
  918TIP3   OH224168   1.422   1.602  17.023  0.0360  0.0346 -0.0996
  918TIP3    H124169   1.368   1.660  17.077 -0.5711 -0.4442 -0.1821
  918TIP3    H224170   1.493   1.658  16.992 -0.8906  0.9198 -0.7024
  919TIP3   OH224171   1.251   2.616  16.720  0.2185  0.3085 -0.5956
  919TIP3    H124172   1.221   2.679  16.786  0.2117  0.6726 -0.9425
  919TIP3    H224173   1.343   2.640  16.705 -0.4278  1.8232 -2.5053
  920TIP3   OH224174   2.313   6.757   5.225 -0.0588  0.5669  0.0275
  920TIP3    H124175   2.253   6.831   5.226 -2.4726 -1.2522  0.6089
  920TIP3    H224176   2.269   6.690   5.278  1.5499 -1.6156 -1.2316
  921TIP3   OH224177   3.359   1.589  11.266  0.1903  0.2016  0.0486
  921TIP3    H124178   3.387   1.543  11.187  0.9973 -2.4222  1.7446
  921TIP3    H224179   3.397   1.676  11.258 -0.7424  0.4430 -2.9489
  922TIP3   OH224180   0.521   5.539  14.705 -0.0664 -0.2146  0.2270
  922TIP3    H124181   0.569   5.457  14.710  1.7730  0.7946  0.0981
  922TIP3    H224182   0.540   5.583  14.788 -1.6142 -0.2023  0.5968
  923TIP3   OH224183   3.619   5.445   0.081 -0.2367 -0.1231 -0.6208
  923TIP3    H124184   3.670   5.525   0.067 -1.0005  0.5861  0.5070
  923TIP3    H224185   3.684   5.375   0.083  0.7047  0.7498  0.7282
  924TIP3   OH224186   5.792   1.647   0.210  0.7406  0.0536  0.1304
  924TIP3    H124187   5.773   1.690   0.294  0.6287  0.4799 -0.1080
  924TIP3    H224188   5.706   1.619   0.178  0.7726 -0.0311  0.1202
  925TIP3   OH224189   6.683   2.019   2.202  0.1040  0.1211  0.0532
  925TIP3    H124190   6.630   2.094   2.173 -1.2076  1.1685  4.5028
  925TIP3    H224191   6.768   2.057   2.224 -0.6202  0.4728  2.4929
  926TIP3   OH224192   4.694   4.356  16.470 -0.5034  0.1370  0.5519
  926TIP3    H124193   4.631   4.354  16.541 -2.5762 -1.3332 -1.1872
  926TIP3    H224194   4.747   4.277  16.482 -2.6897 -1.6995 -0.9351
  927TIP3   OH224195   4.466   2.844   2.169  0.1162  0.0297  0.1989
  927TIP3    H124196   4.495   2.934   2.179  1.6745 -0.4887  0.7952
  927TIP3    H224197   4.516   2.811   2.094 -1.6614  0.1092 -1.0632
  928TIP3   OH224198   6.511   4.279   5.780  0.0631  0.2596  0.1473
  928TIP3    H124199   6.422   4.259   5.751  0.2772 -2.5403  1.0341
  928TIP3    H224200   6.559   4.299   5.700 -0.7223 -1.2582 -0.7645
  929TIP3   OH224201   5.860   4.677   2.019 -0.4064 -0.4138  0.1145
  929TIP3    H124202   5.864   4.682   2.114  1.1145 -2.2353  0.1878
  929TIP3    H224203   5.781   4.626   2.001 -0.2878 -0.7088  0.4302
  930TIP3   OH224204   2.008   5.434  14.495  0.6975  0.2895 -0.9088
  930TIP3    H124205   1.953   5.415  14.571  2.1643  0.4762  0.2397
  930TIP3    H224206   2.008   5.529  14.488  0.4696  0.2684 -1.2252
  931TIP3   OH224207   6.556   1.629  13.996 -0.3085  0.1916  0.8699
  931TIP3    H124208   6.616   1.579  14.052 -0.8684 -1.0991  0.3501
  931TIP3    H224209   6.609   1.650  13.918 -0.7423 -1.7626 -0.0135
  932TIP3   OH224210   2.743   3.522  14.992 -0.1926 -0.0891 -0.2298
  932TIP3    H124211   2.756   3.545  15.084  0.0646  0.1334 -0.3215
  932TIP3    H224212   2.682   3.589  14.959 -1.7624 -1.2205  0.2425
  933TIP3   OH224213   5.025   0.639  15.942  0.0525  0.2066  0.1170
  933TIP3    H124214   5.008   0.580  15.868  1.4152  0.3418 -0.3296
  933TIP3    H224215   4.941   0.683  15.957 -0.2190  0.2860 -1.4482
  934TIP3   OH224216   3.798   5.588  14.328 -0.7356 -0.5825 -0.0378
  934TIP3    H124217   3.859   5.550  14.265 -0.3965 -0.3796  0.1654
  934TIP3    H224218   3.735   5.518  14.347 -0.1483 -1.0249  0.3022
  935TIP3   OH224219   4.874   3.699  15.681 -0.4028 -0.9496  0.1662
  935TIP3    H124220   4.968   3.716  15.683 -0.7560  1.3741  0.2591
  935TIP3    H224221   4.850   3.714  15.589 -1.2649  2.9672  0.8293
  936TIP3   OH224222   2.054   0.473   1.102 -0.5437 -0.1574  0.2599
  936TIP3    H124223   2.044   0.546   1.040 -0.0603 -0.0509  0.3018
  936TIP3    H224224   2.106   0.408   1.054 -0.0861 -0.0351  0.5865
  937TIP3   OH224225   1.729   0.226   0.898  0.2721  0.4356 -0.0617
  937TIP3    H124226   1.708   0.140   0.862  1.8254 -0.4720  1.0407
  937TIP3    H224227   1.656   0.247   0.955 -1.1755  0.9087 -1.9722
  938TIP3   OH224228   3.785   3.427   3.076 -0.3126  0.0403 -0.2276
  938TIP3    H124229   3.702   3.471   3.059 -0.3463  0.6128  1.3339
  938TIP3    H224230   3.840   3.493   3.117 -0.1595 -1.1634  1.6014
  939TIP3   OH224231   5.395   3.746  11.466 -0.0024 -0.1782  0.0489
  939TIP3    H124232   5.458   3.737  11.394  0.8801 -0.1269  0.7915
  939TIP3    H224233   5.312   3.768  11.423  0.4338 -0.4543 -0.9670
  940TIP3   OH224234   1.912   3.987   1.079  0.2922 -0.1624 -0.2081
  940TIP3    H124235   1.851   4.053   1.112  0.0944 -0.1300 -0.6301
  940TIP3    H224236   1.989   4.037   1.052  0.1469 -0.1064 -0.5170
  941TIP3   OH224237   2.414   3.398  14.617  0.7612 -0.0990 -0.3177
  941TIP3    H124238   2.480   3.392  14.686  1.1158 -0.3097 -0.6682
  941TIP3    H224239   2.381   3.487  14.623  1.4334  0.1654 -0.4524
  942TIP3   OH224240   4.766   2.165   4.379 -0.1043  0.6978  0.0735
  942TIP3    H124241   4.687   2.112   4.372  1.8078 -2.5452  0.5205
  942TIP3    H224242   4.760   2.205   4.466 -2.0273  2.0243 -0.6200
  943TIP3   OH224243   1.753   3.547   3.802 -0.0978 -0.0432 -0.0246
  943TIP3    H124244   1.682   3.515   3.857 -1.0330  1.4898 -0.2825
  943TIP3    H224245   1.719   3.542   3.713 -0.0409  1.0078 -0.1262
  944TIP3   OH224246   0.043   4.418   1.676  0.6061 -0.2412  0.1312
  944TIP3    H124247   0.009   4.496   1.720 -0.7955 -0.6964 -0.1111
  944TIP3    H224248   0.130   4.444   1.645  0.1952  1.2004  0.1195
  945TIP3   OH224249   6.591   5.895  16.949 -0.5304 -0.0725 -0.3826
  945TIP3    H124250   6.652   5.928  16.882 -0.5722 -0.6758 -0.7239
  945TIP3    H224251   6.606   5.952  17.025 -0.4106  0.5585 -0.8702
  946TIP3   OH224252   1.975   5.397   2.044  0.1754  0.4315  0.4871
  946TIP3    H124253   2.006   5.444   1.967 -0.3915  0.8494  0.5098
  946TIP3    H224254   1.880   5.411   2.045 -0.2176 -1.7643 -0.2240
  947TIP3   OH224255   2.633   3.252   6.174 -0.5685  0.0897  0.3505
  947TIP3    H124256   2.677   3.310   6.235 -2.0171  0.7504  0.8253
  947TIP3    H224257   2.552   3.226   6.220 -1.3957  0.1158 -1.0257
  948TIP3   OH224258   6.348   5.054  16.350  0.7521  0.0296 -0.1830
  948TIP3    H124259   6.408   4.980  16.349  1.0157  0.2431 -0.7811
  948TIP3    H224260   6.367   5.100  16.432  1.4694  0.1465 -0.4071
  949TIP3   OH224261   2.169   2.034   6.506 -0.8938 -0.4652 -0.1733
  949TIP3    H124262   2.234   2.101   6.522  0.1633 -1.2707 -0.9899
  949TIP3    H224263   2.087   2.071   6.539  0.1637  0.1174  1.9166
  950TIP3   OH224264   5.139   3.870  13.488  0.1309 -0.6425 -0.0389
  950TIP3    H124265   5.157   3.963  13.477  0.7876 -0.7806 -0.2128
  950TIP3    H224266   5.141   3.856  13.583 -1.5137 -0.2005  0.0807
  951TIP3   OH224267   0.385   5.997  11.495 -0.4511  0.2291  0.3685
  951TIP3    H124268   0.360   6.078  11.539  1.4395  1.1835 -0.1893
  951TIP3    H224269   0.381   5.930  11.563  0.4862  1.2871  1.5086
  952TIP3   OH224270   6.619   3.279  16.015 -0.5943 -0.0930  0.2353
  952TIP3    H124271   6.651   3.369  16.008 -2.3880  0.5503 -0.3928
  952TIP3    H224272   6.543   3.285  16.072 -1.1079 -1.0893 -0.3118
  953TIP3   OH224273   2.985   5.014   3.607 -0.3487  0.1199  0.1736
  953TIP3    H124274   2.934   5.093   3.624  0.0232 -0.0181  2.2697
  953TIP3    H224275   2.919   4.947   3.589 -0.7754  0.4708  0.4025
  954TIP3   OH224276   2.587   2.747  13.291  0.2295  0.5358  0.0409
  954TIP3    H124277   2.518   2.744  13.356  0.1858  1.3407  0.0402
  954TIP3    H224278   2.668   2.755  13.342  0.2843  0.0819  0.0276
  955TIP3   OH224279   5.860   1.751  16.109 -0.6766  0.4329  0.0319
  955TIP3    H124280   5.926   1.811  16.073 -1.2197 -0.0014 -1.7749
  955TIP3    H224281   5.781   1.769  16.058 -1.1215 -1.1312  0.1277
  956TIP3   OH224282   3.156   2.458  14.642 -0.3014  0.1622 -0.0207
  956TIP3    H124283   3.135   2.365  14.646  0.6048 -0.0055  2.6717
  956TIP3    H224284   3.071   2.502  14.648 -0.5665 -0.5195  1.5708
  957TIP3   OH224285   0.015   0.323  11.632  0.9795  0.0154  0.4247
  957TIP3    H124286   0.038   0.288  11.546 -0.9864  0.8109 -0.4797
  957TIP3    H224287   0.034   0.416  11.627  1.9899 -0.1200  1.2969
  958TIP3   OH224288   6.757   2.761  13.049  0.2404  0.4983  0.6195
  958TIP3    H124289   6.742   2.856  13.046 -1.6971  0.2567  1.3070
  958TIP3    H224290   6.828   2.746  12.987 -1.4208  2.0554 -1.8140
  959TIP3   OH224291   1.572   6.433   2.966 -0.5023  0.1887  0.1023
  959TIP3    H124292   1.490   6.483   2.968 -1.2876 -1.0739  0.3211
  959TIP3    H224293   1.634   6.486   3.016 -1.8119  0.0993  1.9203
  960TIP3   OH224294   5.094   4.365  15.576 -0.1784  0.0131 -0.3452
  960TIP3    H124295   5.109   4.398  15.488 -0.1334 -1.3974 -0.8918
  960TIP3    H224296   5.000   4.347  15.579 -0.5207  1.7237  0.5235
  961TIP3   OH224297   2.910   2.495   5.515  0.0505 -0.7156  0.1274
  961TIP3    H124298   2.924   2.485   5.610  0.1185  0.1450  0.2213
  961TIP3    H224299   2.816   2.482   5.503 -0.0400 -0.3248  0.3914
  962TIP3   OH224300   4.995   6.025   4.439 -0.2000  0.8018 -0.1147
  962TIP3    H124301   4.980   6.103   4.492 -1.4213 -0.0285  0.8040
  962TIP3    H224302   5.025   5.959   4.501 -2.8317 -0.5471 -0.1205
  963TIP3   OH224303   4.619   4.327   4.139 -0.2352 -0.7139  0.1367
  963TIP3    H124304   4.610   4.248   4.087  1.7812 -0.5246 -0.6162
  963TIP3    H224305   4.680   4.303   4.210 -0.4414 -0.1244  0.5293
  964TIP3   OH224306   6.230   3.580   3.835  0.0779  0.1536  0.6673
  964TIP3    H124307   6.262   3.642   3.900 -0.4035  0.6790  0.4071
  964TIP3    H224308   6.283   3.596   3.757 -0.5496  0.7711  0.3554
  965TIP3   OH224309   0.169   5.724   2.921  0.0511 -0.2340 -0.4054
  965TIP3    H124310   0.074   5.714   2.912  0.1503 -0.7500 -0.9593
  965TIP3    H224311   0.185   5.715   3.015 -0.4718  0.1024 -0.2770
  966TIP3   OH224312   1.022   4.730  13.292  0.1599  0.1065  0.8639
  966TIP3    H124313   1.046   4.815  13.329 -0.1612  0.8770 -0.6171
  966TIP3    H224314   1.024   4.670  13.367  1.2447  1.2294  1.7855
  967TIP3   OH224315   3.966   3.101  12.287 -0.0815 -0.1489  0.8535
  967TIP3    H124316   3.922   3.144  12.360 -0.2256  1.9169 -0.3688
  967TIP3    H224317   3.898   3.049  12.245 -0.2035 -0.6490  1.6517
  968TIP3   OH224318   5.826   0.590  11.720  0.0529 -0.0914 -0.1994
  968TIP3    H124319   5.806   0.499  11.742 -0.8673 -0.4099 -2.1370
  968TIP3    H224320   5.917   0.589  11.691 -0.4736 -0.7950 -1.9621
  969TIP3   OH224321   5.577   6.761  17.004  0.1667 -0.7592 -0.1644
  969TIP3    H124322   5.560   6.853  16.987  1.8486 -0.3888 -0.0021
  969TIP3    H224323   5.547   6.716  16.925  1.0745  0.1330 -1.0365
  970TIP3   OH224324   4.104   1.066  11.526 -0.1564 -0.7313 -0.0385
  970TIP3    H124325   4.074   1.050  11.616 -1.7501 -0.0956 -0.4254
  970TIP3    H224326   4.061   1.148  11.501  1.3137 -0.1929 -0.9361
  971TIP3   OH224327   1.614   1.687  14.253 -0.1975  0.1596 -0.4306
  971TIP3    H124328   1.577   1.775  14.247 -1.2200 -0.0642  1.7658
  971TIP3    H224329   1.538   1.628  14.250  0.2095 -0.4799  0.8470
  972TIP3   OH224330   2.986   1.117  13.880 -0.3470 -0.1756  0.3725
  972TIP3    H124331   2.988   1.147  13.789 -2.6335 -3.3982 -0.9187
  972TIP3    H224332   2.925   1.176  13.923 -0.5985  0.3312 -0.6450
  973TIP3   OH224333   2.807   4.829  14.673 -0.1628  0.6644 -0.4092
  973TIP3    H124334   2.765   4.805  14.756  0.2549 -0.2590 -0.4478
  973TIP3    H224335   2.758   4.780  14.606  0.5055  0.1308 -0.5266
  974TIP3   OH224336   6.518   3.614   3.687  0.1039  0.4260 -0.8174
  974TIP3    H124337   6.541   3.562   3.764 -0.9280  0.5835 -0.3954
  974TIP3    H224338   6.551   3.563   3.613 -2.5399 -1.8562 -0.5970
  975TIP3   OH224339   5.308   2.618   0.650 -0.8872 -0.1165  0.0366
  975TIP3    H124340   5.266   2.542   0.610 -0.0802  0.0749 -1.2172
  975TIP3    H224341   5.352   2.663   0.578  1.0298 -0.0137  1.1757
  976TIP3   OH224342   1.204   5.131   1.959  0.2655  0.2916 -0.2704
  976TIP3    H124343   1.225   5.141   1.866  0.3369  0.6147 -0.2205
  976TIP3    H224344   1.233   5.043   1.981 -1.9782 -0.7563 -1.1574
  977TIP3   OH224345   1.555   6.166  13.115  0.4620  0.5391  0.4885
  977TIP3    H124346   1.584   6.251  13.147 -1.1991  1.0820  0.6036
  977TIP3    H224347   1.587   6.104  13.181  3.3523  0.7685 -0.5407
  978TIP3   OH224348   6.338   2.471   1.268  0.0623  0.3156 -0.0212
  978TIP3    H124349   6.314   2.555   1.308 -0.8244  0.9242 -1.7476
  978TIP3    H224350   6.258   2.418   1.274  0.9297 -0.8886  2.0842
  979TIP3   OH224351   1.792   1.242  11.995  0.3575  0.6338 -0.1035
  979TIP3    H124352   1.752   1.248  11.909  0.4475 -0.0445 -0.1952
  979TIP3    H224353   1.731   1.190  12.047 -0.0208  1.6004  0.4412
  980TIP3   OH224354   0.858   6.368  14.924  0.3332 -0.4659 -0.4121
  980TIP3    H124355   0.916   6.293  14.931  1.0767  0.1955  0.8379
  980TIP3    H224356   0.798   6.360  14.998 -0.0117 -0.1942 -0.6595
  981TIP3   OH224357   5.671   6.587   5.436 -0.0795  0.5578  0.3625
  981TIP3    H124358   5.627   6.546   5.361  0.7453 -0.8596  0.6225
  981TIP3    H224359   5.632   6.674   5.442  1.5130  1.7079 -3.2381
  982TIP3   OH224360   4.007   5.019  13.901  0.2318  0.1372  0.3664
  982TIP3    H124361   3.972   4.948  13.955  1.9137 -1.4018 -0.4664
  982TIP3    H224362   3.971   5.003  13.814 -0.3391  1.0503  0.4179
  983TIP3   OH224363   0.066   0.167  12.993  0.1965 -0.0191  0.1067
  983TIP3    H124364   0.113   0.128  13.066 -0.7333  1.7925  1.7660
  983TIP3    H224365   0.100   0.256  12.987 -0.0135 -0.0127 -1.4443
  984TIP3   OH224366   2.531   0.681  12.323  0.2953 -0.2772 -0.4026
  984TIP3    H124367   2.530   0.746  12.253 -1.0996  1.1471  0.8775
  984TIP3    H224368   2.483   0.722  12.395  3.9700 -0.5204  2.4759
  985TIP3   OH224369   2.579   1.766   3.594 -0.0278 -0.1611 -0.4339
  985TIP3    H124370   2.629   1.805   3.666 -0.8648 -1.1904  0.7510
  985TIP3    H224371   2.596   1.823   3.520  1.8122  0.2815  0.2653
  986TIP3   OH224372   1.230   5.556  15.449  0.9355  0.2632  0.5932
  986TIP3    H124373   1.148   5.550  15.400  0.6020  2.3775  0.7965
  986TIP3    H224374   1.249   5.466  15.476 -1.1053 -0.3234  0.2159
  987TIP3   OH224375   3.422   1.605   6.104  0.4132  0.0923  0.5571
  987TIP3    H124376   3.349   1.632   6.048  1.4932  0.9648 -0.5082
  987TIP3    H224377   3.385   1.540   6.163 -1.7266  2.0041  1.4597
  988TIP3   OH224378   0.454   4.631  12.032  0.5122  0.0441  0.1054
  988TIP3    H124379   0.391   4.565  12.061  1.0562  0.1057  1.4665
  988TIP3    H224380   0.510   4.647  12.108  0.8618  1.5299 -0.4250
  989TIP3   OH224381   2.177   3.798  13.328 -0.2782 -0.1951  0.4559
  989TIP3    H124382   2.272   3.809  13.327 -0.2670 -0.3384 -0.3126
  989TIP3    H224383   2.164   3.710  13.365  0.0198 -1.2490 -1.7594
  990TIP3   OH224384   4.765   5.670   5.594  0.4139  0.1474 -0.0015
  990TIP3    H124385   4.727   5.645   5.678  0.2310  0.4094 -0.0036
  990TIP3    H224386   4.782   5.587   5.549 -0.4501  0.0350 -0.1336
  991TIP3   OH224387   4.749   6.649  13.225  0.2978 -0.0107 -0.2017
  991TIP3    H124388   4.838   6.632  13.257  0.3019 -0.8743 -0.6270
  991TIP3    H224389   4.742   6.744  13.221  1.7021  0.0608 -1.5202
  992TIP3   OH224390   2.860   0.431  14.835 -0.1875 -0.5081 -0.3444
  992TIP3    H124391   2.881   0.405  14.745  2.7177  0.0798  0.0652
  992TIP3    H224392   2.836   0.524  14.828  1.3799 -0.0766 -0.4155
  993TIP3   OH224393   2.370   5.345   3.776  0.3937  0.2053  1.2656
  993TIP3    H124394   2.295   5.290   3.798  0.1929  0.6689  1.7669
  993TIP3    H224395   2.376   5.340   3.681 -0.2815  0.1699  1.2203
  994TIP3   OH224396   3.221   1.339   0.044  0.8438 -0.3716 -0.1848
  994TIP3    H124397   3.170   1.331  -0.037  1.5158 -0.3437 -0.6188
  994TIP3    H224398   3.281   1.265   0.042 -1.4129 -2.4276  1.9991
  995TIP3   OH224399   1.804   4.091  14.632 -0.1817  0.0743 -0.4572
  995TIP3    H124400   1.853   4.171  14.649  0.2424 -0.4288  0.7770
  995TIP3    H224401   1.743   4.084  14.705 -0.9879 -0.1502 -1.1438
  996TIP3   OH224402   0.473   6.325  14.534  0.1606 -0.2904  0.1427
  996TIP3    H124403   0.400   6.386  14.539 -0.5656 -1.1389  0.0606
  996TIP3    H224404   0.479   6.288  14.622 -1.4973 -2.4637 -0.5788
  997TIP3   OH224405   0.724   5.658   1.318 -0.4847  0.2517 -0.5192
  997TIP3    H124406   0.730   5.575   1.365  0.0259 -0.7821 -2.3106
  997TIP3    H224407   0.646   5.650   1.264  0.9350 -0.2167 -2.6606
  998TIP3   OH224408   3.859   0.789   4.416  0.0312  0.4319 -0.0999
  998TIP3    H124409   3.857   0.794   4.511  0.7776  1.4583 -0.1225
  998TIP3    H224410   3.882   0.697   4.397 -2.1151 -0.3017  0.6432
  999TIP3   OH224411   2.327   0.559  15.648  0.4483  0.3348  0.1038
  999TIP3    H124412   2.362   0.471  15.660  0.9614  0.8142  2.6782
  999TIP3    H224413   2.379   0.596  15.576  1.1779 -0.9586 -0.0641
 1000TIP3   OH224414   5.018   1.948  15.587 -0.6535 -0.3726  0.4271
 1000TIP3    H124415   5.075   1.916  15.657 -1.6305 -0.2375  1.3134
 1000TIP3    H224416   4.992   1.870  15.539 -0.1045 -0.4875  0.3182
 1001TIP3   OH224417   2.205   2.540  11.637  0.1232 -0.0411  0.1391
 1001TIP3    H124418   2.204   2.634  11.658 -2.6059 -0.2815  1.5503
 1001TIP3    H224419   2.277   2.505  11.690  1.1990  1.2197 -0.4250
 1002TIP3   OH224420   3.298   2.049  14.540  0.2258 -0.5470 -0.2250
 1002TIP3    H124421   3.324   2.093  14.458  0.5520 -0.5147 -0.1045
 1002TIP3    H224422   3.334   1.961  14.532 -0.8052 -0.9553 -0.6642
 1003TIP3   OH224423   0.308   1.178  11.800 -0.2566 -0.0257 -0.0197
 1003TIP3    H124424   0.387   1.208  11.846  0.1443 -2.0263  0.6864
 1003TIP3    H224425   0.332   1.179  11.707  1.2073 -2.1353  0.2827
 1004TIP3   OH224426   6.718   1.736   2.991  0.3038  0.3897 -0.0693
 1004TIP3    H124427   6.748   1.817   2.950  1.8061  1.4851  2.9210
 1004TIP3    H224428   6.763   1.733   3.075 -2.1104 -1.9800  1.3050
 1005TIP3   OH224429   0.264   6.302  16.400  0.4286  0.0630 -1.0125
 1005TIP3    H124430   0.231   6.212  16.408 -1.2665  0.7283  0.0621
 1005TIP3    H224431   0.245   6.326  16.309 -0.6659 -0.1375 -0.8592
 1006TIP3   OH224432   3.004   1.703  13.398  0.3460 -0.2870 -0.3935
 1006TIP3    H124433   3.058   1.655  13.461 -0.3706 -1.2513 -0.4829
 1006TIP3    H224434   2.982   1.785  13.442  1.6035 -0.0137 -0.2376
 1007TIP3   OH224435   6.422   1.618   0.254 -0.0916  0.0675 -0.0437
 1007TIP3    H124436   6.353   1.600   0.190  0.1051 -0.7093 -0.0565
 1007TIP3    H224437   6.478   1.540   0.250 -0.5071 -0.3571  1.6363
 1008TIP3   OH224438   1.616   1.144  11.361 -0.3352 -0.4332  0.0801
 1008TIP3    H124439   1.685   1.102  11.412 -1.6384 -1.7491  0.8543
 1008TIP3    H224440   1.604   1.086  11.285  0.6183  0.7601 -1.0270
 1009TIP3   OH224441   2.277   1.227  13.129  0.0145 -0.2636 -0.3621
 1009TIP3    H124442   2.195   1.183  13.151 -0.3554  1.1293  1.2664
 1009TIP3    H224443   2.249   1.312  13.095  0.7789  0.3665  0.5411
 1010TIP3   OH224444   5.278   6.023  11.183  0.3117  0.3373  0.1209
 1010TIP3    H124445   5.288   6.114  11.210 -2.9504  0.6609  0.6444
 1010TIP3    H224446   5.192   6.020  11.143 -0.5189 -2.8740  1.8319
 1011TIP3   OH224447   3.870   5.674   5.231  0.2432  0.1957  0.0716
 1011TIP3    H124448   3.814   5.748   5.255  0.4727 -0.0844  1.6082
 1011TIP3    H224449   3.838   5.646   5.145 -0.2030  1.7228 -0.2918
 1012TIP3   OH224450   4.873   4.147   6.061  0.1669  0.7227 -0.4228
 1012TIP3    H124451   4.878   4.087   6.135  1.6613  0.6464 -0.5594
 1012TIP3    H224452   4.802   4.208   6.084 -1.4768 -1.1364 -0.3499
 1013TIP3   OH224453   2.531   6.345  16.669 -0.5869  0.0873  0.1105
 1013TIP3    H124454   2.458   6.340  16.607 -1.2150 -1.2257  0.9217
 1013TIP3    H224455   2.608   6.329  16.616 -1.0384 -0.1476 -0.4888
 1014TIP3   OH224456   5.240   1.473   5.811  0.0959  0.7765 -0.1078
 1014TIP3    H124457   5.325   1.480   5.855 -0.0587  0.6759  0.2159
 1014TIP3    H224458   5.247   1.394   5.758 -0.3329 -0.1253  1.1454
 1015TIP3   OH224459   4.702   4.068  14.403  0.0864 -0.1284 -0.3127
 1015TIP3    H124460   4.791   4.093  14.429 -0.1365 -0.9803  1.4498
 1015TIP3    H224461   4.645   4.111  14.467 -0.5268 -2.1535  0.5636
 1016TIP3   OH224462   0.078   2.466  16.970 -0.3796  0.2225 -0.1664
 1016TIP3    H124463   0.001   2.482  16.917 -0.4044  1.2042  0.1419
 1016TIP3    H224464   0.128   2.399  16.922 -2.5415 -2.2653  0.7843
 1017TIP3   OH224465   5.080   0.865  16.923 -0.1170  0.0115  0.7528
 1017TIP3    H124466   5.123   0.927  16.865  0.2355  0.7465  1.7739
 1017TIP3    H224467   5.015   0.917  16.971 -1.2169 -0.8109  0.2157
 1018TIP3   OH224468   4.470   0.191   3.339 -0.2225 -0.2980  0.3008
 1018TIP3    H124469   4.550   0.238   3.362 -1.5602  2.8442 -0.8690
 1018TIP3    H224470   4.497   0.129   3.271  1.3308  0.1343  0.4856
 1019TIP3   OH224471   4.787   0.536   1.911 -0.2487 -0.3416  0.7197
 1019TIP3    H124472   4.763   0.527   2.003  0.5932 -0.2223  0.9628
 1019TIP3    H224473   4.845   0.462   1.893  0.5830  0.3091  0.6347
 1020TIP3   OH224474   4.726   3.726  12.567 -0.2722 -0.3525  0.5435
 1020TIP3    H124475   4.745   3.714  12.474 -3.0995 -3.2857  0.1376
 1020TIP3    H224476   4.809   3.707  12.612  0.9850  0.5198 -1.3085
 1021TIP3   OH224477   6.142   2.753  13.833 -0.3930 -0.6611 -0.4533
 1021TIP3    H124478   6.204   2.723  13.767  1.1327 -1.2945  1.1906
 1021TIP3    H224479   6.163   2.701  13.911 -0.6285  1.5663  1.1871
 1022TIP3   OH224480   3.399   2.910  12.732  0.2370  0.7042 -0.5969
 1022TIP3    H124481   3.415   2.833  12.678  2.3179  0.6385  0.0323
 1022TIP3    H224482   3.340   2.964  12.680 -0.0987 -0.6418 -1.6634
 1023TIP3   OH224483   6.259   5.702  11.082  0.2723 -0.1177  0.5264
 1023TIP3    H124484   6.332   5.724  11.024 -0.1565 -0.5456 -0.1828
 1023TIP3    H224485   6.185   5.751  11.047  0.1887  0.2337  1.1862
 1024TIP3   OH224486   4.305   5.909   4.654  0.6203  0.8060  0.5437
 1024TIP3    H124487   4.327   6.002   4.661  0.3881  0.8220  1.0639
 1024TIP3    H224488   4.231   5.897   4.713  1.4876  0.0110  1.4954
 1025TIP3   OH224489   6.140   4.796  11.004  0.1760 -0.4994 -0.5716
 1025TIP3    H124490   6.139   4.789  10.908 -0.0831 -0.3686 -0.5801
 1025TIP3    H224491   6.048   4.807  11.028  0.3736  1.0242 -0.4334
 1026TIP3   OH224492   1.893   4.783   2.953 -0.2644  0.5433 -0.5035
 1026TIP3    H124493   1.955   4.721   2.915 -0.3833  2.2421 -3.8705
 1026TIP3    H224494   1.943   4.865   2.959 -0.6171  0.6432  2.1557
 1027TIP3   OH224495   1.658   3.485  15.419 -0.5320  0.0857 -0.4641
 1027TIP3    H124496   1.619   3.490  15.507  0.0013 -0.1199 -0.2088
 1027TIP3    H224497   1.748   3.456  15.435 -1.0181 -2.0035 -1.2302
 1028TIP3   OH224498   1.131   6.783   2.277  0.4909 -0.2965 -0.5303
 1028TIP3    H124499   1.189   6.840   2.327  1.3719  0.0332 -1.8810
 1028TIP3    H224500   1.097   6.721   2.342 -1.3211  2.3190  1.2124
 1029TIP3   OH224501   6.102   5.732   5.906 -0.0825 -0.0427  0.8260
 1029TIP3    H124502   6.102   5.775   5.992  1.5705 -0.5227  1.0950
 1029TIP3    H224503   6.110   5.803   5.843 -0.1800  0.2350  1.1268
 1030TIP3   OH224504   2.619   4.813   4.861  0.3443  0.0272 -0.3039
 1030TIP3    H124505   2.638   4.789   4.771  0.5382 -0.7380 -0.0657
 1030TIP3    H224506   2.656   4.741   4.913 -0.1737  0.2341  0.3558
 1031TIP3   OH224507   4.965   6.330   0.109  0.4542  0.6070 -0.2035
 1031TIP3    H124508   4.992   6.341   0.200  0.9776  2.3063 -0.5214
 1031TIP3    H224509   4.951   6.419   0.077  1.0673  0.1162 -2.0163
 1032TIP3   OH224510   5.716   5.290  16.429  0.5969  0.1681 -0.3931
 1032TIP3    H124511   5.721   5.305  16.335  0.8042  0.1616 -0.3835
 1032TIP3    H224512   5.796   5.328  16.464  0.7118 -0.1841 -0.2657
 1033TIP3   OH224513   0.405   6.686   1.452  0.5133 -0.4406  0.0438
 1033TIP3    H124514   0.404   6.714   1.543 -3.3980 -0.5670  0.2024
 1033TIP3    H224515   0.489   6.641   1.441  2.5859  2.3729  2.5674
 1034TIP3   OH224516   5.390   4.273   3.728 -0.5258  0.4297  0.7212
 1034TIP3    H124517   5.418   4.325   3.803  1.1791 -0.0147  0.4400
 1034TIP3    H224518   5.422   4.185   3.747  3.5841  1.0197 -2.2046
 1035TIP3   OH224519   0.617   2.770  12.056 -0.4001 -0.2057  0.3376
 1035TIP3    H124520   0.555   2.837  12.085 -1.4932 -1.3967  0.8478
 1035TIP3    H224521   0.683   2.767  12.126 -0.5892  0.0208  0.5276
 1036TIP3   OH224522   4.211   4.392   3.768  0.2513  0.5068  0.0476
 1036TIP3    H124523   4.210   4.455   3.840  0.7246 -0.0469  0.5523
 1036TIP3    H224524   4.140   4.331   3.788  1.9555 -1.1583  1.4652
 1037TIP3   OH224525   2.210   5.655   4.503 -0.3520 -0.0956  0.1736
 1037TIP3    H124526   2.200   5.572   4.550 -3.3738  0.5558  0.8945
 1037TIP3    H224527   2.211   5.630   4.410  1.2012 -1.0603  0.4180
 1038TIP3   OH224528   6.573   5.792   6.417 -0.1600  0.2334 -0.3787
 1038TIP3    H124529   6.595   5.712   6.465  0.8743  1.0574  0.6066
 1038TIP3    H224530   6.650   5.809   6.362 -0.7400  0.0857 -1.2530
 1039TIP3   OH224531   6.035   6.819  14.744  0.4445  0.3216  0.6799
 1039TIP3    H124532   6.090   6.766  14.686  0.4872  0.2891  0.7503
 1039TIP3    H224533   6.092   6.839  14.818  0.3933  0.3755  0.7035
 1040TIP3   OH224534   1.651   1.375  15.752  0.0996  0.1865  0.3823
 1040TIP3    H124535   1.614   1.340  15.833 -1.1172  0.1146 -0.1912
 1040TIP3    H224536   1.743   1.349  15.756 -0.0094 -0.1123  1.5725
 1041TIP3   OH224537   1.323   4.463   3.374  0.9075  0.0214  0.2437
 1041TIP3    H124538   1.305   4.505   3.458  0.8056  0.6106 -0.0685
 1041TIP3    H224539   1.418   4.470   3.363  0.6842  2.4044 -0.9299
 1042TIP3   OH224540   1.329   6.774  15.279 -0.2223 -0.2459  0.4805
 1042TIP3    H124541   1.354   6.739  15.364 -0.8707 -0.5858  0.5429
 1042TIP3    H224542   1.342   6.701  15.218  0.1483 -0.0334  0.3022
 1043TIP3   OH224543   3.662   5.624  15.904 -0.4222 -0.1761  0.2389
 1043TIP3    H124544   3.665   5.550  15.843  0.2487  0.1498 -0.1343
 1043TIP3    H224545   3.682   5.700  15.851  1.7962 -0.0644  1.0955
 1044TIP3   OH224546   2.410   3.130  14.955 -0.0784 -0.4041 -0.2470
 1044TIP3    H124547   2.469   3.206  14.953 -0.7491  0.1330 -0.0678
 1044TIP3    H224548   2.469   3.054  14.956  0.6390  0.1351  1.1964
 1045TIP3   OH224549   2.326   0.141   6.195  0.5669  0.3929  0.0641
 1045TIP3    H124550   2.279   0.189   6.127  2.2966  2.0117 -0.0522
 1045TIP3    H224551   2.326   0.199   6.271 -1.2067 -1.3311  1.4749
 1046TIP3   OH224552   5.718   5.830   6.710  0.3646 -0.0062 -0.1285
 1046TIP3    H124553   5.781   5.890   6.670 -0.0729  0.6747  0.1839
 1046TIP3    H224554   5.772   5.766   6.757  0.8364  0.1075 -0.5079
 1047TIP3   OH224555   5.511   0.444   3.222 -0.6748 -0.9491  0.3790
 1047TIP3    H124556   5.575   0.406   3.282 -0.8441 -1.3771  0.2909
 1047TIP3    H224557   5.552   0.525   3.192  0.0587 -1.4901 -0.1002
 1048TIP3   OH224558   1.937   3.883  14.052  0.0210  0.4621  0.0949
 1048TIP3    H124559   1.909   3.938  13.980 -0.8013  0.9354  0.7670
 1048TIP3    H224560   2.005   3.934  14.097  1.4653 -0.3563 -1.0610
 1049TIP3   OH224561   4.683   0.568   1.026  0.3234  0.4439 -0.1444
 1049TIP3    H124562   4.682   0.662   1.008 -0.5396  0.8154  1.6485
 1049TIP3    H224563   4.593   0.539   1.010  0.3568  0.1210  0.2366
 1050TIP3   OH224564   3.581   0.795   3.776 -0.1513 -0.0895 -0.6602
 1050TIP3    H124565   3.670   0.822   3.753 -0.3185  0.5411 -0.5839
 1050TIP3    H224566   3.567   0.831   3.864 -1.7643  3.0352 -2.0139
 1051TIP3   OH224567   0.742   3.827   1.625 -0.1719 -0.1841 -0.1668
 1051TIP3    H124568   0.729   3.732   1.630  0.9391 -0.3131  0.4663
 1051TIP3    H224569   0.687   3.854   1.551  0.3236 -1.4668 -1.0451
 1052TIP3   OH224570   0.142   2.465   5.874  0.0507  0.2023  0.0796
 1052TIP3    H124571   0.117   2.543   5.923 -0.5937  1.2663 -1.8239
 1052TIP3    H224572   0.210   2.495   5.814 -0.6678 -0.5191 -1.1423
 1053TIP3   OH224573   2.658   3.668  15.213  0.1301  0.0089  0.1878
 1053TIP3    H124574   2.655   3.676  15.308  0.8293 -0.6416  0.2773
 1053TIP3    H224575   2.695   3.751  15.182  0.5786 -0.0534  0.5444
 1054TIP3   OH224576   4.865   5.929  12.979  0.0724 -0.1179 -0.0655
 1054TIP3    H124577   4.902   5.850  13.017  1.1450  0.9681  1.2863
 1054TIP3    H224578   4.770   5.922  12.995 -0.0088 -1.6566 -1.0725
 1055TIP3   OH224579   6.140   2.471  12.390 -0.5665 -0.1513  0.3871
 1055TIP3    H124580   6.154   2.500  12.480 -0.0079 -0.2410  0.3368
 1055TIP3    H224581   6.104   2.547  12.345  0.1162  0.2150  0.4453
 1056TIP3   OH224582   4.457   0.396   0.982 -0.1650 -0.2649 -0.1685
 1056TIP3    H124583   4.383   0.340   0.958  0.5780 -0.8609 -1.0962
 1056TIP3    H224584   4.484   0.364   1.068  0.3278 -1.4328 -0.7422
 1057TIP3   OH224585   1.799   2.882  14.891  0.6030 -0.2420 -0.3228
 1057TIP3    H124586   1.754   2.823  14.830  0.3203  1.3750 -1.7624
 1057TIP3    H224587   1.854   2.825  14.943  0.8344 -1.7278 -2.0875
 1058TIP3   OH224588   0.691   4.401  15.854  0.1622 -0.7064 -0.3541
 1058TIP3    H124589   0.614   4.452  15.828  0.2554 -0.4217 -0.0865
 1058TIP3    H224590   0.720   4.358  15.774 -1.8117 -2.9287  0.0325
 1059TIP3   OH224591   6.328   5.559  16.034 -0.3400 -0.5932  0.4679
 1059TIP3    H124592   6.285   5.591  16.113 -0.8753 -1.1158  0.3976
 1059TIP3    H224593   6.338   5.637  15.979  1.3264  0.0477  1.5974
 1060TIP3   OH224594   5.315   5.833   3.720 -0.2248  0.2202  0.0027
 1060TIP3    H124595   5.369   5.823   3.642  0.4576  2.7103  0.0743
 1060TIP3    H224596   5.372   5.874   3.785 -1.6363  1.1207  0.7405
 1061TIP3   OH224597   5.016   3.798   1.743 -0.6407  0.3029  0.1983
 1061TIP3    H124598   4.985   3.727   1.686 -1.9833  1.8508 -1.1167
 1061TIP3    H224599   5.052   3.754   1.819 -0.5555 -1.8126 -0.9889
 1062TIP3   OH224600   4.017   6.468   3.561 -0.3414  0.2490  0.2378
 1062TIP3    H124601   4.104   6.451   3.526 -0.3647 -1.6049  0.9545
 1062TIP3    H224602   3.957   6.428   3.497 -0.5515 -0.1600  0.6828
 1063TIP3   OH224603   0.954   6.370  13.764 -0.2320  0.3717  0.9703
 1063TIP3    H124604   1.014   6.316  13.814  2.4639  2.0456 -0.2592
 1063TIP3    H224605   0.932   6.317  13.687 -1.0259 -0.5466  1.8022
 1064TIP3   OH224606   6.692   1.338   2.916 -0.5467 -0.0244  0.2235
 1064TIP3    H124607   6.782   1.355   2.943 -0.9292  0.5460  1.1819
 1064TIP3    H224608   6.693   1.350   2.821  0.4859 -0.4937  0.1590
 1065TIP3   OH224609   2.891   5.146  11.830  0.3998  0.2667 -0.1771
 1065TIP3    H124610   2.964   5.091  11.859  1.2089  1.3758 -0.0312
 1065TIP3    H224611   2.868   5.112  11.744  1.3511  0.1148 -0.3896
 1066TIP3   OH224612   3.542   0.950  16.205 -0.3889 -0.4788 -0.2962
 1066TIP3    H124613   3.590   1.016  16.254 -0.7240 -1.6489  1.7134
 1066TIP3    H224614   3.500   0.998  16.134  0.9165  1.1241 -0.0331
 1067TIP3   OH224615   4.769   5.228  16.452  0.1807  0.1570  0.0145
 1067TIP3    H124616   4.848   5.219  16.506  0.5418 -1.7029 -0.7303
 1067TIP3    H224617   4.802   5.232  16.362 -0.4750 -4.9069 -0.7703
 1068TIP3   OH224618   5.754   0.840   5.544 -0.4190  0.2703 -0.5294
 1068TIP3    H124619   5.704   0.918   5.568  0.3562  0.4924  0.4424
 1068TIP3    H224620   5.690   0.782   5.502 -1.3885  0.7212  0.2888
 1069TIP3   OH224621   6.566   2.446  16.823  0.3693  0.1751 -0.4019
 1069TIP3    H124622   6.655   2.425  16.796  0.5762 -1.0224  1.0428
 1069TIP3    H224623   6.524   2.360  16.835 -0.3611  0.6728  0.8108
 1070TIP3   OH224624   6.001   6.646  14.359  0.2907 -0.3268 -0.1788
 1070TIP3    H124625   6.090   6.615  14.342  0.0854 -0.2416 -1.4562
 1070TIP3    H224626   5.963   6.580  14.417  1.4236  0.0258  1.0028
 1071TIP3   OH224627   5.391   1.897  13.535 -0.1202  0.1057  0.1211
 1071TIP3    H124628   5.385   1.939  13.450  2.3614  0.1565 -0.1101
 1071TIP3    H224629   5.410   1.968  13.596  0.2708 -0.1751  0.3374
 1072TIP3   OH224630   2.703   3.079   2.779  0.0975  0.3178 -0.0427
 1072TIP3    H124631   2.616   3.059   2.744  0.8936 -1.9879 -0.8731
 1072TIP3    H224632   2.761   3.070   2.704  1.4752 -1.8403  1.1677
 1073TIP3   OH224633   6.136   0.452   4.143 -0.4247 -1.2040 -0.1503
 1073TIP3    H124634   6.102   0.539   4.165  0.0124 -0.9966 -0.2949
 1073TIP3    H224635   6.128   0.447   4.047  1.0917 -0.6636 -0.3332
 1074TIP3   OH224636   5.746   3.338  13.324 -0.4075  0.2689  0.0118
 1074TIP3    H124637   5.736   3.428  13.356  1.1408 -0.0061  1.4613
 1074TIP3    H224638   5.835   3.314  13.350  0.0981 -0.8622 -2.5245
 1075TIP3   OH224639   2.987   4.420   0.509 -0.2253 -0.5683  0.0257
 1075TIP3    H124640   3.071   4.458   0.484  0.0699 -1.6452 -0.7140
 1075TIP3    H224641   2.956   4.377   0.430  0.4705 -3.6423  1.2589
 1076TIP3   OH224642   3.632   1.163   5.028  0.6126 -0.0523 -0.4914
 1076TIP3    H124643   3.676   1.169   4.944 -0.4361  0.5745 -1.0103
 1076TIP3    H224644   3.576   1.086   5.021  0.8836 -0.2828 -0.1834
 1077TIP3   OH224645   1.684   4.671   4.620  0.0702  0.0225  0.4401
 1077TIP3    H124646   1.617   4.622   4.668  1.1425 -0.2289  1.7575
 1077TIP3    H224647   1.745   4.605   4.588  0.7235  0.3667  0.9401
 1078TIP3   OH224648   1.346   4.471   0.552 -0.2473  0.4557  0.2229
 1078TIP3    H124649   1.401   4.527   0.607  2.1027  1.2216 -2.6324
 1078TIP3    H224650   1.303   4.532   0.491 -0.3651 -0.5423 -0.7232
 1079TIP3   OH224651   0.973   0.119  16.818 -0.1932  0.0855  0.7324
 1079TIP3    H124652   0.931   0.168  16.748 -1.3509  0.6780  1.7965
 1079TIP3    H224653   0.921   0.139  16.896  0.0400 -1.8501  1.4584
 1080TIP3   OH224654   0.809   4.082   3.025  0.6403  0.1044  0.3181
 1080TIP3    H124655   0.785   3.991   3.008 -1.3806  0.1709  2.3704
 1080TIP3    H224656   0.725   4.128   3.029  1.4852  1.6007  1.6666
 1081TIP3   OH224657   1.538   0.588  15.799  0.2357 -0.5931 -0.5930
 1081TIP3    H124658   1.446   0.571  15.819  0.6793 -1.9855  0.4176
 1081TIP3    H224659   1.568   0.507  15.757  1.3972 -0.8010  0.5771
 1082TIP3   OH224660   5.543   4.739  14.571  0.7137  0.3532  0.4569
 1082TIP3    H124661   5.572   4.736  14.480 -0.3186  0.1366  0.1238
 1082TIP3    H224662   5.540   4.647  14.599  1.1024  0.4231  0.7388
 1083TIP3   OH224663   1.912   6.295   3.091 -0.1251  0.1511  0.1802
 1083TIP3    H124664   1.819   6.293   3.115 -0.4011 -1.0601 -0.9040
 1083TIP3    H224665   1.915   6.255   3.004  1.3240  0.8804 -0.1300
 1084TIP3   OH224666   4.710   1.547  11.719  0.7729 -0.8066  0.1046
 1084TIP3    H124667   4.731   1.488  11.647  0.1528 -0.1251 -0.6632
 1084TIP3    H224668   4.640   1.602  11.685  1.2373  0.2813  0.8390
 1085TIP3   OH224669   4.163   2.671   4.530 -0.5661  0.3862 -0.1535
 1085TIP3    H124670   4.190   2.756   4.496  0.7162  0.6873  1.4528
 1085TIP3    H224671   4.156   2.615   4.453 -1.2589  1.8811 -1.2214
 1086TIP3   OH224672   5.080   3.212   0.188 -0.0259 -0.1061  0.1828
 1086TIP3    H124673   5.075   3.116   0.189 -0.2378 -0.0963  0.1587
 1086TIP3    H224674   5.003   3.240   0.237 -1.1226  0.0955 -1.5911
 1087TIP3   OH224675   5.113   5.680   3.818 -0.1293 -0.0254 -0.2879
 1087TIP3    H124676   5.050   5.718   3.758  0.8911  0.0668 -1.3296
 1087TIP3    H224677   5.193   5.730   3.804  1.0525 -2.0510 -1.1735
 1088TIP3   OH224678   3.816   4.665   4.526 -0.0574  0.4888 -0.1378
 1088TIP3    H124679   3.893   4.641   4.475  0.4218 -1.6286  1.4732
 1088TIP3    H224680   3.850   4.693   4.611 -1.0226 -1.3407  0.9122
 1089TIP3   OH224681   6.592   2.341   6.360 -0.2645 -0.3714 -0.0813
 1089TIP3    H124682   6.571   2.266   6.303  0.5956  0.0574 -0.9862
 1089TIP3    H224683   6.647   2.397   6.306  1.2996 -0.3571  1.4583
 1090TIP3   OH224684   2.362   5.013   4.710 -0.5016  0.1255 -0.6197
 1090TIP3    H124685   2.376   4.933   4.660 -0.0001 -0.9079  1.1262
 1090TIP3    H224686   2.340   4.984   4.798 -3.3406  1.8535 -0.6143
 1091TIP3   OH224687   3.067   2.095  12.536 -0.6925 -0.3651  0.5489
 1091TIP3    H124688   3.022   2.134  12.611 -0.5207 -0.4164  0.6795
 1091TIP3    H224689   3.031   2.007  12.530 -1.1814 -0.1462  0.1681
 1092TIP3   OH224690   2.921   1.713  16.233 -0.1453 -0.4700  0.6056
 1092TIP3    H124691   2.997   1.769  16.222 -0.1497 -0.7389 -1.0644
 1092TIP3    H224692   2.952   1.641  16.288  0.4870  0.0100  0.8859
 1093TIP3   OH224693   0.832   2.622  10.489 -0.4457  0.3371 -0.3278
 1093TIP3    H124694   0.926   2.603  10.486 -0.8083 -1.6812 -0.7239
 1093TIP3    H224695   0.800   2.602  10.401 -1.6068 -1.3979  0.4274
 1094TIP3   OH224696   1.294   0.153   3.870  0.6650 -0.2085  0.0423
 1094TIP3    H124697   1.217   0.112   3.830  0.0008 -2.1309  2.9725
 1094TIP3    H224698   1.360   0.084   3.872  1.1595  0.2642  0.8617
 1095TIP3   OH224699   4.083   2.087   4.181 -0.4474  0.0149  0.0969
 1095TIP3    H124700   4.030   2.034   4.121  2.3100 -0.9382 -1.6783
 1095TIP3    H224701   4.119   2.156   4.125 -0.5282  1.2072  1.4641
 1096TIP3   OH224702   0.328   0.850   4.608  0.2811 -0.0761  0.4760
 1096TIP3    H124703   0.390   0.824   4.540  1.2965  2.3082  0.4080
 1096TIP3    H224704   0.262   0.902   4.562 -1.0587 -1.4093  0.7872
 1097TIP3   OH224705   6.478   4.807   4.015  0.4834 -0.0254  0.7246
 1097TIP3    H124706   6.512   4.894   3.992 -0.5507  0.5866  1.4260
 1097TIP3    H224707   6.509   4.750   3.944  1.1634  0.9143  0.2395
 1098TIP3   OH224708   0.283   4.384   1.359  0.2531 -0.1288 -0.6279
 1098TIP3    H124709   0.309   4.309   1.304 -0.6456 -0.4745 -0.6073
 1098TIP3    H224710   0.288   4.351   1.449 -0.2712 -0.2131 -0.6257
 1099TIP3   OH224711   1.490   5.013  12.686 -0.4334 -0.0507  0.3602
 1099TIP3    H124712   1.413   5.008  12.743 -0.4381  0.4837  0.4098
 1099TIP3    H224713   1.523   5.102  12.699 -0.0782 -0.1261 -0.0130
 1100TIP3   OH224714   2.973   0.182   4.747  0.1210 -0.1009  0.5103
 1100TIP3    H124715   2.878   0.167   4.754  0.2725 -1.0152  0.7296
 1100TIP3    H224716   3.012   0.110   4.797  0.9391  0.1452  0.2335
 1101TIP3   OH224717   1.922   0.593  16.869 -0.1170  0.3690 -0.3482
 1101TIP3    H124718   2.010   0.610  16.903 -0.4565  0.3227  0.5800
 1101TIP3    H224719   1.906   0.501  16.888 -0.1368  0.2216 -1.0643
 1102TIP3   OH224720   2.378   5.040   5.223 -0.6046  0.5613 -0.5025
 1102TIP3    H124721   2.456   5.031   5.168 -0.3835  2.5762 -0.6061
 1102TIP3    H224722   2.396   5.117   5.277 -1.6421 -0.2243  1.0225
 1103TIP3   OH224723   4.445   4.542   4.917  0.2024  0.7454  0.2878
 1103TIP3    H124724   4.395   4.542   4.836 -0.5101  0.6274  0.7179
 1103TIP3    H224725   4.499   4.621   4.912  0.6932  0.3715 -0.6106
 1104TIP3   OH224726   5.737   0.391   4.035  0.1279  0.1931  0.3101
 1104TIP3    H124727   5.733   0.482   4.006  1.4799  0.5507  1.1596
 1104TIP3    H224728   5.725   0.340   3.955 -0.1887  1.1202 -0.2473
 1105TIP3   OH224729   0.718   6.042  10.467 -0.0958  0.2575 -0.1940
 1105TIP3    H124730   0.644   6.030  10.527 -0.8082 -2.1542 -1.4374
 1105TIP3    H224731   0.778   5.971  10.488  0.7272  0.7381 -0.8606
 1106TIP3   OH224732   6.526   6.169  14.336  0.4195 -0.1041 -0.0037
 1106TIP3    H124733   6.491   6.092  14.382  1.3381 -0.6132 -0.1357
 1106TIP3    H224734   6.571   6.219  14.403 -1.2772  1.0290  0.3545
 1107TIP3   OH224735   1.633   0.798  16.023  0.8984  0.0870 -0.2804
 1107TIP3    H124736   1.613   0.727  15.962 -0.0062 -0.0663  0.1787
 1107TIP3    H224737   1.686   0.860  15.972  1.0714 -0.5549 -0.8961
 1108TIP3   OH224738   0.410   2.450  11.035  0.0412 -0.2547  1.0201
 1108TIP3    H124739   0.441   2.501  11.110 -0.1039 -0.8660  1.5102
 1108TIP3    H224740   0.321   2.481  11.021 -0.1971 -0.6571  1.5886
 1109TIP3   OH224741   4.072   6.627  13.653  0.8484 -0.1535  0.2543
 1109TIP3    H124742   3.985   6.590  13.640  0.8542 -0.0024 -0.2431
 1109TIP3    H224743   4.129   6.551  13.664  0.7039 -0.2614  0.2592
 1110TIP3   OH224744   5.597   3.385  10.950  0.3353 -1.1731 -0.1665
 1110TIP3    H124745   5.641   3.423  11.026 -0.7932  0.2691 -0.1981
 1110TIP3    H224746   5.624   3.293  10.951  1.9379 -0.7291  0.7954
 1111TIP3   OH224747   5.665   4.106  13.968  0.4553 -0.1896  0.6063
 1111TIP3    H124748   5.636   4.171  14.032  0.9832  2.0339 -1.2370
 1111TIP3    H224749   5.760   4.102  13.980  0.4462 -0.4773  0.5851
 1112TIP3   OH224750   2.640   2.855  14.628  0.3336  0.1813 -0.1813
 1112TIP3    H124751   2.564   2.911  14.615 -1.9173 -2.5983 -0.0625
 1112TIP3    H224752   2.640   2.797  14.552  1.4915 -0.7676  0.5111
 1113TIP3   OH224753   0.880   1.627   3.857 -0.6269 -0.2063  0.1793
 1113TIP3    H124754   0.951   1.567   3.831  0.2335  1.1608 -0.7968
 1113TIP3    H224755   0.873   1.617   3.951  0.0081 -1.2882  0.1290
 1114TIP3   OH224756   4.620   3.154   5.484  0.0224  0.3254 -0.1131
 1114TIP3    H124757   4.608   3.241   5.522  0.1540  0.9599 -1.4371
 1114TIP3    H224758   4.532   3.125   5.460  0.2527  2.0380 -3.6339
 1115TIP3   OH224759   3.912   6.752  11.913  0.2769 -0.0470 -0.0213
 1115TIP3    H124760   3.863   6.804  11.976  0.6303  1.1772 -0.7284
 1115TIP3    H224761   3.976   6.704  11.965 -0.9889 -0.9154  0.7998
 1116TIP3   OH224762   4.722   0.723  15.945  0.2942 -0.1243 -0.3366
 1116TIP3    H124763   4.727   0.669  16.023 -0.6906  0.8829  0.4604
 1116TIP3    H224764   4.660   0.793  15.968  1.2062  1.1152 -1.4512
 1117TIP3   OH224765   0.840   4.232   1.990 -0.0193  0.0957 -0.1214
 1117TIP3    H124766   0.840   4.138   2.007 -0.7984  0.2511  0.8280
 1117TIP3    H224767   0.752   4.250   1.955 -0.4972  0.7129  1.3045
 1118TIP3   OH224768   1.721   0.139  15.967  0.1253 -0.3715 -0.1801
 1118TIP3    H124769   1.768   0.134  16.050 -0.9458 -1.4907  0.3828
 1118TIP3    H224770   1.780   0.188  15.909  0.1870  2.0176  1.7192
 1119TIP3   OH224771   4.906   3.488   0.798  0.9574 -0.3729 -0.4053
 1119TIP3    H124772   4.828   3.538   0.773  1.2070  0.1447 -0.1722
 1119TIP3    H224773   4.976   3.526   0.746  0.7863 -1.9488 -1.8870
 1120TIP3   OH224774   0.926   1.004  16.001  0.0295 -0.1803 -0.3644
 1120TIP3    H124775   1.020   0.987  15.994  0.3040  0.5223  1.3035
 1120TIP3    H224776   0.919   1.078  16.061 -1.5257  0.8133 -1.6929
 1121TIP3   OH224777   2.368   3.839  14.068 -0.7486  0.2132  0.0850
 1121TIP3    H124778   2.283   3.799  14.054 -0.9246  0.7461 -0.4288
 1121TIP3    H224779   2.363   3.877  14.156 -1.4194  1.1460 -0.3461
 1122TIP3   OH224780   4.677   3.016  14.274 -0.2675 -0.0371  0.7007
 1122TIP3    H124781   4.688   3.111  14.262 -0.2040 -0.1750 -0.4426
 1122TIP3    H224782   4.761   2.979  14.250 -0.9911 -0.5490 -1.1763
 1123TIP3   OH224783   6.006   5.802   2.212 -0.1977 -0.1593  0.1780
 1123TIP3    H124784   5.949   5.827   2.284  0.1892  2.8303 -0.4179
 1123TIP3    H224785   6.043   5.884   2.181  0.8096 -1.4898 -2.4917
 1124TIP3   OH224786   2.220   6.776   2.038  0.2065 -0.4285  0.5716
 1124TIP3    H124787   2.266   6.692   2.032  0.3201 -0.2712 -1.1387
 1124TIP3    H224788   2.151   6.771   1.972 -0.6986  0.2965  1.4298
 1125TIP3   OH224789   4.326   3.327  11.360 -0.4111 -0.0060 -0.2346
 1125TIP3    H124790   4.377   3.349  11.437 -0.9510  0.4417 -0.0032
 1125TIP3    H224791   4.382   3.350  11.286 -0.5462  1.1270  0.0114
 1126TIP3   OH224792   0.875   1.893  15.508 -0.1305  0.4804 -0.1362
 1126TIP3    H124793   0.971   1.899  15.514  0.0384 -0.9123 -1.2268
 1126TIP3    H224794   0.855   1.803  15.531 -1.1047  0.4971 -0.8676
 1127TIP3   OH224795   3.309   3.846  15.476  0.4712  0.0574  0.3512
 1127TIP3    H124796   3.231   3.806  15.514  0.3826  0.2271  0.3506
 1127TIP3    H224797   3.296   3.838  15.381 -0.2702  1.4344  0.3094
 1128TIP3   OH224798   0.632   1.995   0.087  0.2461  0.7737  0.2337
 1128TIP3    H124799   0.590   1.916   0.119 -0.2790  1.1344  0.4583
 1128TIP3    H224800   0.715   1.965   0.050 -0.0302  0.0996  0.1450
 1129TIP3   OH224801   6.609   3.517  12.630 -0.1924  0.3951  0.1625
 1129TIP3    H124802   6.552   3.442  12.648  0.4648 -0.2210 -0.2689
 1129TIP3    H224803   6.549   3.587  12.605 -0.7053 -0.6440 -1.6927
 1130TIP3   OH224804   2.798   1.480   5.489 -0.5504 -0.0680  0.4769
 1130TIP3    H124805   2.847   1.551   5.447  2.3105 -2.9395 -1.4099
 1130TIP3    H224806   2.854   1.452   5.561 -0.3693 -2.0136 -0.3717
 1131TIP3   OH224807   1.736   3.206   2.281  0.4356  0.7919  0.0723
 1131TIP3    H124808   1.722   3.296   2.251 -0.7302  0.5220 -0.2823
 1131TIP3    H224809   1.650   3.164   2.269  0.7788 -0.1732  0.8871
 1132TIP3   OH224810   6.134   3.500  13.444  0.2409 -0.2716 -0.3408
 1132TIP3    H124811   6.068   3.517  13.512 -1.0204 -3.2931 -0.6759
 1132TIP3    H224812   6.120   3.571  13.381 -1.0315  0.5302  0.7621
 1133TIP3   OH224813   5.617   0.641  16.741  0.0812 -0.1551 -0.6842
 1133TIP3    H124814   5.627   0.725  16.697 -0.1184  0.2341 -0.0011
 1133TIP3    H224815   5.632   0.661  16.833 -1.2576 -0.6206 -0.3446
 1134TIP3   OH224816   3.957   5.750  14.884  0.0125  0.9182  0.1212
 1134TIP3    H124817   4.012   5.826  14.864 -0.3945  0.9102 -1.0805
 1134TIP3    H224818   3.998   5.711  14.962 -0.7164  3.2857  1.7846
 1135TIP3   OH224819   4.090   3.228  12.708 -0.2190 -0.4976  0.0783
 1135TIP3    H124820   4.131   3.239  12.794 -0.3159  0.0783  0.0497
 1135TIP3    H224821   4.160   3.193  12.652 -0.0017 -0.3287  0.2458
 1136TIP3   OH224822   5.913   2.049   1.860  0.2987 -0.3553 -0.4855
 1136TIP3    H124823   5.979   2.012   1.802  1.2013 -1.8137  1.3401
 1136TIP3    H224824   5.834   1.997   1.844  0.2586 -0.1248 -1.0507
 1137TIP3   OH224825   3.761   0.841   5.638  0.2706  0.3217 -0.3724
 1137TIP3    H124826   3.771   0.892   5.557  2.8205  0.9102  0.2254
 1137TIP3    H224827   3.705   0.895   5.694 -0.8844  0.2611 -1.4230
 1138TIP3   OH224828   0.648   0.657  11.015 -0.2779 -0.0754  0.0988
 1138TIP3    H124829   0.685   0.738  11.050  1.6207 -0.3708 -1.0743
 1138TIP3    H224830   0.611   0.683  10.930  1.4277 -0.5948 -0.8519
 1139TIP3   OH224831   0.451   1.668  15.744 -0.0747  0.3328 -0.2130
 1139TIP3    H124832   0.477   1.679  15.653 -1.3338  1.2530 -0.4862
 1139TIP3    H224833   0.370   1.617  15.740  1.6419 -2.7220  0.6334
 1140TIP3   OH224834   5.710   6.309  15.803 -0.0798  0.4096 -0.7197
 1140TIP3    H124835   5.658   6.293  15.725 -0.0971 -0.1533 -0.5963
 1140TIP3    H224836   5.781   6.245  15.799 -0.7180 -0.4069  0.2888
 1141TIP3   OH224837   6.567   6.461   2.290 -0.0114 -0.3941  0.3701
 1141TIP3    H124838   6.556   6.372   2.256 -0.0473 -0.3419  0.2450
 1141TIP3    H224839   6.529   6.517   2.223  0.3883 -0.2565  0.2575
 1142TIP3   OH224840   1.482   5.830  16.722  0.3831 -0.2585  0.2295
 1142TIP3    H124841   1.470   5.741  16.756  0.3099 -0.9169 -1.4125
 1142TIP3    H224842   1.394   5.866  16.714  0.2836 -0.6482 -0.5791
 1143TIP3   OH224843   1.420   1.221  16.457 -0.7084 -0.1506  0.2878
 1143TIP3    H124844   1.382   1.187  16.376 -0.7289 -0.0593  0.2589
 1143TIP3    H224845   1.350   1.275  16.495  0.0649  1.7287 -0.8118
 1144TIP3   OH224846   3.086   5.336   4.852  0.3003  0.1004  0.1053
 1144TIP3    H124847   3.136   5.258   4.875 -1.1619 -1.5691 -1.9923
 1144TIP3    H224848   3.122   5.364   4.768 -0.7290  0.2357 -0.3116
 1145TIP3   OH224849   4.802   4.816  16.924  0.2101 -0.8022 -0.2880
 1145TIP3    H124850   4.840   4.820  16.836 -2.4457 -2.0397 -1.6131
 1145TIP3    H224851   4.737   4.887  16.924  0.0804 -0.9174  0.6275
 1146TIP3   OH224852   2.825   2.569   2.241 -0.3661  0.2607  0.0138
 1146TIP3    H124853   2.857   2.555   2.152 -0.8696 -1.5166  0.0733
 1146TIP3    H224854   2.729   2.566   2.233 -0.4222 -1.1345  0.7323
 1147TIP3   OH224855   4.376   1.215  14.893  0.4864  0.5235 -0.1881
 1147TIP3    H124856   4.440   1.156  14.934  0.5233  1.3138  0.9342
 1147TIP3    H224857   4.331   1.160  14.828 -1.4454 -1.6384  2.6994
 1148TIP3   OH224858   6.654   5.483  15.719  0.7655  0.5538  0.1633
 1148TIP3    H124859   6.650   5.571  15.757  0.6117  0.7419 -0.2845
 1148TIP3    H224860   6.747   5.462  15.718  0.8248  0.8250  0.0133
 1149TIP3   OH224861   4.971   0.035  13.397 -0.2030  0.3124  0.1425
 1149TIP3    H124862   4.966   0.123  13.436 -2.2015  0.1525  0.3405
 1149TIP3    H224863   5.037  -0.011  13.450  0.2323  1.4193  0.5952
 1150TIP3   OH224864   2.348   3.852  16.312 -0.0331 -0.2958 -0.0867
 1150TIP3    H124865   2.376   3.922  16.254 -0.2049 -0.8760 -0.8939
 1150TIP3    H224866   2.396   3.867  16.393 -1.0677  1.5131  0.2272
 1151TIP3   OH224867   5.230   6.118   1.043 -0.2089  0.7017 -0.2769
 1151TIP3    H124868   5.225   6.213   1.058  0.0876  0.6372  0.2747
 1151TIP3    H224869   5.140   6.093   1.021 -0.6082  0.8924  1.0061
 1152TIP3   OH224870   1.804   4.650   5.210  0.0684  0.2830 -0.2800
 1152TIP3    H124871   1.808   4.746   5.217  0.5019  0.2327  0.1622
 1152TIP3    H224872   1.773   4.635   5.121 -0.3784  0.8418 -0.2290
 1153TIP3   OH224873   3.172   0.554  14.669  0.3122 -0.3828  0.5851
 1153TIP3    H124874   3.112   0.613  14.621  1.4981  1.2609  1.0274
 1153TIP3    H224875   3.138   0.466  14.651 -1.5028  0.4057 -0.1707
 1154TIP3   OH224876   0.547   3.693  12.082 -0.1064  0.2769 -0.2339
 1154TIP3    H124877   0.538   3.630  12.011 -2.1125  0.9162 -0.5988
 1154TIP3    H224878   0.477   3.671  12.143  0.4300  0.9046  0.6345
 1155TIP3   OH224879   3.471   0.245  17.077 -0.4149 -0.2498 -0.1559
 1155TIP3    H124880   3.416   0.312  17.036  1.9161  2.0879  0.2823
 1155TIP3    H224881   3.493   0.185  17.005 -0.5225  0.8855 -1.1747
 1156TIP3   OH224882   6.487   0.818  16.437 -0.0476  0.4123  0.1298
 1156TIP3    H124883   6.478   0.724  16.455 -0.4095  0.3990 -0.1068
 1156TIP3    H224884   6.403   0.855  16.464  0.2095  0.7144  0.5150
 1157TIP3   OH224885   0.367   1.851   5.638 -0.0107 -0.2524 -0.4664
 1157TIP3    H124886   0.282   1.808   5.651 -0.8797  1.5640  0.2022
 1157TIP3    H224887   0.381   1.901   5.718  1.4923 -0.1666 -0.7621
 1158TIP3   OH224888   1.233   1.745   5.992 -0.6264  1.1271  0.0248
 1158TIP3    H124889   1.311   1.749   6.047 -0.8877  2.3959  0.3453
 1158TIP3    H224890   1.174   1.686   6.040  0.0413  0.3421 -0.1089
 1159TIP3   OH224891   2.928   2.462   2.004  0.4787 -0.5723 -0.6481
 1159TIP3    H124892   2.928   2.370   1.977  3.2967 -0.9457  0.3048
 1159TIP3    H224893   2.975   2.507   1.934  1.3951 -0.3278  0.1071
 1160TIP3   OH224894   5.581   5.103  16.144  0.1727  0.3644 -0.1666
 1160TIP3    H124895   5.646   5.132  16.081  0.3165 -1.5788 -0.9966
 1160TIP3    H224896   5.525   5.042  16.095  0.2668 -1.1821  1.5408
 1161TIP3   OH224897   3.762   0.162  16.880  0.0715 -0.2493 -0.1460
 1161TIP3    H124898   3.825   0.127  16.943  0.0374  1.2020  0.7410
 1161TIP3    H224899   3.756   0.255  16.902 -2.2119 -0.3068 -0.3742
 1162TIP3   OH224900   6.466   6.740   3.784 -0.0402  0.3905 -0.2604
 1162TIP3    H124901   6.445   6.824   3.743  0.4100  0.2120 -0.8754
 1162TIP3    H224902   6.536   6.761   3.847  0.1532  0.4647 -0.4956
 1163TIP3   OH224903   2.183   5.815   4.082 -0.3835  0.2456 -0.0727
 1163TIP3    H124904   2.207   5.726   4.056 -2.2619  0.0133 -1.2048
 1163TIP3    H224905   2.104   5.803   4.136 -0.2973  1.1936  0.2838
 1164TIP3   OH224906   0.597   1.884   5.150 -0.0615 -0.1683 -0.1727
 1164TIP3    H124907   0.586   1.914   5.240  2.5808  0.9975 -0.1361
 1164TIP3    H224908   0.525   1.925   5.102 -2.0452 -1.5137  1.4885
 1165TIP3   OH224909   0.492   3.998   1.340 -0.0911 -0.1314  0.3593
 1165TIP3    H124910   0.531   3.948   1.268 -2.3182  0.0142 -1.0284
 1165TIP3    H224911   0.486   3.935   1.412 -1.4608 -1.4823 -0.8726
 1166TIP3   OH224912   2.411   1.219   2.600 -0.4376 -0.7742  0.5506
 1166TIP3    H124913   2.495   1.230   2.554  0.1939  1.8043  2.1005
 1166TIP3    H224914   2.347   1.209   2.530  1.0261 -1.9711 -0.7043
 1167TIP3   OH224915   5.579   1.892  14.624 -0.1900 -0.0764 -0.2156
 1167TIP3    H124916   5.601   1.804  14.594 -0.9704 -0.3622  0.0291
 1167TIP3    H224917   5.664   1.933  14.642  0.3795  0.3395 -3.3589
 1168TIP3   OH224918   4.778   4.897   6.183 -0.3230 -0.8455  0.3951
 1168TIP3    H124919   4.842   4.947   6.132 -1.3539  2.1282  1.7836
 1168TIP3    H224920   4.831   4.834   6.232  1.1831 -0.4950 -0.6942
 1169TIP3   OH224921   6.145   3.193  10.908  0.2362  0.4790 -0.3191
 1169TIP3    H124922   6.115   3.127  10.846  1.5124  0.8893 -1.4167
 1169TIP3    H224923   6.174   3.266  10.854  1.3660  0.8679  0.7574
 1170TIP3   OH224924   1.236   1.860  13.310  0.3026  0.2101 -0.5232
 1170TIP3    H124925   1.312   1.809  13.282 -0.6985 -1.3186 -0.5868
 1170TIP3    H224926   1.260   1.892  13.397 -0.1577 -3.0369  0.9507
 1171TIP3   OH224927   0.842   2.312   4.404 -0.6972  0.2613  0.1560
 1171TIP3    H124928   0.769   2.308   4.466  0.0616  0.8589  1.1298
 1171TIP3    H224929   0.837   2.400   4.366  1.0797  1.3932  2.2919
 1172TIP3   OH224930   3.913   5.175  13.112  0.2715  0.9202  0.5833
 1172TIP3    H124931   3.890   5.259  13.072  0.7255  0.4996 -0.6119
 1172TIP3    H224932   3.861   5.172  13.192 -0.8597  1.7080 -0.0878
 1173TIP3   OH224933   0.269   5.581   1.380 -0.1479 -0.1310  0.4659
 1173TIP3    H124934   0.183   5.597   1.419 -0.0621  0.2376  0.5091
 1173TIP3    H224935   0.309   5.667   1.374 -0.1854 -0.1733 -0.5111
 1174TIP3   OH224936   0.670   5.651  13.171 -0.2478 -0.0796 -0.3394
 1174TIP3    H124937   0.642   5.701  13.248  1.7924 -2.0486  1.8196
 1174TIP3    H224938   0.762   5.631  13.188 -0.2411 -2.1792 -2.4147
 1175TIP3   OH224939   4.499   2.119   0.283  0.0388 -0.0354 -0.2022
 1175TIP3    H124940   4.439   2.054   0.319 -0.1698  0.6277  0.6871
 1175TIP3    H224941   4.525   2.083   0.198 -0.1473 -1.2258  0.2196
 1176TIP3   OH224942   5.693   4.431  16.831  0.2467  0.2034 -0.1982
 1176TIP3    H124943   5.682   4.508  16.775  0.9839  0.7131  0.3321
 1176TIP3    H224944   5.693   4.357  16.771  4.4590  0.9039 -1.4012
 1177TIP3   OH224945   5.139   4.528   3.841 -0.3283 -0.1185 -0.8864
 1177TIP3    H124946   5.058   4.573   3.864 -0.4004 -0.7263  0.1144
 1177TIP3    H224947   5.205   4.564   3.899 -0.5443 -1.7774  0.4860
 1178TIP3   OH224948   1.510   2.178   3.707  0.8647  0.4605 -0.7165
 1178TIP3    H124949   1.414   2.172   3.701  1.0037 -0.5748 -2.7238
 1178TIP3    H224950   1.529   2.270   3.690  0.3545  0.0310 -4.3958
 1179TIP3   OH224951   5.548   1.984   3.709  0.4046  0.2671 -0.3402
 1179TIP3    H124952   5.637   1.949   3.705 -0.4510 -2.0487 -0.4924
 1179TIP3    H224953   5.534   2.003   3.802  0.1297 -2.1006  0.1561
 1180TIP3   OH224954   2.102   5.053   2.348 -0.4170 -0.3680  0.0998
 1180TIP3    H124955   2.116   4.959   2.337 -1.7354 -0.6500  0.6966
 1180TIP3    H224956   2.109   5.068   2.442 -1.9715 -0.2029  0.2201
 1181TIP3   OH224957   5.423   6.457  16.985  0.3964 -0.1022  0.6282
 1181TIP3    H124958   5.387   6.446  16.897 -0.4458 -0.1387  0.9704
 1181TIP3    H224959   5.388   6.542  17.014  0.8759  0.0288  0.8340
 1182TIP3   OH224960   3.321   6.057   0.660  0.5524  0.2167  0.2786
 1182TIP3    H124961   3.342   5.981   0.713 -1.3857 -0.3904  0.2300
 1182TIP3    H224962   3.398   6.069   0.605  0.9259 -1.6746  0.3179
 1183TIP3   OH224963   5.274   3.682   5.273  0.5926  0.0386  0.4527
 1183TIP3    H124964   5.331   3.757   5.289  1.4721 -0.2912 -1.0019
 1183TIP3    H224965   5.203   3.718   5.218  1.1997 -0.2435 -0.5378
 1184TIP3   OH224966   0.836   4.863  12.138 -0.0471 -0.1955 -0.2972
 1184TIP3    H124967   0.763   4.833  12.194  0.0136 -0.4141 -0.3353
 1184TIP3    H224968   0.798   4.934  12.086 -0.1565 -0.1162 -0.1141
 1185TIP3   OH224969   2.616   6.342   1.058 -0.3127 -0.1077 -0.0994
 1185TIP3    H124970   2.658   6.389   0.986  0.5109 -1.8093 -0.7918
 1185TIP3    H224971   2.678   6.350   1.131 -1.2073  1.7280  0.5115
 1186TIP3   OH224972   1.786   0.563  13.939 -0.2124 -0.5896 -0.2625
 1186TIP3    H124973   1.770   0.494  14.004  1.1218 -1.0564 -0.3871
 1186TIP3    H224974   1.804   0.641  13.991  0.1275 -0.7919 -0.0654
 1187TIP3   OH224975   3.277   4.431  13.337 -0.2584  0.1194 -0.0441
 1187TIP3    H124976   3.182   4.421  13.346 -0.2807  0.6819  0.3690
 1187TIP3    H224977   3.292   4.434  13.242 -1.0134  3.1567 -0.1850
 1188TIP3   OH224978   4.350   4.083   3.183 -0.6197  0.0096  0.0775
 1188TIP3    H124979   4.370   4.022   3.254 -0.9226  0.0337  0.1863
 1188TIP3    H224980   4.278   4.136   3.217 -0.3630  0.4264 -0.0175
 1189TIP3   OH224981   0.455   5.671  12.984  0.0678 -0.3726  0.2373
 1189TIP3    H124982   0.495   5.624  13.057 -0.8350 -0.0501  0.9663
 1189TIP3    H224983   0.419   5.601  12.929  0.3748 -0.6031  0.3215
 1190TIP3   OH224984   2.472   3.436   3.830  0.1865 -0.6614 -0.5439
 1190TIP3    H124985   2.457   3.485   3.911 -0.0480 -0.7939 -0.5054
 1190TIP3    H224986   2.399   3.461   3.773  1.5499  1.1911 -1.5806
 1191TIP3   OH224987   4.532   2.754   1.423  0.5732 -0.1437 -0.1565
 1191TIP3    H124988   4.596   2.824   1.420 -1.4357  2.0193  2.2893
 1191TIP3    H224989   4.468   2.777   1.355  0.0274  0.3614  0.5038
 1192TIP3   OH224990   4.209   4.788  11.851 -0.0692 -0.2671  0.7756
 1192TIP3    H124991   4.251   4.870  11.877  0.7706 -0.5470  0.3352
 1192TIP3    H224992   4.280   4.734  11.816 -0.8563 -0.5798 -0.4198
 1193TIP3   OH224993   3.904   6.508  14.638  0.2932 -0.0156  0.2759
 1193TIP3    H124994   3.834   6.563  14.602  0.2890 -1.1018 -1.4956
 1193TIP3    H224995   3.867   6.473  14.720 -1.4888 -0.9727 -0.8612
 1194TIP3   OH224996   6.029   3.759  11.301 -0.4354  0.1850 -0.1512
 1194TIP3    H124997   5.998   3.842  11.265 -0.6700 -0.0258 -0.4442
 1194TIP3    H224998   6.067   3.713  11.226  1.5077  0.8432  0.3797
 1195TIP3   OH224999   1.440   5.613  12.666 -0.6807 -0.1986 -0.1012
 1195TIP3    H125000   1.401   5.695  12.697 -1.4672 -0.7353  0.3709
 1195TIP3    H225001   1.423   5.613  12.572 -1.9914 -0.4794  0.1065
 1196TIP3   OH225002   6.330   3.974  13.914  0.1416  0.2045 -0.3698
 1196TIP3    H125003   6.424   3.984  13.899  0.6402  2.4216  3.0785
 1196TIP3    H225004   6.291   4.050  13.871  0.4115  1.2669  1.2090
 1197TIP3   OH225005   2.387   6.723  14.517  0.1314  0.2918 -0.3239
 1197TIP3    H125006   2.340   6.643  14.543  1.1652 -0.0039  0.7250
 1197TIP3    H225007   2.393   6.773  14.598 -0.2738  1.3367 -0.9225
 1198TIP3   OH225008   0.776   3.585   5.791  0.0342 -0.3555 -0.2635
 1198TIP3    H125009   0.828   3.600   5.870  3.6400 -1.9310 -2.0971
 1198TIP3    H225010   0.785   3.665   5.740  0.9415 -0.6939 -0.6623
 1199TIP3   OH225011   3.754   0.552   0.288 -0.0986  0.1919  0.4340
 1199TIP3    H125012   3.766   0.622   0.225  1.5873  0.4486  0.9917
 1199TIP3    H225013   3.803   0.580   0.365 -0.6162 -0.9337  1.2008
 1200TIP3   OH225014   6.816   4.360   3.034  0.0755 -1.5408 -0.6086
 1200TIP3    H125015   6.738   4.415   3.025 -0.0219 -1.8137 -1.5588
 1200TIP3    H225016   6.818   4.335   3.127 -0.5761 -0.9620 -0.4356
 1201TIP3   OH225017   0.390   5.385   3.012  0.0469  0.6882  0.1262
 1201TIP3    H125018   0.382   5.405   2.918  0.3434  1.6900  0.3101
 1201TIP3    H225019   0.470   5.332   3.018 -1.1174 -1.2474 -0.4516
 1202TIP3   OH225020   5.743   3.264  17.048  0.5752  0.3725  0.1731
 1202TIP3    H125021   5.768   3.188  16.995  0.2400  0.1831  0.2862
 1202TIP3    H225022   5.826   3.308  17.067  0.6067  1.2944 -1.7979
 1203TIP3   OH225023   4.018   1.852  12.972  0.1868  0.2547  0.5108
 1203TIP3    H125024   3.966   1.849  12.892  2.3005  1.6210 -1.0336
 1203TIP3    H225025   4.087   1.786  12.958 -0.4831 -0.8481  2.0834
 1204TIP3   OH225026   5.635   1.002   0.227 -0.8468  0.1565 -0.0959
 1204TIP3    H125027   5.551   0.998   0.273 -0.4808  2.6061  0.9041
 1204TIP3    H225028   5.613   1.034   0.140 -0.8764  1.8642  0.5139
 1205TIP3   OH225029   4.240   2.886  13.870 -0.3673 -0.3589  0.0245
 1205TIP3    H125030   4.321   2.902  13.821 -1.0199  2.2181 -0.3528
 1205TIP3    H225031   4.269   2.862  13.958  0.7942 -1.8318 -0.7193
 1206TIP3   OH225032   3.378   4.488  14.789  0.4853 -0.3566  0.4636
 1206TIP3    H125033   3.355   4.395  14.789 -1.1301 -0.0058 -1.1518
 1206TIP3    H225034   3.414   4.504  14.702  0.4171  0.5959  0.6074
 1207TIP3   OH225035   3.223   4.848  14.196 -0.0120 -0.9229  0.0619
 1207TIP3    H125036   3.179   4.875  14.277  1.1508 -1.8503  1.0598
 1207TIP3    H225037   3.152   4.821  14.138 -0.8762 -0.2943  0.7887
 1208TIP3   OH225038   1.357   4.563   1.340  0.0070 -0.4016 -0.5522
 1208TIP3    H125039   1.411   4.545   1.417  0.0612  1.1599 -0.1851
 1208TIP3    H225040   1.267   4.547   1.369  0.0739 -0.4037 -0.3429
 1209TIP3   OH225041   4.261   3.438  14.887 -0.2861  0.0756 -0.2796
 1209TIP3    H125042   4.355   3.451  14.883 -0.0336 -1.6451 -1.0369
 1209TIP3    H225043   4.245   3.402  14.974 -0.2020  0.1710 -0.2260
 1210TIP3   OH225044   0.810   6.344  11.420 -0.1697 -0.0516  0.0556
 1210TIP3    H125045   0.758   6.383  11.491 -0.1680 -0.2790  0.1819
 1210TIP3    H225046   0.754   6.276  11.383 -0.3524  0.3790 -0.4723
 1211TIP3   OH225047   1.551   5.388   4.275  0.0501 -0.3090  0.4346
 1211TIP3    H125048   1.575   5.433   4.356  1.6428  0.9741 -0.6927
 1211TIP3    H225049   1.554   5.295   4.298  0.4398  0.0241  1.8421
 1212TIP3   OH225050   4.721   3.815  14.791  0.4010  0.0422  0.0689
 1212TIP3    H125051   4.635   3.854  14.776  1.1140  0.8485 -2.4396
 1212TIP3    H225052   4.735   3.822  14.885 -1.1326  2.4265  0.1967
 1213TIP3   OH225053   3.399   4.092  14.443  0.0247 -0.0983  0.3823
 1213TIP3    H125054   3.401   4.140  14.360 -1.5901 -1.1329 -0.3301
 1213TIP3    H225055   3.468   4.131  14.496 -0.1422  1.8562 -0.7521
 1214TIP3   OH225056   6.141   2.693   2.641  0.0652 -0.3864 -0.6978
 1214TIP3    H125057   6.119   2.785   2.626 -1.8784 -0.5670  0.6637
 1214TIP3    H225058   6.084   2.666   2.713  1.6770 -2.2537 -0.0197
 1215TIP3   OH225059   1.137   5.503  10.312  0.6396  0.1685 -0.2498
 1215TIP3    H125060   1.201   5.515  10.242  2.9038  2.0119  1.9778
 1215TIP3    H225061   1.090   5.586  10.316 -1.3343 -0.8392 -1.2318
 1216TIP3   OH225062   1.749   1.368   2.264 -0.0865  0.2754  0.2605
 1216TIP3    H125063   1.734   1.274   2.255  1.5544 -0.0997  1.0520
 1216TIP3    H225064   1.709   1.392   2.347  0.0974  0.1310  0.3905
 1217TIP3   OH225065   6.243   1.674   0.824  0.8896  0.6202 -0.3798
 1217TIP3    H125066   6.318   1.626   0.788 -0.2468 -0.8013 -1.0170
 1217TIP3    H225067   6.271   1.703   0.910  2.5522  1.1358 -1.0586
 1218TIP3   OH225068   0.341   4.989   4.551  0.1618  0.1858 -0.2325
 1218TIP3    H125069   0.374   4.988   4.461  0.4067 -2.0819 -0.1778
 1218TIP3    H225070   0.295   4.905   4.561 -2.0651  1.4644  1.0071
 1219TIP3   OH225071   2.965   5.519  12.969 -0.2338 -0.3862 -0.3898
 1219TIP3    H125072   2.924   5.466  12.901  2.2756 -1.3020 -1.3203
 1219TIP3    H225073   3.003   5.455  13.030  2.6967  0.1645 -1.4361
 1220TIP3   OH225074   4.161   3.485  14.648 -0.3234  0.1715 -0.1248
 1220TIP3    H125075   4.171   3.444  14.734 -0.1414 -1.8383 -1.0460
 1220TIP3    H225076   4.066   3.496  14.638 -0.3349  0.5718  0.3870
 1221TIP3   OH225077   3.318   5.164  13.230  0.1310 -0.1808  0.1439
 1221TIP3    H125078   3.353   5.075  13.238  0.5040 -0.0303  0.2100
 1221TIP3    H225079   3.243   5.155  13.172 -1.2578 -0.9195  1.9630
 1222TIP3   OH225080   4.974   0.235  12.412  0.0567 -0.3953  0.1153
 1222TIP3    H125081   5.023   0.154  12.398 -0.7599 -0.9682  0.4941
 1222TIP3    H225082   4.919   0.244  12.334 -0.3851 -0.5922  0.4041
 1223TIP3   OH225083   1.197   3.218   3.299 -0.1757  0.0693  0.2520
 1223TIP3    H125084   1.152   3.193   3.380  1.6622  1.0986  1.6626
 1223TIP3    H225085   1.245   3.298   3.321  1.8233 -0.6021 -1.3242
 1224TIP3   OH225086   3.189   3.321   0.939 -0.2357 -0.2513  0.2365
 1224TIP3    H125087   3.125   3.251   0.951  0.1929 -0.4040  1.8047
 1224TIP3    H225088   3.172   3.381   1.011  1.8520 -0.6848  1.1491
 1225TIP3   OH225089   5.800   6.197  12.487 -0.5155 -0.0900  0.0710
 1225TIP3    H125090   5.888   6.235  12.491 -0.5839 -0.0013  1.7275
 1225TIP3    H225091   5.815   6.105  12.465 -0.0507  0.0590 -0.2607
 1226TIP3   OH225092   5.407   5.185   5.326  0.0303 -0.3598  0.2459
 1226TIP3    H125093   5.339   5.130   5.366 -0.9955  1.2240  0.7949
 1226TIP3    H225094   5.380   5.193   5.235 -0.1310 -0.3041  0.2979
 1227TIP3   OH225095   0.501   2.657   0.681 -0.3781 -0.1249 -0.2688
 1227TIP3    H125096   0.540   2.578   0.644  2.7076  1.0770  0.1135
 1227TIP3    H225097   0.426   2.625   0.731 -0.8442 -2.4706 -2.2750
 1228TIP3   OH225098   0.600   1.101   3.049 -0.2141  0.4319 -0.1022
 1228TIP3    H125099   0.624   1.091   2.956 -0.0417 -0.5757  0.0370
 1228TIP3    H225100   0.678   1.073   3.096 -0.1866  1.2513  0.3647
 1229TIP3   OH225101   3.538   3.774   4.071  0.9985 -0.0946 -0.0565
 1229TIP3    H125102   3.590   3.846   4.105  0.1314  0.1689  0.7600
 1229TIP3    H225103   3.471   3.760   4.137 -0.3485 -0.0085 -1.3495
 1230TIP3   OH225104   2.997   4.614  11.955  0.0161 -0.4389  0.5324
 1230TIP3    H125105   2.953   4.592  12.037 -0.4244  0.9222  0.6743
 1230TIP3    H225106   2.952   4.563  11.888 -1.1494  0.1989  0.8154
 1231TIP3   OH225107   1.714   4.075  11.924  0.1485  0.4032  0.5055
 1231TIP3    H125108   1.699   4.143  11.858  0.6571 -3.4238 -4.0823
 1231TIP3    H225109   1.633   4.024  11.924  1.3560 -1.6062  0.2632
 1232TIP3   OH225110   5.952   6.402   1.941  0.1890 -0.6793 -0.2286
 1232TIP3    H125111   5.961   6.351   1.860 -0.5392 -3.6678  1.3874
 1232TIP3    H225112   6.041   6.419   1.968  0.4685  1.5410 -2.2338
 1233TIP3   OH225113   2.440   2.331  11.352  0.4055  0.4058  0.5181
 1233TIP3    H125114   2.383   2.406  11.368 -0.3812 -0.1144  0.2001
 1233TIP3    H225115   2.486   2.318  11.436 -1.1716 -0.1912  1.3338
 1234TIP3   OH225116   4.666   1.275   3.884 -0.5315 -0.1061  0.2670
 1234TIP3    H125117   4.577   1.302   3.862 -1.5371 -2.6582  0.8665
 1234TIP3    H225118   4.655   1.209   3.952  1.9787  0.9596  1.8818
 1235TIP3   OH225119   4.555   3.735   5.055 -0.3999  0.1210  0.7010
 1235TIP3    H125120   4.543   3.729   4.960 -1.6661  3.0934  0.5467
 1235TIP3    H225121   4.481   3.687   5.092 -0.5627 -0.0715  0.1312
 1236TIP3   OH225122   3.573   2.356   2.986  0.0698  0.4429 -0.6500
 1236TIP3    H125123   3.629   2.402   3.049  1.1928  0.9580 -1.9691
 1236TIP3    H225124   3.549   2.423   2.922 -3.3646  0.6363  0.6274
 1237TIP3   OH225125   2.199   5.519   5.153 -0.0986 -0.1566 -0.4118
 1237TIP3    H125126   2.196   5.451   5.221 -0.5822  0.8511  0.6094
 1237TIP3    H225127   2.292   5.534   5.137  0.0325 -0.0300  0.4265
 1238TIP3   OH225128   2.078   3.301  13.865 -0.0769  0.0044 -0.3009
 1238TIP3    H125129   2.014   3.232  13.848  0.0316  0.2734 -1.9907
 1238TIP3    H225130   2.136   3.300  13.788  1.3149  0.4683  0.6855
 1239TIP3   OH225131   1.456   0.536  11.315 -0.2358  0.1162 -0.6674
 1239TIP3    H125132   1.376   0.589  11.309  0.0524  0.5278 -0.8567
 1239TIP3    H225133   1.527   0.600  11.317  0.0353 -0.1854  0.8329
 1240TIP3   OH225134   6.722   3.961   0.073 -0.2174 -0.1541 -0.0951
 1240TIP3    H125135   6.675   3.884   0.105 -2.8254  1.0129 -0.8303
 1240TIP3    H225136   6.666   4.035   0.098  0.6503  1.2552 -2.0859
 1241TIP3   OH225137   4.464   0.553  16.973 -0.2081  0.2695 -0.1041
 1241TIP3    H125138   4.416   0.574  17.053 -0.1766 -1.8399  0.5201
 1241TIP3    H225139   4.522   0.629  16.959 -1.4871  1.4705  0.8405
 1242TIP3   OH225140   3.622   4.013  15.530 -0.0922 -0.2148  0.2554
 1242TIP3    H125141   3.633   4.067  15.609 -0.3225  0.7224 -0.3385
 1242TIP3    H225142   3.530   3.989  15.530 -0.1144 -0.1294  0.2175
 1243TIP3   OH225143   4.558   4.530  11.740  0.8491  0.3720  0.7554
 1243TIP3    H125144   4.492   4.460  11.733  2.2939 -0.9496 -0.3216
 1243TIP3    H225145   4.527   4.597  11.679  0.9033 -0.6111 -0.3943
 1244TIP3   OH225146   1.678   1.964   3.700 -0.6722 -0.2879  0.1077
 1244TIP3    H125147   1.656   1.919   3.619 -1.1453 -1.7072  0.9893
 1244TIP3    H225148   1.643   2.053   3.688  1.6755  0.4186 -2.2872
 1245TIP3   OH225149   4.376   1.060   3.754  0.0436 -0.0941  0.1023
 1245TIP3    H125150   4.310   1.006   3.712  1.7739 -0.7419 -1.9541
 1245TIP3    H225151   4.402   1.010   3.832 -0.1066 -1.0502 -0.4495
 1246TIP3   OH225152   1.159   0.559  14.752  0.1028  0.4033  0.5188
 1246TIP3    H125153   1.214   0.481  14.751  0.1733  0.3991  1.9347
 1246TIP3    H225154   1.093   0.543  14.684  0.9307 -0.2689 -0.1414
 1247TIP3   OH225155   3.931   0.229   2.044 -0.3163  0.2110 -0.1362
 1247TIP3    H125156   3.876   0.158   2.078 -2.3353  0.7281 -2.0712
 1247TIP3    H225157   4.008   0.228   2.100 -0.4588 -3.1888  0.2430
 1248TIP3   OH225158   2.858   6.460   2.815  0.4828  0.0731 -0.2409
 1248TIP3    H125159   2.932   6.466   2.754 -0.1308  1.4452 -0.9004
 1248TIP3    H225160   2.782   6.445   2.759  0.1145 -0.1937  0.3275
 1249TIP3   OH225161   2.800   5.619   5.161  0.4628 -0.1660  0.0595
 1249TIP3    H125162   2.809   5.533   5.121  0.2238  0.4033 -1.2423
 1249TIP3    H225163   2.886   5.636   5.200  2.5288  1.3433 -4.4741
 1250TIP3   OH225164   3.157   5.418  16.656 -0.3183 -0.2794 -0.0459
 1250TIP3    H125165   3.146   5.434  16.750  0.4435 -0.9873  0.1843
 1250TIP3    H225166   3.146   5.324  16.647  0.0541 -0.2726 -0.5980
 1251TIP3   OH225167   5.624   4.675  13.173 -0.4052 -0.2911  0.1607
 1251TIP3    H125168   5.658   4.758  13.142 -1.0074 -1.3800 -4.0146
 1251TIP3    H225169   5.694   4.612  13.157 -1.4368 -1.2321 -0.8429
 1252TIP3   OH225170   1.570   1.838   1.883 -0.0754 -0.3970 -0.2484
 1252TIP3    H125171   1.588   1.760   1.936  1.5051 -0.1191 -0.3158
 1252TIP3    H225172   1.630   1.831   1.809  0.0090  0.8128 -0.3144
 1253TIP3   OH225173   5.963   5.511  13.599 -0.3629 -0.2342 -0.2117
 1253TIP3    H125174   5.981   5.598  13.563 -0.9578  0.3927  0.9199
 1253TIP3    H225175   5.934   5.528  13.689 -1.0012 -1.5697 -0.1329
 1254TIP3   OH225176   1.087   1.182   1.846 -0.3396 -0.4354  0.1412
 1254TIP3    H125177   1.180   1.169   1.831 -0.6956 -1.6091 -1.2829
 1254TIP3    H225178   1.044   1.144   1.769 -2.0550 -1.1982  1.4071
 1255TIP3   OH225179   0.723   3.170   1.227  0.2089  0.2073 -0.2869
 1255TIP3    H125180   0.808   3.147   1.263 -0.7414 -1.8935  0.7583
 1255TIP3    H225181   0.741   3.196   1.136  2.1134  1.4299  0.3795
 1256TIP3   OH225182   6.738   1.709  13.781  0.5339 -0.0582  0.0557
 1256TIP3    H125183   6.831   1.690  13.790  0.6272 -0.8782 -2.1261
 1256TIP3    H225184   6.733   1.804  13.771  0.9054  0.2208  2.0179
 1257TIP3   OH225185   6.032   1.191   0.409  0.4903  0.5835  0.0018
 1257TIP3    H125186   6.089   1.207   0.333 -0.8766  1.0748 -0.9416
 1257TIP3    H225187   6.093   1.179   0.482  1.8036  3.3394 -0.5087
 1258TIP3   OH225188   3.257   0.101  16.556 -0.1278 -0.0409 -0.5771
 1258TIP3    H125189   3.253   0.014  16.516  0.3743  0.5636 -2.0388
 1258TIP3    H225190   3.295   0.157  16.488  0.0281  1.2278  0.5032
 1259TIP3   OH225191   0.445   4.799   4.359 -0.1454  0.1213  0.0023
 1259TIP3    H125192   0.474   4.711   4.337 -1.2042  0.1377 -1.6404
 1259TIP3    H225193   0.356   4.805   4.322 -0.0885  1.8667  0.0672
 1260TIP3   OH225194   3.059   1.913   2.479 -0.2037  0.1001  0.0601
 1260TIP3    H125195   3.037   1.967   2.403  0.3214  1.3198  0.7349
 1260TIP3    H225196   3.017   1.957   2.553  0.4281 -0.2790  0.6626
 1261TIP3   OH225197   4.141   3.905  16.081 -0.0099  0.3032  0.6768
 1261TIP3    H125198   4.083   3.863  16.018  2.8876 -0.7966 -1.4445
 1261TIP3    H225199   4.122   3.999  16.073 -0.7386  0.0563 -0.7276
 1262TIP3   OH225200   5.449   4.162  10.605  0.6836  0.0182 -0.1021
 1262TIP3    H125201   5.487   4.161  10.693 -0.5645  2.5095  0.5487
 1262TIP3    H225202   5.409   4.075  10.596 -0.2159  0.1037  2.3013
 1263TIP3   OH225203   5.325   0.156  15.851  0.2636  1.2707 -0.1364
 1263TIP3    H125204   5.340   0.078  15.904  0.1446  1.8890  0.8304
 1263TIP3    H225205   5.281   0.217  15.910  0.0345  1.9406 -0.9798
 1264TIP3   OH225206   6.156   6.556  11.290 -0.4171 -0.4991  0.1990
 1264TIP3    H125207   6.144   6.484  11.229 -3.4536  0.4995 -0.5372
 1264TIP3    H225208   6.201   6.623  11.239 -0.7082 -0.5917 -0.1826
 1265TIP3   OH225209   1.241   5.906   5.484  0.2310 -0.8112 -0.2272
 1265TIP3    H125210   1.181   5.833   5.472  1.1559 -1.6977  0.4565
 1265TIP3    H225211   1.325   5.866   5.505  0.4761  0.4656  1.4128
 1266TIP3   OH225212   2.617   2.167  11.774 -0.1837  0.2854 -0.0093
 1266TIP3    H125213   2.685   2.125  11.827 -1.7820 -3.2046 -0.4645
 1266TIP3    H225214   2.666   2.223  11.713  2.3106 -1.6866 -0.0055
 1267TIP3   OH225215   3.035   4.575   3.027 -0.1342  0.1858  0.7096
 1267TIP3    H125216   2.974   4.645   3.008 -0.8728 -0.8620 -0.9795
 1267TIP3    H225217   3.121   4.611   3.004 -0.4353  0.7323  0.4250
 1268TIP3   OH225218   6.099   1.427   0.701  0.5092 -0.5608 -0.0785
 1268TIP3    H125219   6.154   1.480   0.643 -0.5454  0.0320 -0.5677
 1268TIP3    H225220   6.159   1.393   0.768  1.4654  0.0224 -0.6309
 1269TIP3   OH225221   5.971   2.153  11.770  0.4246 -0.7982 -0.2222
 1269TIP3    H125222   6.053   2.113  11.799  0.2190  0.0011  1.5936
 1269TIP3    H225223   5.950   2.217  11.838 -1.1026 -0.1382 -1.2518
 1270TIP3   OH225224   5.564   0.861  11.892 -0.6051  0.1656 -0.4246
 1270TIP3    H125225   5.568   0.853  11.797  0.2069 -1.2465 -0.2832
 1270TIP3    H225226   5.647   0.903  11.916 -0.3531 -0.4322 -0.2493
 1271TIP3   OH225227   1.919   3.192   0.900 -0.1946 -0.1023  0.0049
 1271TIP3    H125228   1.836   3.215   0.941 -0.0813  2.1347 -0.8434
 1271TIP3    H225229   1.938   3.104   0.931 -2.0479 -0.0316  1.5268
 1272TIP3   OH225230   5.587   4.626  12.329 -0.1308 -0.2325  0.5454
 1272TIP3    H125231   5.549   4.538  12.322 -1.2099  0.2036  0.7320
 1272TIP3    H225232   5.595   4.641  12.424 -2.1393  0.7452  0.6196
 1273TIP3   OH225233   2.384   5.517   3.145 -0.3016  0.1374 -0.2427
 1273TIP3    H125234   2.304   5.489   3.101 -0.4531 -1.3648  0.9003
 1273TIP3    H225235   2.452   5.511   3.078 -0.6348 -1.5023 -0.4760
 1274TIP3   OH225236   5.307   3.963  14.544 -0.2044  0.3166  0.2893
 1274TIP3    H125237   5.288   4.041  14.596  2.1353  1.8803 -1.0073
 1274TIP3    H225238   5.292   3.991  14.453  1.5109 -0.4055 -0.2568
 1275TIP3   OH225239   6.170   1.465  10.896  0.5837  0.2226 -0.2744
 1275TIP3    H125240   6.145   1.554  10.924  2.2392  1.2422 -1.8203
 1275TIP3    H225241   6.142   1.459  10.805  0.0164 -1.0603 -0.0319
 1276TIP3   OH225242   6.357   5.246   2.708 -0.1919  0.0814 -0.5485
 1276TIP3    H125243   6.302   5.321   2.685  0.4310  1.0922  1.0278
 1276TIP3    H225244   6.444   5.284   2.721  0.3434 -1.0817 -0.6094
 1277TIP3   OH225245   5.630   1.181   3.944  0.4233  0.5507 -0.1627
 1277TIP3    H125246   5.555   1.238   3.961  0.6491  1.1283 -1.0241
 1277TIP3    H225247   5.686   1.191   4.021 -0.3799  0.1087  0.4904
 1278TIP3   OH225248   2.485   6.305   3.740 -0.1412  0.2863 -0.0856
 1278TIP3    H125249   2.529   6.307   3.825 -2.4290 -0.3477  1.1956
 1278TIP3    H225250   2.432   6.385   3.738 -1.2930 -0.4522 -0.2061
 1279TIP3   OH225251   5.768   6.038  15.920 -0.4333  0.2141 -0.0494
 1279TIP3    H125252   5.852   6.064  15.882 -0.2223 -2.1254 -1.4183
 1279TIP3    H225253   5.703   6.081  15.865 -0.1263  0.4264 -0.2513
 1280TIP3   OH225254   2.077   3.164  11.455  0.2029 -0.1563 -0.0250
 1280TIP3    H125255   2.097   3.169  11.361  0.2490 -1.3468 -0.0903
 1280TIP3    H225256   2.015   3.092  11.463  0.1149  0.0057  0.8529
 1281TIP3   OH225257   5.614   1.594  11.135  0.2517 -0.0871  0.0438
 1281TIP3    H125258   5.566   1.614  11.054 -2.7792 -0.5145  1.5757
 1281TIP3    H225259   5.706   1.609  11.113 -0.6862  2.9743 -2.5322
 1282TIP3   OH225260   0.571   2.266   0.160 -0.3042 -0.0289 -0.0510
 1282TIP3    H125261   0.574   2.171   0.154 -1.4150 -0.3584  3.0404
 1282TIP3    H225262   0.636   2.289   0.226 -0.7164  1.2735 -0.0556
 1283TIP3   OH225263   2.815   0.134  14.781  0.2690 -0.2736  0.1350
 1283TIP3    H125264   2.767   0.082  14.716  1.8265 -0.6504 -0.7660
 1283TIP3    H225265   2.811   0.223  14.746  0.7006 -0.3993 -0.2508
 1284TIP3   OH225266   5.896   6.759  11.870 -0.1998  0.5397 -0.5731
 1284TIP3    H125267   5.912   6.853  11.868 -1.6706  0.7999 -1.8481
 1284TIP3    H225268   5.822   6.746  11.811 -1.1050 -1.2204  0.8728
 1285TIP3   OH225269   0.287   3.539  12.783 -0.6136 -0.5701 -0.0788
 1285TIP3    H125270   0.365   3.568  12.830 -0.8876 -2.1542  1.4227
 1285TIP3    H225271   0.318   3.470  12.724 -0.9138 -1.4136  0.7388
 1286TIP3   OH225272   5.427   2.300   0.142  0.0919 -0.1009  0.4834
 1286TIP3    H125273   5.511   2.256   0.154  0.0099  0.0858  1.8592
 1286TIP3    H225274   5.364   2.228   0.132  0.2246 -0.2741  0.8647
 1287TIP3   OH225275   5.169   2.161   0.245  0.4502 -0.3726  0.0928
 1287TIP3    H125276   5.105   2.143   0.177  0.4348 -1.8278  0.4467
 1287TIP3    H225277   5.117   2.194   0.319  0.3155  0.0359 -0.1862
 1288TIP3   OH225278   2.281   5.864  15.503  0.2303 -0.3515 -0.6747
 1288TIP3    H125279   2.364   5.908  15.488  0.7869 -1.9405 -2.7941
 1288TIP3    H225280   2.217   5.914  15.452 -0.4395  1.5144  1.8052
 1289TIP3   OH225281   3.169   5.903   1.134  0.2593  0.2563 -0.3234
 1289TIP3    H125282   3.137   5.986   1.098 -0.5992  0.2037  0.2980
 1289TIP3    H225283   3.196   5.853   1.057 -1.6581  0.1064 -0.9509
 1290TIP3   OH225284   2.019   1.450  14.424 -0.0762 -0.1415  0.6587
 1290TIP3    H125285   2.000   1.373  14.371  0.4468 -0.1539  0.4836
 1290TIP3    H225286   2.005   1.422  14.514 -2.9823  0.4278  0.4805
 1291TIP3   OH225287   3.475   3.272  10.179 -0.3758 -0.9497  0.3671
 1291TIP3    H125288   3.502   3.302  10.266  1.7700  1.6455 -1.0361
 1291TIP3    H225289   3.418   3.341  10.146 -0.3026 -1.3841 -0.6914
 1292TIP3   OH225290   1.057   3.890   4.546 -0.3056 -0.3998 -0.2925
 1292TIP3    H125291   1.101   3.968   4.511  0.7471 -1.5072 -1.5739
 1292TIP3    H225292   1.127   3.826   4.556 -1.1672 -1.2151  0.6573
 1293TIP3   OH225293   0.769   5.422   1.431 -0.1465  0.4442  0.0674
 1293TIP3    H125294   0.864   5.432   1.430  0.0033 -0.6837 -2.1572
 1293TIP3    H225295   0.753   5.344   1.484 -0.0289  1.7256  2.0888
 1294TIP3   OH225296   0.096   1.915  16.308  0.2389  0.3254  0.1197
 1294TIP3    H125297   0.047   1.833  16.305 -0.6886  0.8551  0.5460
 1294TIP3    H225298   0.050   1.969  16.371  0.1191  1.6282 -1.0249
 1295TIP3   OH225299   4.896   3.071   5.883 -0.0660 -0.4846 -0.2633
 1295TIP3    H125300   4.849   3.011   5.941 -1.5407 -0.0339 -0.9454
 1295TIP3    H225301   4.852   3.155   5.896  1.4964  0.3034  0.1369
 1296TIP3   OH225302   1.512   1.879  14.469  0.4265  0.1769  0.3655
 1296TIP3    H125303   1.578   1.814  14.493  0.1059 -0.3979 -0.2689
 1296TIP3    H225304   1.430   1.829  14.463  0.0116  0.8022  0.7232
 1297TIP3   OH225305   2.766   6.122  12.436 -0.4830  0.1261  0.4997
 1297TIP3    H125306   2.796   6.046  12.388 -2.4530 -1.0747  1.0632
 1297TIP3    H225307   2.682   6.145  12.396 -0.7785  0.8799  1.4939
 1298TIP3   OH225308   3.539   3.419  13.583 -0.3467 -0.5224 -0.5176
 1298TIP3    H125309   3.451   3.457  13.580  0.0837  0.5739  0.0715
 1298TIP3    H225310   3.557   3.394  13.493 -0.7598  0.4480 -0.8847
 1299TIP3   OH225311   6.073   2.764   0.796 -0.2862 -0.7110  0.0608
 1299TIP3    H125312   5.980   2.745   0.809 -0.3037 -0.0399  1.0055
 1299TIP3    H225313   6.111   2.680   0.770 -1.0535 -1.1210  0.2315
 1300TIP3   OH225314   2.117   3.188   0.537 -0.2015 -0.1173 -0.0736
 1300TIP3    H125315   2.128   3.150   0.450  0.3967  0.5557 -0.3043
 1300TIP3    H225316   2.052   3.257   0.524 -0.9853 -0.7746  0.2617
 1301TIP3   OH225317   5.191   3.829  12.036  0.2506 -0.2375  0.0025
 1301TIP3    H125318   5.123   3.793  11.979  0.0656 -0.2557  0.2331
 1301TIP3    H225319   5.262   3.853  11.976 -0.2723  0.5023 -0.3364
 1302TIP3   OH225320   2.904   6.701   3.275  0.0166  0.5948 -0.1172
 1302TIP3    H125321   2.841   6.650   3.224  1.6709 -1.5840 -0.1475
 1302TIP3    H225322   2.981   6.708   3.218 -0.1124  3.2244 -0.1050
 1303TIP3   OH225323   4.527   0.456  11.833  0.2609 -0.8498  0.4663
 1303TIP3    H125324   4.619   0.468  11.807 -0.2310  0.7975 -0.6936
 1303TIP3    H225325   4.510   0.364  11.814  1.3708 -0.9135 -0.4053
 1304TIP3   OH225326   5.923   0.713   0.309  0.4413  0.0151  0.1606
 1304TIP3    H125327   5.954   0.711   0.218  0.4046  0.6663  0.1269
 1304TIP3    H225328   5.925   0.805   0.333 -0.6231 -0.0168  0.4511
 1305TIP3   OH225329   5.739   4.851   2.821  0.0184 -0.0228 -0.6971
 1305TIP3    H125330   5.737   4.764   2.860  0.7372  0.7088  1.0889
 1305TIP3    H225331   5.832   4.868   2.806 -0.2019 -0.0267 -2.2069
 1306TIP3   OH225332   5.148   5.956  10.398  0.1711 -0.5799 -0.4314
 1306TIP3    H125333   5.179   5.985  10.312  1.1657 -1.8294 -0.5339
 1306TIP3    H225334   5.200   5.877  10.416  1.2242  0.5774  2.0723
 1307TIP3   OH225335   0.975   4.941   1.138 -0.5624 -0.0036 -0.1792
 1307TIP3    H125336   0.999   5.031   1.160  0.4286 -0.0986 -0.8171
 1307TIP3    H225337   0.948   4.902   1.221 -1.8063  1.1094 -0.0295
 1308TIP3   OH225338   3.465   2.118  14.323 -0.1052  0.0602 -0.5306
 1308TIP3    H125339   3.417   2.176  14.264  1.2020  1.2370 -0.4851
 1308TIP3    H225340   3.556   2.123  14.294  0.3969 -0.1862  0.8847
 1309TIP3   OH225341   4.485   0.373   5.247  0.3087  0.2602 -0.6808
 1309TIP3    H125342   4.546   0.299   5.254  0.1183  0.0079 -1.5897
 1309TIP3    H225343   4.450   0.367   5.159  2.0015  2.7482 -1.6364
 1310TIP3   OH225344   0.998   0.699   2.900  0.0853 -0.4841  0.0156
 1310TIP3    H125345   1.035   0.626   2.851 -0.1741 -0.5029 -0.1576
 1310TIP3    H225346   0.911   0.711   2.862  0.4790  0.5308 -0.6225
 1311TIP3   OH225347   2.139   1.884  11.253  0.1203 -0.3075 -0.3678
 1311TIP3    H125348   2.055   1.854  11.218  1.1111 -1.3651 -1.9953
 1311TIP3    H225349   2.202   1.819  11.221  1.9578  1.9078 -1.5586
 1312TIP3   OH225350   2.149   4.282   4.632  0.2164  0.1833  0.3554
 1312TIP3    H125351   2.163   4.203   4.684  0.4952 -0.1516 -0.2091
 1312TIP3    H225352   2.235   4.323   4.626  0.2299  0.1010 -0.0259
 1313TIP3   OH225353   4.447   5.487   6.405  0.0306  0.2118  0.1362
 1313TIP3    H125354   4.388   5.561   6.396  1.3001  1.4708  1.6283
 1313TIP3    H225355   4.411   5.420   6.346 -2.0676  1.3995 -0.0138
 1314TIP3   OH225356   0.890   1.300  11.949 -0.3375 -0.0355  0.3014
 1314TIP3    H125357   0.800   1.305  11.982 -1.5662  0.0486 -2.6878
 1314TIP3    H225358   0.914   1.392  11.934 -1.5656 -0.1138 -2.9805
 1315TIP3   OH225359   6.740   1.056  17.038 -0.0651  0.1280 -0.0899
 1315TIP3    H125360   6.835   1.072  17.041 -0.2149  0.9990  1.0146
 1315TIP3    H225361   6.713   1.063  17.130 -0.9996 -1.4950 -0.2188
 1316TIP3   OH225362   1.117   4.196  15.933  0.1704  0.1820 -0.0786
 1316TIP3    H125363   1.035   4.207  15.981 -0.6903 -0.7581 -1.2770
 1316TIP3    H225364   1.155   4.115  15.969 -0.1386 -0.1532 -0.4984
 1317TIP3   OH225365   4.041   4.978   3.767 -0.3575  0.0089  0.0556
 1317TIP3    H125366   3.980   4.941   3.831  1.6217 -0.9628  1.4848
 1317TIP3    H225367   4.121   4.993   3.817  1.1195 -0.3158 -2.1058
 1318TIP3   OH225368   5.332   4.155   2.433  0.1570 -0.0897  0.2728
 1318TIP3    H125369   5.414   4.108   2.451  1.5040  1.3083 -1.8388
 1318TIP3    H225370   5.277   4.136   2.509  2.3350 -1.2898  1.6547
 1319TIP3   OH225371   0.779   5.993   3.483  0.2769  0.0361 -0.2960
 1319TIP3    H125372   0.707   5.982   3.420  0.3686  2.2612 -0.8559
 1319TIP3    H225373   0.786   5.908   3.526 -1.1607 -0.9233 -1.8492
 1320TIP3   OH225374   3.183   4.975   1.671  0.2683  0.0315  0.4557
 1320TIP3    H125375   3.270   5.002   1.702  0.1259  1.5652 -0.3975
 1320TIP3    H225376   3.139   5.057   1.649 -1.4461 -0.7221  0.9555
 1321TIP3   OH225377   0.688   2.633   5.277 -0.5973 -0.3862  0.4266
 1321TIP3    H125378   0.701   2.640   5.183 -1.5616  0.9519  0.3689
 1321TIP3    H225379   0.595   2.610   5.287 -0.3420 -1.1992  1.0422
 1322TIP3   OH225380   1.836   2.964  14.571 -0.6642 -0.4769  0.4107
 1322TIP3    H125381   1.766   2.908  14.536  0.5232 -1.9641  0.3027
 1322TIP3    H225382   1.879   2.911  14.638  1.4365 -0.3075 -0.7001
 1323TIP3   OH225383   2.512   0.969   3.680  0.0575 -0.2311  0.1576
 1323TIP3    H125384   2.584   1.016   3.637  0.9160 -1.3446  0.3035
 1323TIP3    H225385   2.451   1.037   3.707  0.9528  0.7325 -0.1773
 1324TIP3   OH225386   6.741   2.156   5.464  0.0727 -0.8163 -0.3455
 1324TIP3    H125387   6.725   2.061   5.461  0.5974 -0.9554  0.7093
 1324TIP3    H225388   6.778   2.171   5.551 -0.2296  0.3998 -0.4137
 1325TIP3   OH225389   2.674   5.114   2.041 -0.1391  0.4562 -0.2017
 1325TIP3    H125390   2.597   5.124   1.984 -1.0193  1.3099  1.0688
 1325TIP3    H225391   2.703   5.204   2.057  0.1780  0.2252  0.5648
 1326TIP3   OH225392   4.602   5.249  13.442  0.2070  0.3849 -0.1632
 1326TIP3    H125393   4.507   5.258  13.438 -0.1513 -1.5794  1.6162
 1326TIP3    H225394   4.619   5.219  13.532  2.4985  0.6195 -0.4566
 1327TIP3   OH225395   0.644   5.785  11.699 -0.5592 -0.1002  0.4092
 1327TIP3    H125396   0.708   5.835  11.750 -0.5452 -0.0662  0.3577
 1327TIP3    H225397   0.694   5.748  11.627 -1.0618  2.0416 -1.1300
 1328TIP3   OH225398   0.607   3.444   2.771  1.1512 -0.3245 -0.1762
 1328TIP3    H125399   0.664   3.385   2.822  2.2566  0.0739 -0.9005
 1328TIP3    H225400   0.538   3.469   2.832  1.7487 -0.8418  0.7475
 1329TIP3   OH225401   4.326   1.415   3.538 -0.3295 -0.3553 -0.2748
 1329TIP3    H125402   4.235   1.395   3.561 -0.0236 -1.6128 -0.0973
 1329TIP3    H225403   4.376   1.392   3.616 -0.0409  2.3580  0.4372
 1330TIP3   OH225404   2.496   2.678  15.768 -0.2311  0.0807  0.1538
 1330TIP3    H125405   2.553   2.749  15.796 -0.0100 -0.5033  1.2327
 1330TIP3    H225406   2.518   2.605  15.826 -0.0409 -1.0675 -1.3070
 1331TIP3   OH225407   4.785   2.827  14.004  0.0718 -0.1560  0.1616
 1331TIP3    H125408   4.815   2.771  14.075  1.3067 -0.7688 -0.8166
 1331TIP3    H225409   4.832   2.909  14.017  0.7204 -0.4556 -0.2521
 1332TIP3   OH225410   0.955   1.781  14.366 -0.4842 -0.0315 -0.4662
 1332TIP3    H125411   0.924   1.793  14.456 -1.5266 -0.4808 -0.7500
 1332TIP3    H225412   0.935   1.690  14.346 -2.6243  0.6999 -2.0053
 1333TIP3   OH225413   6.629   0.864  11.829  0.0393  0.3593  0.1018
 1333TIP3    H125414   6.633   0.880  11.734 -0.4906 -1.9451 -0.3847
 1333TIP3    H225415   6.551   0.911  11.858 -0.5250  0.0719 -0.8877
 1334TIP3   OH225416   5.962   1.126  12.678  1.1314  0.3069 -0.2202
 1334TIP3    H125417   6.007   1.087  12.753  0.6747  2.3676  1.1776
 1334TIP3    H225418   5.874   1.088  12.680  0.9346  0.7982  0.6533
 1335TIP3   OH225419   2.369   2.076   3.417  0.4389  0.2167  0.1444
 1335TIP3    H125420   2.287   2.093   3.373 -0.2422 -1.4256  0.6819
 1335TIP3    H225421   2.348   2.080   3.510  1.4607  1.8895  0.3366
 1336TIP3   OH225422   4.940   1.262  11.439  0.2738 -0.0148  0.3007
 1336TIP3    H125423   4.941   1.177  11.396 -1.5795 -0.7338  1.5686
 1336TIP3    H225424   4.952   1.325  11.368  0.7964 -1.2735 -0.7714
 1337TIP3   OH225425   6.487   3.179   3.453 -0.7313 -0.6634  0.2131
 1337TIP3    H125426   6.507   3.170   3.359  1.5651  2.3313  0.2261
 1337TIP3    H225427   6.534   3.107   3.494  1.5455  0.1532 -0.7426
 1338TIP3   OH225428   6.554   3.813   2.144 -0.8412  0.5935  0.5388
 1338TIP3    H125429   6.523   3.747   2.081 -0.8146 -0.5662  1.6879
 1338TIP3    H225430   6.649   3.801   2.146 -0.7853  0.9972  0.4127
 1339TIP3   OH225431   5.457   1.500   5.962  0.0320  0.1706 -0.3099
 1339TIP3    H125432   5.434   1.593   5.956 -0.9793 -0.1608 -2.2636
 1339TIP3    H225433   5.537   1.491   5.911  0.2080 -0.0197 -0.0061
 1340TIP3   OH225434   5.382   5.584   5.149  0.2611  0.3505 -0.0716
 1340TIP3    H125435   5.343   5.597   5.236 -0.8166  1.6359 -0.7155
 1340TIP3    H225436   5.355   5.660   5.099  2.7744  0.7904 -0.8898
 1341TIP3   OH225437   5.511   4.662  16.200 -0.2428  0.3528 -0.2893
 1341TIP3    H125438   5.595   4.632  16.164 -0.2433 -0.5236  0.3918
 1341TIP3    H225439   5.533   4.694  16.288 -0.5779  0.3752 -0.2131
 1342TIP3   OH225440   1.858   1.327  10.945 -0.3262  0.1268  0.3535
 1342TIP3    H125441   1.786   1.264  10.952 -0.3708 -0.0059 -1.1135
 1342TIP3    H225442   1.825   1.396  10.887  0.6475  0.1746 -0.1677
 1343TIP3   OH225443   4.606   2.453   1.288  0.2123  0.8463  0.0977
 1343TIP3    H125444   4.585   2.481   1.377  2.0723  1.9402  0.2495
 1343TIP3    H225445   4.625   2.535   1.241  1.2253  0.1588 -0.7370
 1344TIP3   OH225446   0.461   0.925  11.643 -0.0915 -0.6247  0.5954
 1344TIP3    H125447   0.399   0.984  11.601 -0.6921 -1.5853  0.0809
 1344TIP3    H225448   0.406   0.862  11.690  0.5288 -0.7666  1.1525
 1345TIP3   OH225449   5.187   4.821   0.652 -0.0746 -0.1523  0.0986
 1345TIP3    H125450   5.145   4.745   0.692  0.9798 -0.5428  0.4927
 1345TIP3    H225451   5.192   4.885   0.723  0.0063 -0.1053  0.0497
 1346TIP3   OH225452   0.092   4.614  12.304  0.1818  0.0868  0.3123
 1346TIP3    H125453   0.164   4.635  12.364 -1.9913  0.8818  2.8621
 1346TIP3    H225454   0.065   4.699  12.269  0.4728 -0.2123 -0.6548
 1347TIP3   OH225455   6.104   2.807  13.221  0.6692  0.2253 -0.1547
 1347TIP3    H125456   6.045   2.879  13.246 -0.9458 -0.8370 -0.7205
 1347TIP3    H225457   6.139   2.834  13.136  0.7458  0.7157  0.0284
 1348TIP3   OH225458   5.885   1.625  16.444  0.1192 -0.5555 -0.9846
 1348TIP3    H125459   5.966   1.667  16.413  0.7768 -1.5423 -0.6642
 1348TIP3    H225460   5.905   1.599  16.534 -0.6823 -0.5024 -0.7845
 1349TIP3   OH225461   1.451   0.012  12.481 -1.0919  0.1994  0.7697
 1349TIP3    H125462   1.433  -0.016  12.391 -2.5031 -1.0814  1.4107
 1349TIP3    H225463   1.417  -0.059  12.536  1.0516  0.2342  2.3056
 1350TIP3   OH225464   6.203   2.768  12.546  0.2242  0.3212  0.3710
 1350TIP3    H125465   6.197   2.675  12.571  0.6014  0.7437  2.1780
 1350TIP3    H225466   6.118   2.805  12.568 -0.2146  0.2697 -1.1164
 1351TIP3   OH225467   1.843   1.245  10.670 -0.8401  0.5421 -0.1359
 1351TIP3    H125468   1.778   1.297  10.622 -0.1576 -0.1619 -1.9236
 1351TIP3    H225469   1.794   1.170  10.703 -0.8520 -0.3506 -2.0763
 1352TIP3   OH225470   6.278   5.937  13.356  0.2548 -0.3197  0.4610
 1352TIP3    H125471   6.234   5.929  13.271  0.6242 -1.8633  0.3799
 1352TIP3    H225472   6.220   5.994  13.407 -0.3331  0.0689 -0.5856
 1353TIP3   OH225473   6.639   2.936  12.832 -0.2153 -0.2518  0.2557
 1353TIP3    H125474   6.627   3.024  12.867  0.5862  0.2088 -0.5672
 1353TIP3    H225475   6.552   2.910  12.803 -0.4202  0.3633  0.3034
 1354TIP3   OH225476   3.427   6.392  14.908  0.0832 -0.3419  0.2213
 1354TIP3    H125477   3.420   6.400  14.813  0.6262 -1.3282  0.0867
 1354TIP3    H225478   3.493   6.324  14.922 -0.9102 -1.1246  1.2787
 1355TIP3   OH225479   2.807   5.272  15.863  0.0196 -0.4096 -0.3055
 1355TIP3    H125480   2.736   5.268  15.927  0.2227 -2.0211 -0.1440
 1355TIP3    H225481   2.767   5.244  15.781 -0.1381  1.2467 -0.8373
 1356TIP3   OH225482   1.037   0.924  11.199 -0.3648 -0.3746 -0.0385
 1356TIP3    H125483   0.983   0.845  11.195 -1.9748  0.6920  0.0169
 1356TIP3    H225484   1.061   0.933  11.291 -1.4364  0.0113  0.2108
 1357TIP3   OH225485   1.091   6.558   0.790  0.0698  0.1385 -0.1672
 1357TIP3    H125486   1.111   6.593   0.877 -1.6000  1.4863 -0.2571
 1357TIP3    H225487   1.119   6.626   0.729 -1.4065  0.5118 -0.4769
 1358TIP3   OH225488   4.934   1.434  11.222 -0.7450  0.1490 -0.0503
 1358TIP3    H125489   4.893   1.398  11.143 -0.7062  1.1755 -0.5655
 1358TIP3    H225490   4.988   1.505  11.189  0.1392 -0.1185  0.8042
 1359TIP3   OH225491   5.606   6.469   3.451 -0.3690  0.8978  0.5091
 1359TIP3    H125492   5.685   6.418   3.466 -1.1638 -0.6835 -0.4423
 1359TIP3    H225493   5.628   6.557   3.481  0.7725 -0.1463  3.0605
 1360TIP3   OH225494   0.219   2.845   2.248  0.1882 -0.0207 -0.0850
 1360TIP3    H125495   0.203   2.753   2.271 -0.3309  0.0917  0.0176
 1360TIP3    H225496   0.242   2.843   2.155 -0.2799 -0.2105 -0.2026
 1361TIP3   OH225497   6.370   3.798   3.399  0.0754  0.4628  0.0480
 1361TIP3    H125498   6.318   3.718   3.415  0.0979  0.2425 -0.9217
 1361TIP3    H225499   6.321   3.867   3.443  0.1580 -0.1115  1.0753
 1362TIP3   OH225500   0.802   4.972   6.491  0.4789 -0.1948  0.6937
 1362TIP3    H125501   0.716   4.947   6.524 -1.0747  0.8292 -2.2284
 1362TIP3    H225502   0.812   4.923   6.410  4.0341 -2.5146  2.2924
 1363TIP3   OH225503   4.358   3.333   2.214 -0.0167  0.0920 -0.3395
 1363TIP3    H125504   4.425   3.298   2.273  0.1638  1.3148  0.1915
 1363TIP3    H225505   4.398   3.327   2.127 -0.2598 -1.6611 -0.3802
 1364TIP3   OH225506   5.857   3.583  10.902 -0.2634  0.3129  0.5238
 1364TIP3    H125507   5.916   3.589  10.978 -0.7024 -0.7025  0.9571
 1364TIP3    H225508   5.860   3.491  10.877 -2.4601  0.0111  1.2060
 1365TIP3   OH225509   1.392   1.753  10.679  0.5265  0.2274 -0.1230
 1365TIP3    H125510   1.427   1.842  10.692 -1.4634  0.8722  1.2398
 1365TIP3    H225511   1.331   1.741  10.751 -0.7237 -1.5185 -1.4019
 1366TIP3   OH225512   5.385   1.864  15.977  0.8172 -0.2311 -0.5447
 1366TIP3    H125513   5.469   1.836  15.942 -0.3081 -2.8133 -1.4090
 1366TIP3    H225514   5.376   1.817  16.060  1.0590  1.6098  0.5808
 1367TIP3   OH225515   6.477   0.392   4.152 -0.0187 -0.0349  0.2238
 1367TIP3    H125516   6.428   0.417   4.231  1.1996  0.5806  0.8131
 1367TIP3    H225517   6.420   0.329   4.108 -1.3836  0.7300  0.8168
 1368TIP3   OH225518   4.973   1.887  12.465 -0.5128 -0.2286 -0.3104
 1368TIP3    H125519   4.962   1.840  12.383 -1.7066  0.9688 -0.8775
 1368TIP3    H225520   5.024   1.828  12.521 -0.7099 -1.5452 -1.4859
 1369TIP3   OH225521   6.470   3.137   4.340 -0.5771 -0.7046  0.2266
 1369TIP3    H125522   6.476   3.080   4.417  0.0287 -1.2379 -0.2078
 1369TIP3    H225523   6.390   3.187   4.354  0.3586  0.4187  2.0298
 1370TIP3   OH225524   2.052   3.396   2.694 -0.2444  0.4828  1.0269
 1370TIP3    H125525   2.066   3.490   2.684 -0.1890  0.5442  1.6141
 1370TIP3    H225526   1.957   3.386   2.693 -0.2795  0.1530 -2.2152
 1371TIP3   OH225527   4.887   4.218  16.205  0.3196 -0.4274 -0.0797
 1371TIP3    H125528   4.814   4.159  16.223 -0.0129  0.2571  0.8988
 1371TIP3    H225529   4.960   4.184  16.256  0.3023 -0.3543 -0.0054
 1372TIP3   OH225530   1.542   0.813  14.140 -0.9544  0.3251  0.2892
 1372TIP3    H125531   1.548   0.767  14.057 -1.0903  1.6365 -0.4752
 1372TIP3    H225532   1.449   0.831  14.152 -0.8354  1.0627  0.1865
 1373TIP3   OH225533   2.699   2.375  14.459  0.4569  0.1194 -0.5815
 1373TIP3    H125534   2.692   2.468  14.438  0.9104  0.3431  0.2171
 1373TIP3    H225535   2.631   2.333  14.407  0.3284  0.8824 -1.0409
 1374TIP3   OH225536   0.302   0.079  15.807  0.4933  0.2918 -0.2020
 1374TIP3    H125537   0.215   0.076  15.767  0.7248 -3.4751 -0.8250
 1374TIP3    H225538   0.361   0.103  15.735  0.0952  1.9251 -0.0021
 1375TIP3   OH225539   4.265   5.952   2.606 -0.4325  0.2539 -0.0560
 1375TIP3    H125540   4.204   5.878   2.602 -2.8422  2.1359 -0.9705
 1375TIP3    H225541   4.341   5.925   2.556 -0.8187 -1.9420  0.4733
 1376TIP3   OH225542   4.480   5.811  15.406  0.0119  0.7190 -0.1262
 1376TIP3    H125543   4.571   5.784  15.389  0.5834  1.6750  1.2104
 1376TIP3    H225544   4.488   5.884  15.467 -1.6990  0.4957  0.4151
 1377TIP3   OH225545   5.042   4.673   2.785  0.2403 -0.2336 -0.4345
 1377TIP3    H125546   4.954   4.688   2.750  0.1935  2.7019  0.6352
 1377TIP3    H225547   5.027   4.629   2.869  0.0290 -2.2222 -1.4592
 1378TIP3   OH225548   4.184   0.204   2.143  0.0776  0.4858 -0.0867
 1378TIP3    H125549   4.215   0.198   2.053 -0.3716  1.2965 -0.3021
 1378TIP3    H225550   4.239   0.142   2.191 -1.7015 -2.4103 -1.4489
 1379TIP3   OH225551   3.253   5.435   0.304 -0.0635 -0.0935  0.0031
 1379TIP3    H125552   3.259   5.422   0.210  1.1025 -0.2597  0.0934
 1379TIP3    H225553   3.160   5.419   0.324  0.0219 -1.9755 -0.8422
 1380TIP3   OH225554   4.886   2.470   3.703 -0.5911  0.3100  0.1494
 1380TIP3    H125555   4.855   2.505   3.620  0.7195  1.4409  0.0967
 1380TIP3    H225556   4.889   2.375   3.690  1.3044  0.5528 -1.7624
 1381TIP3   OH225557   3.885   2.643   5.177 -0.4151 -0.0781  0.0920
 1381TIP3    H125558   3.882   2.549   5.161 -0.7551 -0.0513 -0.0178
 1381TIP3    H225559   3.949   2.654   5.246 -2.2710 -0.6593  2.0190
 1382TIP3   OH225560   6.020   0.038  12.670  0.6519  0.1697  0.0898
 1382TIP3    H125561   6.007   0.010  12.579 -0.4387  0.4325  0.1448
 1382TIP3    H225562   5.991   0.129  12.671 -1.1298 -0.3575  1.0695
 1383TIP3   OH225563   4.120   0.162  12.377 -0.0368 -0.2140 -0.6336
 1383TIP3    H125564   4.126   0.250  12.340 -0.2015 -0.4649 -1.2617
 1383TIP3    H225565   4.153   0.172  12.467 -2.0065  0.9312  0.0307
 1384TIP3   OH225566   1.106   6.256   0.639  0.5808 -0.1796  0.0946
 1384TIP3    H125567   1.108   6.322   0.709 -0.8256 -2.2483  2.2768
 1384TIP3    H225568   1.074   6.303   0.562  0.7320  1.8997  1.2256
 1385TIP3   OH225569   0.458   3.824   1.534  0.1433 -0.1863  0.0533
 1385TIP3    H125570   0.388   3.848   1.594 -1.5423 -0.4147 -1.7176
 1385TIP3    H225571   0.509   3.758   1.581  0.3597  1.3479  2.1060
 1386TIP3   OH225572   4.207   3.918  13.063 -0.0162  0.3814  0.3237
 1386TIP3    H125573   4.270   3.987  13.084 -1.3373  2.3749 -1.7781
 1386TIP3    H225574   4.143   3.922  13.134 -0.3573  1.7340 -0.0299
 1387TIP3   OH225575   0.050   1.962  13.188  0.5255  0.0866 -0.3436
 1387TIP3    H125576  -0.039   1.997  13.197 -0.1417 -1.9901  3.3817
 1387TIP3    H225577   0.103   2.017  13.246  1.9014  1.5193 -2.7861
 1388TIP3   OH225578   6.387   0.067   5.216  0.2033  0.5965 -0.2951
 1388TIP3    H125579   6.464   0.090   5.268 -0.9044 -0.8007  2.1353
 1388TIP3    H225580   6.398  -0.026   5.196 -0.5644  0.5372 -0.4572
 1389TIP3   OH225581   1.484   5.076  13.553 -0.0328  0.4973  0.2515
 1389TIP3    H125582   1.521   5.163  13.538  0.8759  0.2342  0.9471
 1389TIP3    H225583   1.402   5.093  13.599 -0.3471  1.0280 -0.4726
 1390TIP3   OH225584   6.213   1.626  10.541  0.2101  0.9537  0.3874
 1390TIP3    H125585   6.270   1.703  10.544  1.7693 -0.1786  1.0439
 1390TIP3    H225586   6.154   1.637  10.615  0.7307  1.3063  0.7643
 1391TIP3   OH225587   5.512   2.972   6.141  0.4512  0.0107  0.8155
 1391TIP3    H125588   5.421   2.955   6.165  0.9743 -0.7214  2.3829
 1391TIP3    H225589   5.532   3.058   6.179 -0.0920  1.0739 -1.1293
 1392TIP3   OH225590   4.018   1.545   5.715  0.0750  0.2390  0.0776
 1392TIP3    H125591   4.055   1.457   5.711 -1.0089 -0.1828 -1.0377
 1392TIP3    H225592   3.924   1.532   5.713 -0.1012  1.4405 -0.5629
 1393TIP3   OH225593   6.401   2.655   0.924  0.1349  0.3473  0.7079
 1393TIP3    H125594   6.440   2.676   1.009 -1.5714  1.0194  1.3934
 1393TIP3    H225595   6.336   2.587   0.944 -1.3698  1.5794  0.2697
 1394TIP3   OH225596   6.245   2.530  12.908  0.1911 -0.0936 -0.3260
 1394TIP3    H125597   6.254   2.541  13.003 -1.5785 -1.2843  0.0241
 1394TIP3    H225598   6.261   2.437  12.893  1.0449  0.2007 -1.2849
 1395TIP3   OH225599   6.584   5.303   6.589 -0.1656  0.5817  0.4832
 1395TIP3    H125600   6.676   5.305   6.563 -0.1490  1.2972  0.5816
 1395TIP3    H225601   6.584   5.263   6.676 -0.0658 -0.4133  0.0428
 1396TIP3   OH225602   3.167   0.751  13.997 -0.6347  0.2627  0.2367
 1396TIP3    H125603   3.199   0.748  13.907 -1.3679  1.7665 -0.1068
 1396TIP3    H225604   3.131   0.664  14.013  1.8672 -0.9104  0.0282
 1397TIP3   OH225605   4.678   3.069  12.752  0.4027 -0.7588 -0.6200
 1397TIP3    H125606   4.594   3.046  12.792 -0.3361  1.9952 -0.3770
 1397TIP3    H225607   4.727   3.112  12.821  1.0277 -0.1602 -1.4127
 1398TIP3   OH225608   2.051   4.739   4.632 -0.4663 -0.4971  0.5594
 1398TIP3    H125609   2.010   4.653   4.635 -1.0748 -0.2234  0.1650
 1398TIP3    H225610   2.013   4.787   4.706 -1.1783 -0.1038 -0.0576
 1399TIP3   OH225611   5.724   6.724   1.605  0.1139 -0.2356  0.6254
 1399TIP3    H125612   5.631   6.704   1.592 -0.0056  0.8560 -0.3900
 1399TIP3    H225613   5.750   6.669   1.679 -0.1828 -3.9436 -1.7568
 1400TIP3   OH225614   4.959   4.118  13.203  0.2254  0.2027 -0.1442
 1400TIP3    H125615   5.004   4.130  13.287  1.4287  1.0602 -0.8713
 1400TIP3    H225616   4.934   4.207  13.177  1.5064  0.1825 -1.5403
 1401TIP3   OH225617   4.801   2.327  14.767  0.8429 -0.4537  0.7338
 1401TIP3    H125618   4.746   2.406  14.772 -0.3476 -1.2177  0.1700
 1401TIP3    H225619   4.791   2.298  14.676  1.5210 -1.0829  0.8594
 1402TIP3   OH225620   1.240   0.477   3.219 -0.2891  0.0773 -0.6587
 1402TIP3    H125621   1.193   0.398   3.192  0.7813 -0.1182 -1.9969
 1402TIP3    H225622   1.271   0.457   3.308  2.5501 -2.2691 -2.0286
 1403TIP3   OH225623   0.502   0.529   0.785  0.5912 -0.0108 -0.4702
 1403TIP3    H125624   0.504   0.610   0.835 -0.2130 -0.1837 -0.1391
 1403TIP3    H225625   0.500   0.460   0.851 -1.5591 -0.2183 -0.7034
 1404TIP3   OH225626   3.706   2.631   2.562 -0.3435  0.4964  0.2071
 1404TIP3    H125627   3.625   2.638   2.510 -0.1765  0.4257 -0.0645
 1404TIP3    H225628   3.765   2.695   2.523 -1.1625  2.5384  2.1034
 1405TIP3   OH225629   5.904   1.620   0.797  0.5649  0.3049  0.0142
 1405TIP3    H125630   5.993   1.590   0.815  1.7475  3.7928  0.7149
 1405TIP3    H225631   5.915   1.692   0.734 -1.7145  1.1148  0.4341
 1406TIP3   OH225632   0.594   4.002  11.537 -0.1902 -0.7003  0.1184
 1406TIP3    H125633   0.615   3.912  11.513  1.1361 -0.9450  1.9928
 1406TIP3    H225634   0.674   4.037  11.574 -1.0941  0.7903  0.7778
 1407TIP3   OH225635   4.614   2.073  10.624 -0.1106  0.2629 -0.6851
 1407TIP3    H125636   4.651   2.070  10.712 -1.0388 -2.3525 -0.2989
 1407TIP3    H225637   4.663   2.007  10.575  0.0328  1.3136 -2.0134
 1408TIP3   OH225638   1.334   2.701   4.317  0.1749 -0.0393  0.0832
 1408TIP3    H125639   1.344   2.782   4.367 -1.2425  0.6408 -0.6816
 1408TIP3    H225640   1.242   2.677   4.326  0.4589 -1.3165 -0.1077
 1409TIP3   OH225641   6.284   4.280  11.315 -0.1211 -0.1750 -0.2097
 1409TIP3    H125642   6.344   4.289  11.242  1.7752  0.1655  1.3147
 1409TIP3    H225643   6.262   4.370  11.340 -1.3309 -0.2963 -0.7871
 1410TIP3   OH225644   5.885   5.273  16.158  0.2218  0.2821 -0.0863
 1410TIP3    H125645   5.883   5.201  16.095  0.8262  1.7972 -1.9234
 1410TIP3    H225646   5.975   5.272  16.192  0.2148  0.1321 -0.0696
 1411TIP3   OH225647   3.387   0.800  13.380  0.2698  0.0650  0.0323
 1411TIP3    H125648   3.434   0.719  13.397  1.4730  0.9727  1.2715
 1411TIP3    H225649   3.330   0.812  13.456 -0.2133  0.1817 -0.3415
 1412TIP3   OH225650   3.549   2.147  15.252  0.1905  0.0940 -0.7328
 1412TIP3    H125651   3.517   2.200  15.325  2.0837  0.0407  0.1846
 1412TIP3    H225652   3.472   2.096  15.224 -1.6180  2.9712 -1.4318
 1413TIP3   OH225653   2.925   6.419  13.909  0.2563 -0.1175  0.3297
 1413TIP3    H125654   2.967   6.481  13.969  3.8039 -0.9588 -1.0182
 1413TIP3    H225655   2.887   6.352  13.967  0.1061  1.0776  1.6782
 1414TIP3   OH225656   5.267   4.123  13.026  0.0496  0.2702 -0.5956
 1414TIP3    H125657   5.225   4.137  12.942  0.2477  0.1822 -0.7098
 1414TIP3    H225658   5.242   4.199  13.078 -1.8835 -0.7106  0.0100
 1415TIP3   OH225659   3.508   0.061  15.680 -0.3477  0.6605  0.1075
 1415TIP3    H125660   3.489   0.119  15.607 -3.9658  0.9082  1.0732
 1415TIP3    H225661   3.506   0.117  15.758 -2.0986 -0.3929  0.8818
 1416TIP3   OH225662   3.382   6.778  10.020  0.9307  0.5513 -0.2707
 1416TIP3    H125663   3.442   6.837  10.065 -0.4484  2.5084 -0.8925
 1416TIP3    H225664   3.296   6.796  10.057  0.5575 -1.7701  0.1793
 1417TIP3   OH225665   2.464   4.487   0.231  0.5945 -0.2175  0.5713
 1417TIP3    H125666   2.499   4.479   0.142  0.4003  0.2457  0.4486
 1417TIP3    H225667   2.487   4.404   0.273  0.7663 -0.4071  0.1178
 1418TIP3   OH225668   5.937   4.688  11.389  0.5917 -0.2825  0.3340
 1418TIP3    H125669   5.991   4.742  11.447  1.6781 -0.4164 -0.5346
 1418TIP3    H225670   5.857   4.673  11.440  1.2976  0.0225  1.5968
 1419TIP3   OH225671   3.967   4.225  16.593  0.5221 -0.2384  0.4274
 1419TIP3    H125672   3.955   4.320  16.592 -0.7225 -0.3814  0.2820
 1419TIP3    H225673   3.982   4.204  16.685  0.7936  0.0920  0.4615
 1420TIP3   OH225674   0.373   2.606  14.058  0.1279  0.5424 -0.2013
 1420TIP3    H125675   0.350   2.515  14.040 -2.2724  0.9480  0.4442
 1420TIP3    H225676   0.340   2.654  13.982  0.5613  0.9675 -0.1233
 1421TIP3   OH225677   1.523   2.829   2.152  0.2980  0.6763 -0.1489
 1421TIP3    H125678   1.509   2.783   2.069 -0.2880 -0.0302  0.3253
 1421TIP3    H225679   1.607   2.794   2.184 -1.0423 -1.5807  1.1373
 1422TIP3   OH225680   6.704   1.985  13.712  0.3931 -0.7306 -0.1092
 1422TIP3    H125681   6.611   2.005  13.720  0.4946 -0.2706 -0.0337
 1422TIP3    H225682   6.748   2.066  13.736  0.8241 -1.1002  0.3901
 1423TIP3   OH225683   5.428   4.163  15.674  0.3330  0.1827 -0.4945
 1423TIP3    H125684   5.437   4.082  15.724  0.4399 -0.6364 -1.7634
 1423TIP3    H225685   5.350   4.148  15.619  0.1170  1.1111 -0.4529
 1424TIP3   OH225686   3.028   1.749  12.749 -0.0469 -0.1277 -0.0296
 1424TIP3    H125687   3.112   1.750  12.795  0.2292 -0.4393 -0.5134
 1424TIP3    H225688   2.965   1.723  12.816  0.4197 -1.0532  0.0748
 1425TIP3   OH225689   1.231   5.119  13.708 -0.9424 -0.3305 -0.0372
 1425TIP3    H125690   1.286   5.106  13.786 -2.1402  0.9885  1.0907
 1425TIP3    H225691   1.171   5.044  13.709  0.5208 -1.5714 -1.0607
 1426TIP3   OH225692   6.779   1.297  12.514  0.3371  0.3515 -0.8571
 1426TIP3    H125693   6.765   1.264  12.603 -1.1788  3.0585  0.0139
 1426TIP3    H225694   6.874   1.297  12.504  0.5172 -0.5827  0.5190
 1427TIP3   OH225695   3.967   4.080   1.846 -0.2233  0.5184 -0.1124
 1427TIP3    H125696   3.925   4.013   1.791  0.4622  0.9067 -1.1334
 1427TIP3    H225697   4.032   4.120   1.789  0.9106  0.5556  1.1753
 1428TIP3   OH225698   3.388   4.226   5.268  0.4603  0.1976  0.0639
 1428TIP3    H125699   3.395   4.317   5.241  0.2728  0.5667  1.2096
 1428TIP3    H225700   3.478   4.201   5.290  0.4885  0.1470 -0.1057
 1429TIP3   OH225701   3.413   1.366   0.244  0.1375 -0.0809  0.4138
 1429TIP3    H125702   3.405   1.416   0.326 -0.6040  1.1627 -0.3777
 1429TIP3    H225703   3.328   1.376   0.202  0.2710 -1.3300 -0.1829
 1430TIP3   OH225704   1.864   2.465   0.881  0.0201 -0.2938  0.2889
 1430TIP3    H125705   1.928   2.415   0.830 -0.9049 -0.5522 -0.6303
 1430TIP3    H225706   1.860   2.550   0.838 -0.6532 -0.4611  0.0160
 1431TIP3   OH225707   6.608   4.649   3.452  0.3293 -0.0191  0.2051
 1431TIP3    H125708   6.534   4.709   3.442 -0.0964 -0.4362  0.7791
 1431TIP3    H225709   6.685   4.703   3.437 -0.0345  0.7437  1.0218
 1432TIP3   OH225710   4.577   1.185   4.138  0.3188  0.4947  0.7206
 1432TIP3    H125711   4.510   1.229   4.190  1.0167  2.5165  0.0170
 1432TIP3    H225712   4.660   1.218   4.172  0.8850 -0.1722  0.0506
 1433TIP3   OH225713   5.522   2.817   1.057 -0.1020  0.1640  0.4545
 1433TIP3    H125714   5.617   2.802   1.053  0.1429  1.4236  1.2368
 1433TIP3    H225715   5.513   2.908   1.086 -1.5418  0.6164 -1.2483
 1434TIP3   OH225716   2.542   0.186   1.605 -0.5785 -0.3972 -1.0435
 1434TIP3    H125717   2.571   0.260   1.658 -1.0650  0.5647 -2.0793
 1434TIP3    H225718   2.617   0.127   1.603 -0.5837 -0.5109  0.7728
 1435TIP3   OH225719   2.637   1.522   2.788 -0.4845  0.7641 -0.7643
 1435TIP3    H125720   2.719   1.524   2.839 -0.1266 -0.5449 -1.2357
 1435TIP3    H225721   2.588   1.448   2.825 -0.3810  0.0236 -2.0449
 1436TIP3   OH225722   2.860   4.512  12.161  0.2206 -0.5559  0.0107
 1436TIP3    H125723   2.858   4.487  12.253 -1.4314 -0.0521  0.1600
 1436TIP3    H225724   2.770   4.542  12.143  1.0917  1.5888 -1.1321
 1437TIP3   OH225725   1.728   0.986   4.749 -0.0572  0.2336  0.0769
 1437TIP3    H125726   1.722   0.890   4.742  0.3405  0.0945  1.3408
 1437TIP3    H225727   1.794   1.001   4.817 -0.0910  1.4146 -0.1319
 1438TIP3   OH225728   6.010   4.209   5.706 -0.0130 -0.3597  0.4298
 1438TIP3    H125729   5.935   4.149   5.702  0.8680 -1.4164 -0.8280
 1438TIP3    H225730   6.019   4.229   5.799 -0.0453 -2.5652  0.9497
 1439TIP3   OH225731   5.814   0.781   3.103  0.2004 -0.4248 -0.0231
 1439TIP3    H125732   5.782   0.850   3.045  0.7456  1.0015  1.3016
 1439TIP3    H225733   5.905   0.768   3.078 -0.0527 -1.0462 -0.6239
 1440TIP3   OH225734   5.652   4.621  11.337 -0.5797  0.2022 -0.3821
 1440TIP3    H125735   5.695   4.589  11.257  1.8262  1.1266  0.4469
 1440TIP3    H225736   5.616   4.706  11.312 -1.3125 -0.2439 -0.8897
 1441TIP3   OH225737   0.281   0.798  11.415 -0.4438 -0.2363  0.6834
 1441TIP3    H125738   0.268   0.850  11.336 -1.0333 -1.1640  0.1605
 1441TIP3    H225739   0.291   0.863  11.485  0.6342  0.6062 -0.2145
 1442TIP3   OH225740   6.736   6.820   0.020 -0.2909 -0.0253  0.6697
 1442TIP3    H125741   6.802   6.875   0.062 -2.3003  2.8510  0.3305
 1442TIP3    H225742   6.755   6.825  -0.073 -0.1660 -0.3813  0.6736
 1443TIP3   OH225743   6.765   4.923   3.584  0.0273  0.0660  0.5262
 1443TIP3    H125744   6.771   4.856   3.516  1.9875  1.9976 -1.3894
 1443TIP3    H225745   6.733   5.001   3.538  0.9844  1.3161  1.8779
 1444TIP3   OH225746   6.215   0.281  15.589  0.5862 -0.4022  0.0789
 1444TIP3    H125747   6.237   0.346  15.656  0.0971  0.3557 -0.4823
 1444TIP3    H225748   6.153   0.222  15.631 -1.9167  1.6681 -0.4741
 1445TIP3   OH225749   3.309   2.742  15.316  0.2095 -0.6173  0.2313
 1445TIP3    H125750   3.355   2.804  15.259 -0.6416 -1.2146 -1.1583
 1445TIP3    H225751   3.233   2.791  15.348  0.5029 -0.3898  0.5882
 1446TIP3   OH225752   5.060   5.813  14.909 -0.5553  0.5684 -0.1726
 1446TIP3    H125753   5.141   5.814  14.858 -0.6386  0.5703 -0.3070
 1446TIP3    H225754   4.999   5.867  14.858 -1.0089 -0.4111 -0.6908
 1447TIP3   OH225755   5.728   5.266  13.401 -0.4169 -0.0915  0.1613
 1447TIP3    H125756   5.636   5.240  13.389 -0.3808 -0.1707  0.0525
 1447TIP3    H225757   5.726   5.361  13.401 -0.6909 -0.0745  1.6438
 1448TIP3   OH225758   4.073   1.861  14.624  0.6429 -0.4058 -0.2543
 1448TIP3    H125759   4.158   1.881  14.584  0.0683  0.5624 -1.0537
 1448TIP3    H225760   4.021   1.940  14.610  0.0600 -0.4230  1.5145
 1449TIP3   OH225761   2.137   3.054   4.791 -0.3934 -0.3009  0.6334
 1449TIP3    H125762   2.092   3.093   4.716 -0.5476 -1.1602  0.2625
 1449TIP3    H225763   2.166   3.128   4.843 -0.7676  0.2999  0.0029
 1450TIP3   OH225764   4.583   2.036   2.841  0.7760 -0.1684 -0.3229
 1450TIP3    H125765   4.488   2.038   2.835  0.7974 -1.4547 -1.5334
 1450TIP3    H225766   4.603   1.948   2.874  1.5550 -0.0110 -0.3579
 1451TIP3   OH225767   3.189   0.110   0.060 -0.4548 -0.0821 -0.0387
 1451TIP3    H125768   3.210   0.030   0.107 -1.2063  0.4451  1.2316
 1451TIP3    H225769   3.145   0.166   0.124  0.5545  1.5874 -0.7198
 1452TIP3   OH225770   1.157   2.495  12.918  0.0743 -0.0083 -0.2621
 1452TIP3    H125771   1.121   2.410  12.944 -0.4673  0.5599  0.9492
 1452TIP3    H225772   1.168   2.489  12.823  0.2763 -1.5044 -0.1722
 1453TIP3   OH225773   0.607   3.559  10.628 -0.2067 -0.9056 -0.3699
 1453TIP3    H125774   0.611   3.584  10.720  2.4074 -1.4346 -0.2568
 1453TIP3    H225775   0.514   3.565  10.605 -0.5765  2.5313  1.3542
 1454TIP3   OH225776   0.952   3.689  10.731 -0.8431  0.5859 -0.3061
 1454TIP3    H125777   0.870   3.692  10.780 -1.3875  0.0270 -1.1591
 1454TIP3    H225778   1.004   3.761  10.766 -2.2389  1.8402 -0.7036
 1455TIP3   OH225779   1.751   3.394  17.030  0.1601 -0.8139  0.1792
 1455TIP3    H125780   1.699   3.315  17.018 -2.1564  0.9293 -2.6559
 1455TIP3    H225781   1.794   3.408  16.946  2.9588 -0.5359  1.5293
 1456TIP3   OH225782   4.247   4.594  10.629  0.1294  0.2124 -0.8390
 1456TIP3    H125783   4.334   4.562  10.650 -0.5316 -1.4261 -0.4771
 1456TIP3    H225784   4.192   4.516  10.625 -1.4716  1.2591 -0.3902
 1457TIP3   OH225785   6.473   3.618   0.689 -0.6383 -0.2353  0.4378
 1457TIP3    H125786   6.523   3.693   0.723 -1.0839  0.1154  0.3229
 1457TIP3    H225787   6.400   3.608   0.750 -1.8414  0.8356 -0.7590
 1458TIP3   OH225788   2.984   4.677  15.107 -0.0296  0.5562  0.1160
 1458TIP3    H125789   3.053   4.623  15.069  0.1830  0.6527  0.3609
 1458TIP3    H225790   3.021   4.707  15.190 -0.3567  0.6327  0.2326
 1459TIP3   OH225791   1.910   0.816  11.831  0.1993 -0.3598 -0.3591
 1459TIP3    H125792   1.913   0.744  11.894 -0.9219 -0.4399 -0.3710
 1459TIP3    H225793   1.861   0.885  11.877  0.9019  0.2472 -0.5005
 1460TIP3   OH225794   0.063   0.426   5.028 -0.0517 -0.2189  0.1055
 1460TIP3    H125795   0.093   0.346   5.069  0.6525 -0.2246 -0.3914
 1460TIP3    H225796   0.063   0.491   5.098  0.2356 -0.4456  0.3168
 1461TIP3   OH225797   1.214   5.793   1.585  0.1970  0.0635  0.5413
 1461TIP3    H125798   1.274   5.735   1.539  0.4445 -1.0797  2.2124
 1461TIP3    H225799   1.129   5.777   1.544  0.2968 -1.3902  0.8459
 1462TIP3   OH225800   4.498   3.914  15.896  0.3426 -0.2462 -0.7360
 1462TIP3    H125801   4.533   3.995  15.933  0.3117 -0.1350 -0.9442
 1462TIP3    H225802   4.464   3.940  15.810 -0.0897 -0.3894 -0.6110
 1463TIP3   OH225803   0.353   3.706  12.276 -0.1704  0.0907  0.0021
 1463TIP3    H125804   0.354   3.798  12.304 -2.8272  0.1281  0.1663
 1463TIP3    H225805   0.289   3.665  12.333  0.1956 -1.6569 -0.8016
 1464TIP3   OH225806   4.920   0.542   0.815  0.5522  0.3329 -0.0732
 1464TIP3    H125807   4.878   0.628   0.819  1.9295  0.9854  1.3094
 1464TIP3    H225808   5.013   0.562   0.803  0.7803 -1.0008 -0.6440
 1465TIP3   OH225809   5.640   4.052   6.462  0.3195 -0.1128 -0.5855
 1465TIP3    H125810   5.566   4.112   6.456 -0.1653 -0.6395  0.0581
 1465TIP3    H225811   5.642   4.007   6.378 -0.0369 -0.0435 -0.6292
 1466TIP3   OH225812   1.702   5.212   4.027  0.3600  0.2834  0.0212
 1466TIP3    H125813   1.727   5.304   4.020 -1.1675  0.7089 -0.1257
 1466TIP3    H225814   1.610   5.210   4.001  0.1850 -1.1920  0.6663
 1467TIP3   OH225815   1.372   3.588  11.577 -0.7133 -0.4326 -0.0604
 1467TIP3    H125816   1.364   3.680  11.554 -0.9947 -0.5074 -0.2665
 1467TIP3    H225817   1.316   3.577  11.654 -0.3822 -0.3527  0.1966
 1468TIP3   OH225818   1.098   0.934   0.179  0.4806 -0.1854 -0.3759
 1468TIP3    H125819   1.159   0.887   0.235 -0.6417 -0.9909  0.2118
 1468TIP3    H225820   1.145   1.013   0.153  1.5218 -0.4637  0.5877
 1469TIP3   OH225821   2.504   1.893  10.481 -0.0168  0.3606  0.0658
 1469TIP3    H125822   2.453   1.826  10.527 -0.6868  1.7162  1.3844
 1469TIP3    H225823   2.532   1.850  10.400 -2.2835 -0.8269 -0.1952
 1470TIP3   OH225824   3.319   2.690   2.737 -0.1159  0.6071  0.0147
 1470TIP3    H125825   3.243   2.645   2.773 -0.6346 -0.6105 -2.3383
 1470TIP3    H225826   3.283   2.756   2.679  0.6128  0.6601 -0.3980
 1471TIP3   OH225827   5.167   2.488   5.863 -0.0593 -0.1298 -0.3909
 1471TIP3    H125828   5.220   2.568   5.865  0.4664 -0.4854  1.1683
 1471TIP3    H225829   5.098   2.504   5.928  0.5593 -1.2613  0.5673
 1472TIP3   OH225830   1.919   3.225  11.104  0.0698 -0.5228 -0.4171
 1472TIP3    H125831   2.003   3.238  11.148 -0.5903 -0.1338  0.7897
 1472TIP3    H225832   1.887   3.142  11.139 -1.2890  0.6364  1.3341
 1473TIP3   OH225833   3.941   0.635  14.024 -0.3661  0.3485  0.1470
 1473TIP3    H125834   3.918   0.699  13.957  0.6425  2.0549  1.3617
 1473TIP3    H225835   4.015   0.587  13.988 -0.5108  0.5220 -0.3848
 1474TIP3   OH225836   6.741   5.106   3.290 -0.1504 -0.0945  0.0092
 1474TIP3    H125837   6.827   5.145   3.278  0.7976 -1.4185  1.9358
 1474TIP3    H225838   6.693   5.171   3.342  0.5156 -0.3106  0.9290
 1475TIP3   OH225839   6.488   1.423  14.420 -0.5433  0.1527  0.0843
 1475TIP3    H125840   6.462   1.483  14.350 -0.3976  1.1832  0.9019
 1475TIP3    H225841   6.409   1.412  14.473 -1.0820 -1.7806 -1.0174
 1476TIP3   OH225842   5.727   1.867   5.144  0.2462  0.0541  0.7052
 1476TIP3    H125843   5.697   1.893   5.231  1.3645 -0.9028  1.4016
 1476TIP3    H225844   5.739   1.772   5.150 -0.3277 -0.1306 -0.7096
 1477TIP3   OH225845   0.647   3.741  11.660  0.6131  0.3648 -0.0657
 1477TIP3    H125846   0.604   3.785  11.733  2.6263 -0.3912  1.6845
 1477TIP3    H225847   0.738   3.732  11.688  1.3507 -0.4216 -2.4825
 1478TIP3   OH225848   5.256   4.335   3.461 -0.5342 -0.1977 -1.0901
 1478TIP3    H125849   5.333   4.309   3.411 -0.9517  0.4352 -2.0795
 1478TIP3    H225850   5.287   4.336   3.552  0.7499  0.4449 -1.4984
 1479TIP3   OH225851   6.605   2.987   5.889  0.5313 -0.4720  0.4849
 1479TIP3    H125852   6.658   3.066   5.903  0.3367 -0.1303 -0.5514
 1479TIP3    H225853   6.522   3.021   5.855  0.5750 -1.1415 -0.3091
 1480TIP3   OH225854   6.109   5.559   1.126  0.4320  0.0249  0.3780
 1480TIP3    H125855   6.142   5.637   1.081 -1.8106 -0.2072 -1.9336
 1480TIP3    H225856   6.015   5.560   1.110  0.2453 -2.8727  0.7214
 1481TIP3   OH225857   5.917   0.375   2.666  0.1231  0.5944 -0.3278
 1481TIP3    H125858   5.852   0.328   2.717  0.8108 -0.8388 -0.7341
 1481TIP3    H225859   5.868   0.446   2.624 -0.7646  0.7622  0.9559
 1482TIP3   OH225860   0.857   3.164   4.237  0.3353 -0.0282  0.2545
 1482TIP3    H125861   0.851   3.110   4.158 -0.8948  0.4583 -0.0052
 1482TIP3    H225862   0.935   3.219   4.223  0.1074  0.0797 -0.6340
 1483TIP3   OH225863   0.338   4.126   5.891 -0.6660 -0.1495 -0.3943
 1483TIP3    H125864   0.412   4.172   5.932  0.0895 -0.7882 -1.0109
 1483TIP3    H225865   0.261   4.164   5.933 -0.1416  2.3616 -1.4962
 1484TIP3   OH225866   2.932   3.727  12.677  0.2902 -0.3769  0.5928
 1484TIP3    H125867   2.960   3.656  12.619 -1.0788 -1.3905  1.1286
 1484TIP3    H225868   3.002   3.735  12.741  1.2564 -0.0553 -0.4526
 1485TIP3   OH225869   6.422   1.986  13.751 -0.0620  0.3711  0.5522
 1485TIP3    H125870   6.365   1.987  13.827 -0.4579  1.0505  0.2568
 1485TIP3    H225871   6.440   1.893  13.736 -0.1643  0.2202  1.3286
 1486TIP3   OH225872   4.722   4.582   0.418 -0.2658 -0.0909  0.1684
 1486TIP3    H125873   4.756   4.669   0.440  0.3105  0.3735 -2.3358
 1486TIP3    H225874   4.791   4.522   0.445 -0.9474  0.0828  2.5588
 1487TIP3   OH225875   4.456   5.561   1.574 -0.2171  0.0176  0.3618
 1487TIP3    H125876   4.530   5.543   1.515 -1.0473  0.7715 -0.9745
 1487TIP3    H225877   4.382   5.516   1.533 -0.8968  0.8987  0.5908
 1488TIP3   OH225878   6.093   3.699  14.964  1.3913  0.1005  0.4668
 1488TIP3    H125879   6.060   3.717  15.052  0.9306  1.4418  0.0436
 1488TIP3    H225880   6.025   3.733  14.906  1.7050 -0.7420 -0.4213
 1489TIP3   OH225881   0.754   6.385  11.753  0.2338 -0.1024 -0.1635
 1489TIP3    H125882   0.772   6.291  11.745 -1.6049 -0.4672 -0.6596
 1489TIP3    H225883   0.840   6.426  11.758  1.0964 -1.7687 -0.5373
 1490TIP3   OH225884   1.573   4.873   3.849 -0.2656 -0.0271 -0.0019
 1490TIP3    H125885   1.499   4.814   3.864 -1.1923  1.0911  0.0000
 1490TIP3    H225886   1.543   4.958   3.884  0.6705  0.6634 -0.8204
 1491TIP3   OH225887   1.203   4.151   0.983 -0.1281  0.1286  0.3929
 1491TIP3    H125888   1.181   4.194   0.900  2.7091  0.8979 -0.0484
 1491TIP3    H225889   1.188   4.219   1.049  1.3568  0.8478  0.0330
 1492TIP3   OH225890   0.448   5.060   2.866  0.0936 -0.3232  0.1845
 1492TIP3    H125891   0.469   5.007   2.789  1.9915 -0.2578  0.6158
 1492TIP3    H225892   0.353   5.054   2.874 -0.1123 -0.6867 -1.9037
 1493TIP3   OH225893   5.062   1.035  14.195  0.1235  0.1226 -0.1558
 1493TIP3    H125894   5.027   1.003  14.278  1.2288  1.3039  0.8150
 1493TIP3    H225895   4.988   1.033  14.135 -1.6210  2.3736  1.7369
 1494TIP3   OH225896   1.117   2.344  12.177  0.1900 -0.3122 -0.3594
 1494TIP3    H125897   1.083   2.319  12.263  1.0650  0.3619  0.2021
 1494TIP3    H225898   1.173   2.271  12.151  1.0864  0.1237  0.3194
 1495TIP3   OH225899   3.118   2.548   3.244  0.0407  0.0978 -0.5861
 1495TIP3    H125900   3.105   2.453   3.253 -0.6569  0.1258 -1.2862
 1495TIP3    H225901   3.168   2.572   3.322  2.0950 -1.1928 -1.4107
 1496TIP3   OH225902   5.327   4.292  16.545 -0.4978  0.5097  0.7184
 1496TIP3    H125903   5.351   4.264  16.634 -1.0851 -1.8556  0.2089
 1496TIP3    H225904   5.231   4.294  16.545 -0.5533 -0.9235 -0.2196
 1497TIP3   OH225905   3.144   0.692   0.774  0.3785  0.2364 -0.3817
 1497TIP3    H125906   3.238   0.697   0.793  0.7303  0.1067 -2.0016
 1497TIP3    H225907   3.131   0.753   0.701 -0.6256 -0.4381 -0.7804
 1498TIP3   OH225908   5.633   6.419   1.405 -0.2837 -0.4914  0.0654
 1498TIP3    H125909   5.619   6.346   1.465 -0.3066 -1.5330 -1.1614
 1498TIP3    H225910   5.724   6.445   1.420 -0.5850 -0.0390  1.2607
 1499TIP3   OH225911   4.767   2.889   3.845  0.0549 -0.1096 -0.6736
 1499TIP3    H125912   4.709   2.965   3.842  0.0180 -0.0867  0.3123
 1499TIP3    H225913   4.846   2.917   3.799  0.8483  1.2597  1.3946
 1500TIP3   OH225914   3.739   3.604  11.481  0.3514  0.1057  0.1008
 1500TIP3    H125915   3.743   3.528  11.422 -1.2557 -0.3925  0.5835
 1500TIP3    H225916   3.826   3.608  11.520 -0.0065 -2.6178  1.4036
 1501TIP3   OH225917   0.411   1.817  14.556  0.5406 -0.2936  0.4145
 1501TIP3    H125918   0.479   1.848  14.496  0.5446 -2.2599 -0.6995
 1501TIP3    H225919   0.458   1.801  14.638  0.3616  3.3234  1.3962
 1502TIP3   OH225920   4.603   3.970   0.955  0.4034  0.0865  0.1428
 1502TIP3    H125921   4.647   3.909   0.895  0.6712  0.7761 -0.3717
 1502TIP3    H225922   4.510   3.952   0.944  0.5059 -0.8044  0.6147
 1503TIP3   OH225923   5.416   5.486  12.329  0.2802 -0.4030 -0.1299
 1503TIP3    H125924   5.463   5.452  12.405 -0.4957 -0.4749  0.3268
 1503TIP3    H225925   5.436   5.579  12.329  0.3664 -0.4193  0.0987
 1504TIP3   OH225926   4.941   2.825   1.041  0.2657  0.3560 -0.0802
 1504TIP3    H125927   4.990   2.803   0.962  0.4061  0.0489  0.0894
 1504TIP3    H225928   4.998   2.797   1.113 -1.5176 -3.2674  0.1431
 1505TIP3   OH225929   0.352   4.182   1.160 -0.0641  0.0298  0.3319
 1505TIP3    H125930   0.435   4.214   1.124 -0.7149  1.8511  0.3602
 1505TIP3    H225931   0.378   4.126   1.233  1.1628 -0.5946 -0.5524
 1506TIP3   OH225932   2.697   4.233  16.456  0.3391  0.3118 -0.0217
 1506TIP3    H125933   2.744   4.184  16.524 -1.5827 -2.9610 -0.8174
 1506TIP3    H225934   2.628   4.279  16.503  1.6019  1.5728  0.6558
 1507TIP3   OH225935   5.676   2.432  11.860 -0.1940 -0.0122 -0.3530
 1507TIP3    H125936   5.618   2.509  11.863  1.2688  1.1707 -0.9280
 1507TIP3    H225937   5.624   2.365  11.817 -1.0329  1.1261 -1.2015
 1508TIP3   OH225938   2.530   3.248   5.587 -0.0639  0.3474 -0.7382
 1508TIP3    H125939   2.573   3.165   5.565  1.5016  0.7563  0.6113
 1508TIP3    H225940   2.527   3.249   5.682  0.6633  2.1655 -0.6963
 1509TIP3   OH225941   1.230   3.315  13.259  0.0457  0.3078  0.0536
 1509TIP3    H125942   1.242   3.322  13.354  1.2538  2.3273 -0.1923
 1509TIP3    H225943   1.315   3.284  13.227 -0.1988  0.1326 -0.4310
 1510TIP3   OH225944   4.506   6.129   2.818 -0.1470  0.4735 -0.3696
 1510TIP3    H125945   4.461   6.056   2.860 -0.4120  0.9867  0.2463
 1510TIP3    H225946   4.475   6.207   2.864  1.9922  0.7950  0.6839
 1511TIP3   OH225947   2.958   0.160   5.438 -0.6491 -0.7211 -0.1158
 1511TIP3    H125948   2.871   0.196   5.418 -0.4996 -1.1271 -1.6772
 1511TIP3    H225949   2.969   0.090   5.374  2.0413  1.2406 -2.0386
 1512TIP3   OH225950   1.828   1.272  13.857 -0.0011  0.7432  0.2429
 1512TIP3    H125951   1.862   1.360  13.866  0.3057  0.5549  0.9985
 1512TIP3    H225952   1.734   1.280  13.875  0.3159  0.6508  2.0818
 1513TIP3   OH225953   2.409   1.586  16.707 -0.7412  0.1440  0.4179
 1513TIP3    H125954   2.442   1.655  16.765  0.1199 -0.3918  0.5918
 1513TIP3    H225955   2.382   1.632  16.628  0.0540  0.6659  0.4402
 1514TIP3   OH225956   4.162   4.614   3.604  0.0167 -0.0702 -0.4216
 1514TIP3    H125957   4.070   4.592   3.596  0.2936 -1.6362  0.3257
 1514TIP3    H225958   4.197   4.551   3.668  2.2278 -1.5697 -2.8825
 1515TIP3   OH225959   0.027   2.953  14.027  0.3439 -0.2644 -0.0926
 1515TIP3    H125960   0.014   3.002  14.109  0.6853 -0.8967  0.3490
 1515TIP3    H225961   0.056   2.866  14.056 -1.7434 -1.2568 -0.7996
 1516TIP3   OH225962   3.685   3.168   3.068 -0.0300 -0.1452  0.3917
 1516TIP3    H125963   3.702   3.262   3.074 -0.5875  0.0539 -0.8114
 1516TIP3    H225964   3.594   3.162   3.038  0.5386 -1.0226 -1.2587
 1517TIP3   OH225965   2.259   0.645  11.694  0.3934  0.1246 -0.3938
 1517TIP3    H125966   2.342   0.611  11.727  0.3020  1.0706  0.8580
 1517TIP3    H225967   2.283   0.702  11.622  0.7548 -0.3422 -0.6476
 1518TIP3   OH225968   1.432   4.395  14.619 -0.2689  0.8862 -0.3224
 1518TIP3    H125969   1.401   4.310  14.650  1.0988  0.5302  0.1473
 1518TIP3    H225970   1.355   4.435  14.580 -1.8097  0.8309  2.3841
 1519TIP3   OH225971   4.640   4.788  13.374 -0.6082 -0.4265  0.7426
 1519TIP3    H125972   4.649   4.773  13.279 -0.4779  0.4165  0.6185
 1519TIP3    H225973   4.561   4.841  13.382 -0.5792 -0.4384  1.1060
 1520TIP3   OH225974   0.387   4.791  13.363  0.2002 -0.4470 -0.6178
 1520TIP3    H125975   0.404   4.881  13.334 -2.1327  0.1232 -0.3640
 1520TIP3    H225976   0.339   4.801  13.445 -1.6631 -1.8553 -1.4773
 1521TIP3   OH225977   5.435   1.076  16.666 -0.0863  0.1204 -0.0203
 1521TIP3    H125978   5.523   1.078  16.627 -0.7704  0.7182 -1.6033
 1521TIP3    H225979   5.439   1.004  16.730  1.8580  0.8289  0.7544
 1522TIP3   OH225980   3.298   1.666   0.209  0.6014 -0.0263 -0.1590
 1522TIP3    H125981   3.380   1.617   0.220  0.2283 -0.9611 -1.3333
 1522TIP3    H225982   3.309   1.711   0.125  0.7211  1.5382  0.6520
 1523TIP3   OH225983   6.559   1.215   1.883  0.2264  0.0298  0.8564
 1523TIP3    H125984   6.594   1.289   1.932 -0.6372  1.0365  0.0115
 1523TIP3    H225985   6.621   1.144   1.898  1.5746  1.1913  0.9597
 1524TIP3   OH225986   1.210   4.270   3.208 -0.4468 -0.3579  0.1292
 1524TIP3    H125987   1.300   4.245   3.189  0.0979  0.6304  1.2528
 1524TIP3    H225988   1.217   4.332   3.281 -1.9956  0.1675 -0.1220
 1525TIP3   OH225989   0.176   6.595  12.294  0.0424  0.0105 -0.1983
 1525TIP3    H125990   0.104   6.639  12.249 -1.0409  0.0214  1.4327
 1525TIP3    H225991   0.255   6.643  12.268 -0.8928  1.8143  0.1314
 1526TIP3   OH225992   4.119   2.472  15.309  0.5684  0.4786 -0.2432
 1526TIP3    H125993   4.039   2.510  15.273 -0.6105 -0.9322  0.7716
 1526TIP3    H225994   4.148   2.410  15.241  0.0660  0.0599 -0.0853
 1527TIP3   OH225995   2.829   6.312  16.044 -0.1702  0.6826  0.4051
 1527TIP3    H125996   2.884   6.344  15.973 -0.8865 -1.2426 -1.1178
 1527TIP3    H225997   2.881   6.325  16.123  0.5051  3.2257 -0.3815
 1528TIP3   OH225998   0.004   6.027   2.692 -0.5247 -0.0593  0.2283
 1528TIP3    H125999  -0.080   6.074   2.686 -0.9099 -0.9086 -1.8109
 1528TIP3    H226000  -0.011   5.945   2.645  1.2710 -0.5181  0.3977
 1529TIP3   OH226001   2.175   4.227  12.650  0.3927  0.3772  0.8566
 1529TIP3    H126002   2.089   4.192  12.673  0.9605 -1.2074  0.6583
 1529TIP3    H226003   2.211   4.260  12.733  1.2673 -2.7447  1.8630
 1530TIP3   OH226004   0.592   4.160   5.407  0.5788  0.6435  0.6238
 1530TIP3    H126005   0.552   4.206   5.334 -1.0731 -0.7980  0.5722
 1530TIP3    H226006   0.565   4.210   5.484 -0.5066  0.2619  0.5025
 1531TIP3   OH226007   0.823   1.108   0.263 -0.0886 -0.1865 -0.3691
 1531TIP3    H126008   0.769   1.029   0.276 -2.6353  1.3036 -1.1465
 1531TIP3    H226009   0.913   1.075   0.261 -0.8659 -2.8064  1.4119
 1532TIP3   OH226010   0.750   5.603   0.409  0.1211  0.1267 -0.3903
 1532TIP3    H126011   0.814   5.559   0.464  0.9873  0.6178 -0.9916
 1532TIP3    H226012   0.791   5.686   0.385 -0.8195  0.5391 -0.6286
 1533TIP3   OH226013   2.290   1.246  12.677 -0.3023  0.0108 -0.0621
 1533TIP3    H126014   2.258   1.266  12.589  0.1882  1.0477 -0.0124
 1533TIP3    H226015   2.345   1.321  12.701  2.3501 -1.7370 -0.2346
 1534TIP3   OH226016   1.164   0.936  14.965  0.3877 -0.6054 -0.3878
 1534TIP3    H126017   1.084   0.883  14.959  0.1023 -0.4101  1.2271
 1534TIP3    H226018   1.234   0.876  14.940 -0.0174 -1.5161  0.5729
 1535TIP3   OH226019   1.326   4.862   2.531 -0.0870 -0.0765 -0.3242
 1535TIP3    H126020   1.248   4.902   2.568  0.2067 -0.9744  1.3406
 1535TIP3    H226021   1.397   4.888   2.590  0.6865 -0.2693 -1.1357
 1536TIP3   OH226022   4.100   0.116  11.788  0.0064  0.1984  0.5548
 1536TIP3    H126023   4.093   0.150  11.877  2.1024  0.3642  0.7045
 1536TIP3    H226024   4.047   0.036  11.789 -0.4884  0.5193  1.7738
 1537TIP3   OH226025   2.678   3.835   3.729 -0.2433  0.1293  0.3281
 1537TIP3    H126026   2.770   3.823   3.754 -0.2025 -1.9531 -0.5762
 1537TIP3    H226027   2.630   3.777   3.788 -0.2160 -4.3054 -3.3799
 1538TIP3   OH226028   0.217   4.126  13.251 -0.3041  0.0802  0.5173
 1538TIP3    H126029   0.138   4.077  13.275 -1.3156  0.8689 -1.0026
 1538TIP3    H226030   0.255   4.076  13.179 -2.1668  2.0928 -2.0926
 1539TIP3   OH226031   0.268   3.808   6.277  0.1685  0.1712 -0.0326
 1539TIP3    H126032   0.263   3.822   6.372  0.0615  2.6078 -0.3228
 1539TIP3    H226033   0.358   3.781   6.261 -0.2194 -1.8952  0.8754
 1540TIP3   OH226034   1.482   6.138  13.794 -0.4887 -0.2818  0.2359
 1540TIP3    H126035   1.529   6.125  13.712 -0.9085 -2.3278  0.2545
 1540TIP3    H226036   1.537   6.197  13.845  0.0068  0.6448 -1.3099
 1541TIP3   OH226037   3.859   0.966   4.915 -0.3361 -0.2314  0.0432
 1541TIP3    H126038   3.786   1.024   4.893 -1.4463 -1.2872  0.7799
 1541TIP3    H226039   3.928   1.025   4.947 -1.8380  0.6315  1.8647
 1542TIP3   OH226040   5.594   5.894   1.714  0.1460  0.1390 -0.0405
 1542TIP3    H126041   5.572   5.851   1.631  0.5364  0.3221 -0.2416
 1542TIP3    H226042   5.525   5.867   1.774 -1.3384  1.6374 -0.9736
 1543TIP3   OH226043   0.338   3.779  15.856  0.2808  0.4223 -0.2500
 1543TIP3    H126044   0.318   3.727  15.778  1.3840  0.6705 -0.7106
 1543TIP3    H226045   0.312   3.868  15.833 -0.8939  0.2240  0.2616
 1544TIP3   OH226046   3.305   3.925   0.715  0.3208  0.3933 -0.6494
 1544TIP3    H126047   3.348   3.890   0.637 -1.2686  0.0632 -1.4179
 1544TIP3    H226048   3.304   3.852   0.776 -0.2094  0.0369 -1.0769
 1545TIP3   OH226049   2.911   1.524   2.869 -0.3773  0.3853  0.5885
 1545TIP3    H126050   2.923   1.527   2.774 -1.7289  0.1390  0.3824
 1545TIP3    H226051   2.932   1.434   2.894 -0.2721  0.3819  0.4890
 1546TIP3   OH226052   2.071   0.332  10.988  0.7853  0.5685  0.4652
 1546TIP3    H126053   2.035   0.258  11.037  1.3582  0.7257  1.1573
 1546TIP3    H226054   1.999   0.364  10.934  0.4991 -0.4109  0.2573
 1547TIP3   OH226055   5.595   1.919   6.477 -0.4270 -0.1294  0.2124
 1547TIP3    H126056   5.529   1.984   6.452 -0.5496 -0.9880 -1.9706
 1547TIP3    H226057   5.660   1.924   6.407  0.7861 -0.7115  1.2692
 1548TIP3   OH226058   1.914   1.276   1.743  0.2962 -0.1510  0.2135
 1548TIP3    H126059   1.946   1.290   1.832  0.3026 -0.8290  0.3179
 1548TIP3    H226060   1.993   1.259   1.692  0.3020  0.3260  0.0531
 1549TIP3   OH226061   6.629   1.205  12.096 -0.1563 -0.7663 -0.2045
 1549TIP3    H126062   6.629   1.176  12.187 -1.7832 -0.3086 -0.0173
 1549TIP3    H226063   6.562   1.151  12.053 -1.8193  1.2198 -0.2941
 1550TIP3   OH226064   6.186   3.154  14.528  0.9018 -0.2965  0.5408
 1550TIP3    H126065   6.177   3.248  14.538  0.2471 -0.3463  0.4729
 1550TIP3    H226066   6.160   3.137  14.437  0.0378 -0.6517  0.8446
 1551TIP3   OH226067   2.124   2.529  12.084  0.0639 -0.3236  0.0425
 1551TIP3    H126068   2.112   2.564  11.995  2.7942 -1.1633 -0.7579
 1551TIP3    H226069   2.074   2.447  12.084  0.6581 -0.7106 -1.0133
 1552TIP3   OH226070   4.769   3.661   3.675 -0.1910 -0.3389 -0.0707
 1552TIP3    H126071   4.689   3.665   3.728  0.1495 -0.0306  0.4263
 1552TIP3    H226072   4.817   3.740   3.697  1.2414 -1.5044  1.2342
 1553TIP3   OH226073   4.658   0.598  10.859  0.0079  0.4133 -0.1671
 1553TIP3    H126074   4.597   0.560  10.922 -0.1780 -0.3731 -0.7999
 1553TIP3    H226075   4.736   0.543  10.865 -0.5700 -0.6356 -1.6896
 1554TIP3   OH226076   5.482   2.462   2.836 -0.0038 -0.0980  0.0549
 1554TIP3    H126077   5.409   2.495   2.784 -0.8278  0.1840  1.3359
 1554TIP3    H226078   5.443   2.441   2.921  1.5405  0.8035  1.0295
 1555TIP3   OH226079   1.510   3.067  12.769  0.3865 -0.1196  0.2983
 1555TIP3    H126080   1.488   3.005  12.699  1.0212  1.1576 -1.1002
 1555TIP3    H226081   1.606   3.062  12.775  0.3573 -0.0203  0.9125
 1556TIP3   OH226082   1.560   6.754  15.868  0.4626  0.6976 -0.0155
 1556TIP3    H126083   1.622   6.723  15.801 -0.8930  1.2530 -1.5943
 1556TIP3    H226084   1.608   6.823  15.914  1.5183  0.1154 -0.1936
 1557TIP3   OH226085   5.708   0.299   0.901  0.2368  0.4226  0.1904
 1557TIP3    H126086   5.675   0.385   0.877  0.4702  0.6204  0.5656
 1557TIP3    H226087   5.778   0.317   0.964  1.9031  0.0909 -1.4652
 1558TIP3   OH226088   2.894   0.852  16.773  0.1070  0.4082  0.2416
 1558TIP3    H126089   2.803   0.828  16.757  0.4731  0.1230 -1.7735
 1558TIP3    H226090   2.896   0.885  16.863 -1.7189 -0.7926  0.7720
 1559TIP3   OH226091   2.908   3.897  13.162 -0.1200 -0.3966 -0.4099
 1559TIP3    H126092   2.896   3.946  13.244 -0.8280 -1.6606  0.2842
 1559TIP3    H226093   2.999   3.867  13.166 -0.5028 -1.5335  0.5814
 1560TIP3   OH226094   2.389   3.832  16.803 -0.2670  0.5271  0.2451
 1560TIP3    H126095   2.382   3.860  16.712  1.1167 -1.3049 -0.4653
 1560TIP3    H226096   2.475   3.862  16.831  1.3293 -2.8709 -0.5792
 1561TIP3   OH226097   2.741   6.397  11.951 -0.1871 -0.1371  0.7449
 1561TIP3    H126098   2.791   6.479  11.949  0.1947 -0.3226  2.0858
 1561TIP3    H226099   2.739   6.372  12.043  0.2850 -1.9967  0.2895
 1562TIP3   OH226100   4.983   4.519   2.986  0.5381  0.3930  0.2869
 1562TIP3    H126101   4.941   4.570   3.055 -2.0654 -1.6619  0.3608
 1562TIP3    H226102   5.028   4.449   3.034 -0.4612 -0.4773 -0.0258
 1563TIP3   OH226103   4.536   6.057   1.190 -0.4335 -0.0805 -0.2210
 1563TIP3    H126104   4.592   6.053   1.268 -2.2210 -0.4474  1.1295
 1563TIP3    H226105   4.486   5.975   1.193  1.4595 -1.5685 -3.4485
 1564TIP3   OH226106   2.026   2.796   4.329 -0.1303 -0.5584  0.0942
 1564TIP3    H126107   1.982   2.867   4.282  0.6030  0.7777  1.3738
 1564TIP3    H226108   1.954   2.744   4.366 -0.6657 -0.2890 -0.5490
 1565TIP3   OH226109   2.858   2.240  11.231  0.3968  0.0242 -0.3730
 1565TIP3    H126110   2.778   2.202  11.267  0.2297  0.4159 -0.3293
 1565TIP3    H226111   2.928   2.185  11.265  0.3006  0.7819  1.1077
 1566TIP3   OH226112   0.413   1.856   4.692 -0.1056 -0.2307  0.0353
 1566TIP3    H126113   0.433   1.887   4.604 -0.3231 -0.5778 -0.1395
 1566TIP3    H226114   0.344   1.790   4.679 -2.8650  2.2931  0.7827
 1567TIP3   OH226115   3.577   0.678  15.627  0.2598 -0.1345 -0.6579
 1567TIP3    H126116   3.624   0.633  15.698  2.3221 -0.5124 -2.1873
 1567TIP3    H226117   3.543   0.758  15.667 -0.6071 -1.3938  1.2930
 1568TIP3   OH226118   2.023   2.753   3.681  0.2253  0.1134 -0.1318
 1568TIP3    H126119   1.977   2.669   3.676  0.4071 -0.0159  0.2898
 1568TIP3    H226120   2.021   2.787   3.591  0.3469 -0.4503 -0.3556
 1569TIP3   OH226121   5.945   5.456  13.910 -0.1511  0.1417 -1.0943
 1569TIP3    H126122   6.019   5.494  13.863  0.8788 -0.0461  0.3265
 1569TIP3    H226123   5.977   5.372  13.942 -0.6661  0.4762  0.3544
 1570TIP3   OH226124   3.580   6.745   1.992 -0.1572 -0.1936  0.2085
 1570TIP3    H126125   3.564   6.754   1.898 -0.6969 -0.7222  0.2406
 1570TIP3    H226126   3.520   6.675   2.020 -1.1739  1.0240  1.2512
 1571TIP3   OH226127   3.311   0.874   6.083 -0.5315  0.2231 -0.0915
 1571TIP3    H126128   3.218   0.872   6.105 -0.4008 -1.0358  0.4253
 1571TIP3    H226129   3.351   0.928   6.152 -0.7798  0.1866  0.0823
 1572TIP3   OH226130   6.765   1.341   4.231 -0.3989 -0.0849 -0.5312
 1572TIP3    H126131   6.791   1.433   4.237 -1.4635  0.4856 -3.1600
 1572TIP3    H226132   6.831   1.301   4.173 -0.1761 -0.9012  0.2596
 1573TIP3   OH226133   4.960   0.619  12.098 -0.6781  0.2249 -0.4830
 1573TIP3    H126134   4.962   0.524  12.087 -2.9398  0.0269  0.2037
 1573TIP3    H226135   4.867   0.642  12.087 -0.1030  2.4446 -1.2301
 1574TIP3   OH226136   4.042   5.916  11.917 -0.0643  0.2371  0.1515
 1574TIP3    H126137   4.030   6.003  11.881  0.5399  0.0550 -0.4923
 1574TIP3    H226138   3.994   5.858  11.858  0.4353  0.0075 -0.0329
 1575TIP3   OH226139   5.701   3.356  14.924  0.0252  0.7493 -0.4440
 1575TIP3    H126140   5.785   3.363  14.879  0.3902  0.6474  0.2035
 1575TIP3    H226141   5.657   3.281  14.884  0.6300  0.2437 -0.1757
 1576TIP3   OH226142   3.764   4.958  14.778  0.3833  0.0745 -0.3171
 1576TIP3    H126143   3.759   4.965  14.873 -0.5041  0.8854 -0.4113
 1576TIP3    H226144   3.674   4.947  14.749  0.4940  1.1596 -1.1482
 1577TIP3   OH226145   1.292   1.237  15.354  0.0886 -0.5339 -0.6878
 1577TIP3    H126146   1.224   1.305  15.354 -0.2707 -0.8873 -0.8928
 1577TIP3    H226147   1.253   1.164  15.305  0.5843 -0.7744 -0.7305
 1578TIP3   OH226148   4.419   6.703   4.963  0.1104  0.0314  0.4864
 1578TIP3    H126149   4.444   6.640   5.031 -0.2099 -0.3555  0.2563
 1578TIP3    H226150   4.388   6.779   5.011  1.7308  0.5447  0.7796
 1579TIP3   OH226151   4.006   1.211  15.572 -0.3005  0.6371  0.0199
 1579TIP3    H126152   3.988   1.304  15.559 -1.4234  0.1727 -2.2109
 1579TIP3    H226153   4.081   1.194  15.515 -1.6504 -0.2993 -1.5351
 1580TIP3   OH226154   5.408   3.807  14.194  0.1888 -0.2872  0.4853
 1580TIP3    H126155   5.405   3.731  14.136  1.0125 -1.3420  1.7646
 1580TIP3    H226156   5.321   3.809  14.234  0.4125 -1.0594  1.0368
 1581TIP3   OH226157   1.309   2.495  10.910 -0.2378  0.1338  0.2805
 1581TIP3    H126158   1.372   2.511  10.980 -0.4345  0.9030  0.2903
 1581TIP3    H226159   1.331   2.559  10.842 -1.9934  1.5375  0.9505
 1582TIP3   OH226160   6.579   4.361  15.289  0.2465 -0.5724 -0.0318
 1582TIP3    H126161   6.614   4.298  15.351  0.8733  0.8197  1.1025
 1582TIP3    H226162   6.634   4.439  15.301 -0.8321  0.3767 -0.9823
 1583TIP3   OH226163   5.368   1.233   0.595  0.2977 -0.0916 -0.2833
 1583TIP3    H126164   5.398   1.203   0.681  2.1353 -0.4597 -1.0060
 1583TIP3    H226165   5.290   1.285   0.614  1.0182  0.3634  1.6787
 1584TIP3   OH226166   3.407   5.102  12.001 -0.0928 -0.2656 -0.3056
 1584TIP3    H126167   3.431   5.028  12.057 -0.5678 -0.7818 -0.7764
 1584TIP3    H226168   3.489   5.128  11.960 -0.3875 -2.5978 -2.6131
 1585TIP3   OH226169   0.658   5.942   3.249 -0.8389 -0.2620 -0.0875
 1585TIP3    H126170   0.624   5.853   3.236 -0.8946 -0.2173 -0.2560
 1585TIP3    H226171   0.725   5.952   3.182  0.5798 -0.8804  1.1854
 1586TIP3   OH226172   3.265   0.023  13.215 -0.5453  0.0833 -0.1800
 1586TIP3    H126173   3.256  -0.023  13.131  1.6526  0.6660 -0.7911
 1586TIP3    H226174   3.306  -0.041  13.272  0.6080  0.5947 -0.4197
 1587TIP3   OH226175   2.096   4.197  11.176 -0.0764  0.7073  0.4113
 1587TIP3    H126176   2.156   4.238  11.114 -1.1144  1.1649 -0.3081
 1587TIP3    H226177   2.106   4.248  11.256  1.8529 -0.3679  0.9307
 1588TIP3   OH226178   2.829   6.715  11.009 -0.4132 -0.1539 -0.0517
 1588TIP3    H126179   2.771   6.737  11.082 -0.6638  0.2225 -0.3619
 1588TIP3    H226180   2.784   6.749  10.931  0.3545  0.3774 -0.2702
 1589TIP3   OH226181   1.277   4.237   1.634  0.2190 -0.1027  0.4463
 1589TIP3    H126182   1.287   4.153   1.678 -1.3022  0.1619  1.3711
 1589TIP3    H226183   1.200   4.226   1.578  1.0870  0.1183 -0.8077
 1590TIP3   OH226184   5.863   5.275   6.427  0.1031 -0.1649  0.1996
 1590TIP3    H126185   5.800   5.215   6.467  0.2637  0.4485  1.4015
 1590TIP3    H226186   5.812   5.355   6.411  0.3441  0.0078  0.2947
 1591TIP3   OH226187   0.023   4.855  12.235  0.0256  0.0101 -0.0864
 1591TIP3    H126188  -0.060   4.885  12.274 -0.8609 -1.2309 -0.9350
 1591TIP3    H226189   0.022   4.892  12.147  0.6120  0.3707  0.0560
 1592TIP3   OH226190   1.480   3.597   1.498  0.1780  0.4537  0.2453
 1592TIP3    H126191   1.466   3.646   1.417  1.7827  0.5350 -0.0097
 1592TIP3    H226192   1.452   3.508   1.478  0.6593  0.4536 -0.4214
 1593TIP3   OH226193   4.945   4.419   0.460 -0.5359 -0.1181 -0.3433
 1593TIP3    H126194   5.002   4.365   0.405 -2.2876  0.2195 -2.6381
 1593TIP3    H226195   4.882   4.357   0.498  0.3107 -0.2693  0.8591
 1594TIP3   OH226196   5.347   4.927  14.603 -0.1013 -0.5706 -0.2310
 1594TIP3    H126197   5.429   4.879  14.609 -0.3224 -0.7995  1.2921
 1594TIP3    H226198   5.292   4.874  14.546  1.4528  0.6037 -3.0069
 1595TIP3   OH226199   6.701   6.294   0.173  0.8530  0.3429  0.0996
 1595TIP3    H126200   6.796   6.299   0.179  0.7231  1.3777  1.9053
 1595TIP3    H226201   6.673   6.384   0.156  0.1760  0.0942 -0.1623
 1596TIP3   OH226202   0.679   5.935   3.972  0.4386 -0.2905 -0.3816
 1596TIP3    H126203   0.674   5.970   3.883  0.7797  1.5157  0.2668
 1596TIP3    H226204   0.698   6.011   4.027 -2.7325 -0.7634  1.6354
 1597TIP3   OH226205   1.751   6.377   0.677 -0.4870  0.1486  0.4188
 1597TIP3    H126206   1.829   6.416   0.716 -1.3060  1.6631  0.6315
 1597TIP3    H226207   1.706   6.335   0.751  0.7416 -1.9063  0.0730
 1598TIP3   OH226208   4.134   4.642  14.803 -0.5789  0.1005 -0.2928
 1598TIP3    H126209   4.081   4.567  14.778 -0.7672  0.2746 -0.4158
 1598TIP3    H226210   4.216   4.604  14.834 -0.4197 -0.1234 -0.9874
 1599TIP3   OH226211   4.887   4.144   2.980 -0.2908  0.6028  0.1776
 1599TIP3    H126212   4.815   4.205   2.994 -2.4494 -0.6807 -3.6713
 1599TIP3    H226213   4.940   4.185   2.911  0.6356 -0.0352  0.4911
 1600TIP3   OH226214   1.324   0.922   5.691 -0.3244  0.0202  0.2327
 1600TIP3    H126215   1.290   0.973   5.764 -0.6897 -2.3994  1.8585
 1600TIP3    H226216   1.250   0.869   5.662  0.1217  0.1312 -1.1779
 1601TIP3   OH226217   5.673   4.328   0.573  0.6521  0.4809 -0.2483
 1601TIP3    H126218   5.651   4.360   0.661 -0.2554  0.7244 -0.5487
 1601TIP3    H226219   5.595   4.279   0.546  0.8118  0.6506 -1.0270
 1602TIP3   OH226220   1.410   3.896   1.974  0.1237 -0.0262 -0.4349
 1602TIP3    H126221   1.397   3.871   1.883  1.4466  0.0964 -0.6763
 1602TIP3    H226222   1.345   3.845   2.023 -0.8878  0.2321 -1.4768
 1603TIP3   OH226223   2.808   0.188   1.282 -0.7469  0.3213 -0.2603
 1603TIP3    H126224   2.736   0.149   1.232 -0.3135 -1.0272  0.1144
 1603TIP3    H226225   2.794   0.156   1.371 -0.4304  1.1469  0.0992
 1604TIP3   OH226226   1.675   3.035   3.706  0.5194 -0.4909 -0.4517
 1604TIP3    H126227   1.724   3.090   3.646  0.3242 -0.3158 -0.4531
 1604TIP3    H226228   1.679   2.948   3.669  1.6622 -0.6668  0.0588
 1605TIP3   OH226229   4.987   3.933  13.027 -0.2087  0.0203 -0.2819
 1605TIP3    H126230   5.067   3.981  13.048 -0.6123  0.4232  0.3591
 1605TIP3    H226231   4.923   3.962  13.092 -0.3976 -1.6047  0.3107
 1606TIP3   OH226232   2.282   0.166  15.482  0.0952 -0.1011 -0.5734
 1606TIP3    H126233   2.223   0.120  15.542  0.9445  0.7781  1.0277
 1606TIP3    H226234   2.226   0.230  15.439 -0.1250  1.0137  1.2375
 1607TIP3   OH226235   0.658   1.184  12.636  0.5598  0.1028  0.4533
 1607TIP3    H126236   0.699   1.154  12.717 -0.2039  0.2966  0.9181
 1607TIP3    H226237   0.677   1.278  12.634  0.9392  0.0206  0.1931
 1608TIP3   OH226238   6.676   2.229  14.866 -0.1237 -0.2746 -0.1413
 1608TIP3    H126239   6.743   2.296  14.883  0.6913 -1.4653  1.5787
 1608TIP3    H226240   6.721   2.163  14.814 -1.1124  0.7286 -2.4238
 1609TIP3   OH226241   1.183   6.039   0.385 -0.0082 -0.8710 -0.4486
 1609TIP3    H126242   1.205   6.132   0.378  0.0724 -0.9394 -1.3036
 1609TIP3    H226243   1.092   6.038   0.415 -0.3985 -0.4734 -1.5441
 1610TIP3   OH226244   5.472   4.848   5.897  0.2824  0.1609 -0.0532
 1610TIP3    H126245   5.478   4.863   5.991 -0.0347  2.7981 -0.3915
 1610TIP3    H226246   5.394   4.792   5.887  0.5768 -0.5311  1.2439
 1611TIP3   OH226247   3.786   4.084   4.790  0.1203  0.0421  0.4053
 1611TIP3    H126248   3.830   4.044   4.715 -0.7729  0.9364 -0.6029
 1611TIP3    H226249   3.802   4.178   4.781 -2.5021  0.4744 -0.3559
 1612TIP3   OH226250   1.858   5.632   2.797 -0.1057  0.2556 -0.1891
 1612TIP3    H126251   1.867   5.620   2.891 -1.2235  0.8386  0.0109
 1612TIP3    H226252   1.931   5.688   2.772  0.3318 -0.0958  0.2826
 1613TIP3   OH226253   6.577   2.580   1.680  0.4042 -0.0796  0.4189
 1613TIP3    H126254   6.528   2.534   1.749 -0.8709  1.4875  0.6148
 1613TIP3    H226255   6.556   2.531   1.600 -0.0990 -0.4611  0.7752
 1614TIP3   OH226256   4.877   0.720  14.012  0.0807 -0.0402 -0.7064
 1614TIP3    H126257   4.802   0.753  14.061  0.5746  0.9528 -0.5925
 1614TIP3    H226258   4.855   0.629  13.992 -0.5438 -0.1747  0.5253
 1615TIP3   OH226259   2.442   5.635   0.474  0.3572  0.5359  0.0576
 1615TIP3    H126260   2.348   5.640   0.491  0.4731  0.8290  0.6305
 1615TIP3    H226261   2.469   5.726   0.461  0.9399  0.6891  2.0285
 1616TIP3   OH226262   0.104   5.545  16.027  0.5542 -0.2230  0.1600
 1616TIP3    H126263   0.046   5.577  15.958 -0.0645  0.4142  0.9442
 1616TIP3    H226264   0.074   5.456  16.044  0.0480 -0.0340  0.2840
 1617TIP3   OH226265   1.429   3.913   2.940  0.1686 -0.0882 -0.2097
 1617TIP3    H126266   1.365   3.865   2.888  0.1017  1.1952 -1.3399
 1617TIP3    H226267   1.486   3.956   2.876  1.7218 -0.5920  0.7730
 1618TIP3   OH226268   1.380   2.160  14.787 -0.4100 -0.5821  0.2620
 1618TIP3    H126269   1.301   2.158  14.733  0.0100  0.1221 -0.3982
 1618TIP3    H226270   1.448   2.122  14.730 -0.0649 -0.2771  0.4708
 1619TIP3   OH226271   4.592   4.860   0.998  0.0289 -0.0050  0.3462
 1619TIP3    H126272   4.611   4.776   0.956  0.9118 -2.1181  4.5082
 1619TIP3    H226273   4.502   4.851   1.030 -1.1740  2.1413 -2.0721
 1620TIP3   OH226274   0.082   0.988   4.523  0.2309 -0.7082  0.7433
 1620TIP3    H126275   0.033   1.052   4.574  2.2828  1.2614  0.4054
 1620TIP3    H226276   0.048   0.903   4.552 -0.7723  0.4215  3.1641
 1621TIP3   OH226277   6.664   3.273  13.675  0.0264 -0.2580  0.2519
 1621TIP3    H126278   6.714   3.238  13.749 -1.7603 -3.0748  0.2875
 1621TIP3    H226279   6.598   3.206  13.657 -2.8669  2.5772 -0.6876
 1622TIP3   OH226280   6.477   4.934   5.474  0.6298  0.2389 -0.3290
 1622TIP3    H126281   6.551   4.966   5.526  0.3506  0.7690 -0.2497
 1622TIP3    H226282   6.405   4.929   5.537  0.8547 -1.2700 -0.1729
 1623TIP3   OH226283   0.342   0.016  16.673 -0.1954  0.4235 -0.0039
 1623TIP3    H126284   0.248   0.034  16.675 -0.3129 -0.2270  1.3387
 1623TIP3    H226285   0.356  -0.047  16.744  1.3327  0.8840  0.1327
 1624TIP3   OH226286   2.084   1.848  16.967 -0.2911 -0.0274 -0.0986
 1624TIP3    H126287   2.104   1.786  16.897 -1.4508 -2.3883  1.5097
 1624TIP3    H226288   1.994   1.874  16.951 -0.5636 -0.5821  0.4696
 1625TIP3   OH226289   6.420   6.768   5.583 -0.1180 -0.5803 -0.3936
 1625TIP3    H126290   6.384   6.682   5.607 -1.5520 -0.0526 -0.5496
 1625TIP3    H226291   6.343   6.819   5.557  0.4935  1.2928  1.2828
 1626TIP3   OH226292   2.526   5.786  11.493 -0.6576 -0.3776  0.6315
 1626TIP3    H126293   2.457   5.771  11.429 -0.2537  1.9413 -0.4415
 1626TIP3    H226294   2.488   5.848  11.555  0.6507  1.7196 -0.5168
 1627TIP3   OH226295   3.306   3.505  13.432  0.1709  0.2598  0.5770
 1627TIP3    H126296   3.335   3.480  13.345  0.2705  0.0860  0.6591
 1627TIP3    H226297   3.283   3.598  13.424 -0.0512  0.1814  0.3094
 1628TIP3   OH226298   1.660   4.998   1.540  0.3458  0.1803 -0.0686
 1628TIP3    H126299   1.613   5.069   1.496  0.4108 -0.7343 -1.6819
 1628TIP3    H226300   1.750   5.005   1.507  0.3119 -0.7469 -0.3704
 1629TIP3   OH226301   6.403   6.233  13.447  0.1652 -0.3907  0.3431
 1629TIP3    H126302   6.372   6.142  13.449 -1.2546  0.0709  1.6897
 1629TIP3    H226303   6.342   6.280  13.505  0.0340  1.6813 -1.3527
 1630TIP3   OH226304   0.387   5.445   1.679  0.1910  0.3517  0.4329
 1630TIP3    H126305   0.441   5.376   1.718 -0.3445 -1.1529 -1.3716
 1630TIP3    H226306   0.450   5.506   1.641  0.6678 -0.3603  0.0467
 1631TIP3   OH226307   4.475   0.352   1.256 -0.1031  0.1537  0.0755
 1631TIP3    H126308   4.539   0.299   1.303 -1.8042 -1.8074  0.3457
 1631TIP3    H226309   4.450   0.420   1.318 -1.5918 -1.8082  1.7752
 1632TIP3   OH226310   5.050   4.301   2.807 -0.2914 -0.2525 -0.4578
 1632TIP3    H126311   5.062   4.395   2.825 -1.0263  0.1769 -2.0141
 1632TIP3    H226312   5.021   4.298   2.716  3.1160 -2.2050 -1.6802
 1633TIP3   OH226313   1.715   6.367  11.785  0.1213 -0.5671  0.1029
 1633TIP3    H126314   1.774   6.330  11.720 -1.3038  0.3548 -1.8283
 1633TIP3    H226315   1.726   6.462  11.776 -3.3821 -0.1895 -2.2369
 1634TIP3   OH226316   1.507   3.618  16.078 -0.6635  0.0603  0.0645
 1634TIP3    H126317   1.440   3.686  16.077 -2.9346 -2.0078 -0.5501
 1634TIP3    H226318   1.463   3.543  16.120  1.3576 -1.3316 -0.1617
 1635TIP3   OH226319   4.700   4.078   0.221 -0.1603 -0.2314 -0.4755
 1635TIP3    H126320   4.714   4.169   0.247 -1.3693 -0.1747  0.0441
 1635TIP3    H226321   4.786   4.036   0.234  0.3385  0.7629 -0.4762
 1636TIP3   OH226322   6.212   3.318   1.277 -0.6961  0.3080  0.2895
 1636TIP3    H126323   6.233   3.365   1.357  0.5068  1.1253 -0.4723
 1636TIP3    H226324   6.223   3.383   1.207  0.9071 -1.0392 -0.7792
 1637TIP3   OH226325   5.383   4.012   1.999  0.2217  0.2623  0.0918
 1637TIP3    H126326   5.380   3.982   1.908 -0.3855 -2.7489  0.9852
 1637TIP3    H226327   5.468   3.981   2.032  0.0967  0.6156  0.7672
 1638TIP3   OH226328   0.855   6.195   5.258  0.2641 -0.0096  0.0268
 1638TIP3    H126329   0.790   6.168   5.322  0.8608 -0.4017  0.4752
 1638TIP3    H226330   0.935   6.210   5.309  1.3799 -2.4911 -0.8611
 1639TIP3   OH226331   3.419   1.835   5.164 -0.0370  0.6628  0.1256
 1639TIP3    H126332   3.411   1.927   5.191  0.1906  0.5844  0.4790
 1639TIP3    H226333   3.498   1.834   5.110 -0.0905  0.6931  0.0474
 1640TIP3   OH226334   5.375   6.086   1.838  0.7795 -0.0565  0.3644
 1640TIP3    H126335   5.345   6.123   1.921  2.5708  0.5657  0.7687
 1640TIP3    H226336   5.389   5.993   1.857 -0.5473 -0.3028  0.2388
 1641TIP3   OH226337   3.170   2.771  12.043  0.5578  0.2285  0.1835
 1641TIP3    H126338   3.211   2.700  11.994  0.7095  0.2125  0.3309
 1641TIP3    H226339   3.243   2.812  12.090  0.6588  1.1595 -0.7299
 1642TIP3   OH226340   4.229   1.459  11.309 -0.1367  0.1662 -0.2925
 1642TIP3    H126341   4.160   1.511  11.268  1.6170  1.4673 -1.7717
 1642TIP3    H226342   4.291   1.442  11.238  3.3685  2.9815  1.8169
 1643TIP3   OH226343   0.959   3.765  12.987 -0.3351  0.2186 -0.2955
 1643TIP3    H126344   0.983   3.849  13.026 -0.9053 -0.0083  0.5416
 1643TIP3    H226345   1.030   3.706  13.013 -0.0916  0.3526 -0.6331
 1644TIP3   OH226346   3.001   5.461  11.488 -0.5761  0.1939 -0.4489
 1644TIP3    H126347   3.046   5.433  11.568  0.8884 -3.7276 -2.4020
 1644TIP3    H226348   2.914   5.422  11.495 -0.1401 -0.9398 -1.0909
 1645TIP3   OH226349   3.127   6.559  13.428 -0.0142 -0.1987 -0.2863
 1645TIP3    H126350   3.223   6.560  13.419  0.0613 -0.1950  0.4806
 1645TIP3    H226351   3.108   6.478  13.474 -0.4066 -0.3092 -0.6397
 1646TIP3   OH226352   2.233   4.878  15.701 -0.2774  0.5166 -0.2247
 1646TIP3    H126353   2.170   4.808  15.723 -0.5938  1.2478  1.4044
 1646TIP3    H226354   2.315   4.832  15.683 -0.9415 -0.3761 -1.0358
 1647TIP3   OH226355   2.651   3.787   0.576 -0.2027  0.0362  0.0296
 1647TIP3    H126356   2.732   3.757   0.616 -2.1584 -3.0093  2.1473
 1647TIP3    H226357   2.654   3.753   0.487  2.7057  3.9916 -1.6921
 1648TIP3   OH226358   6.064   4.026   0.782 -0.2605 -0.1757  0.4257
 1648TIP3    H126359   6.046   4.095   0.718 -0.7423 -0.3770  0.3348
 1648TIP3    H226360   5.987   4.025   0.839 -0.2773 -0.6583  0.4006
 1649TIP3   OH226361   4.588   1.526   6.059  0.1239 -0.2445  0.7870
 1649TIP3    H126362   4.507   1.502   6.104  0.9198 -0.6362  2.0883
 1649TIP3    H226363   4.617   1.445   6.017  0.0162 -0.1970  0.6229
 1650TIP3   OH226364   0.935   3.544   1.288  0.4933 -0.0776 -0.0122
 1650TIP3    H126365   0.936   3.458   1.247  0.9559 -0.1547  0.1631
 1650TIP3    H226366   1.013   3.588   1.255  0.3070  0.2468 -0.0331
 1651TIP3   OH226367   2.422   5.660   1.840 -0.5316 -0.2983 -0.2183
 1651TIP3    H126368   2.416   5.608   1.760  0.5555  1.3458 -1.4238
 1651TIP3    H226369   2.470   5.605   1.902 -0.5271 -1.2131 -1.0185
 1652TIP3   OH226370   1.929   2.895  15.272 -0.0991  0.0992 -0.1197
 1652TIP3    H126371   1.977   2.825  15.316 -0.4924  0.5360  1.0381
 1652TIP3    H226372   1.919   2.864  15.182  1.9567 -0.2022 -0.3017
 1653TIP3   OH226373   3.531   4.460  12.503  0.7049  0.3829 -0.2918
 1653TIP3    H126374   3.497   4.526  12.441 -1.1118 -0.4996 -0.3091
 1653TIP3    H226375   3.610   4.500  12.539 -0.0821  2.3933 -0.6268
 1654TIP3   OH226376   0.243   0.958   3.250  0.2611  0.2825  0.1686
 1654TIP3    H126377   0.173   0.892   3.252  2.3839 -2.1572  0.3350
 1654TIP3    H226378   0.261   0.977   3.342  1.7570 -1.4641  0.3058
 1655TIP3   OH226379   3.042   0.009   0.713  0.1559  0.1723 -0.0013
 1655TIP3    H126380   2.971   0.065   0.744 -1.7564 -2.5922  1.0719
 1655TIP3    H226381   3.122   0.052   0.743 -1.1423  2.6167  0.1391
 1656TIP3   OH226382   6.762   3.093  16.505  0.4598 -0.0271 -0.5953
 1656TIP3    H126383   6.756   3.189  16.511 -0.2093 -0.1192  0.4796
 1656TIP3    H226384   6.690   3.069  16.447  0.1484  0.0688 -0.2549
 1657TIP3   OH226385   3.782   5.528  13.301  0.0973 -0.2744  0.4123
 1657TIP3    H126386   3.700   5.493  13.267 -0.0294 -0.6778  1.1032
 1657TIP3    H226387   3.782   5.620  13.275 -0.8869 -0.1073  0.9491
 1658TIP3   OH226388   1.075   2.101   4.725 -0.3323 -0.0111 -0.1321
 1658TIP3    H126389   1.046   2.134   4.641 -1.7318 -1.8643 -0.4386
 1658TIP3    H226390   1.166   2.075   4.711 -0.2755  0.5381 -0.7995
 1659TIP3   OH226391   2.023   4.750  12.688  0.3267 -0.0918  0.4723
 1659TIP3    H126392   1.968   4.756  12.766 -0.1404  0.2174  0.1251
 1659TIP3    H226393   2.091   4.687  12.711 -1.6129 -2.4925  0.0560
 1660TIP3   OH226394   3.786   4.092   4.500  0.1502 -0.5895 -0.5690
 1660TIP3    H126395   3.694   4.069   4.492 -0.1950  0.7914 -0.8399
 1660TIP3    H226396   3.786   4.176   4.547  1.3130 -0.9687  0.1486
 1661TIP3   OH226397   4.087   2.835   3.035 -0.1835  0.0555 -0.0096
 1661TIP3    H126398   4.052   2.847   2.947  2.6909  0.8554 -1.1977
 1661TIP3    H226399   4.102   2.741   3.043 -2.6586 -0.3372  0.6405
 1662TIP3   OH226400   3.010   3.224  15.996  0.0034 -0.1493 -0.3704
 1662TIP3    H126401   3.042   3.182  15.917  0.0138 -1.3218  0.2442
 1662TIP3    H226402   3.062   3.187  16.067  0.3993  1.3100  0.1515
 1663TIP3   OH226403   2.117   1.875  11.548  0.0849 -0.2685  0.6310
 1663TIP3    H126404   2.079   1.946  11.599  1.2328  0.7313  0.1404
 1663TIP3    H226405   2.093   1.895  11.457  1.1156 -0.0372  0.4009
 1664TIP3   OH226406   4.351   0.125   1.494  0.3820 -0.1896  0.7967
 1664TIP3    H126407   4.416   0.091   1.555  0.4867  0.1430  0.8749
 1664TIP3    H226408   4.355   0.220   1.506  0.2513 -0.1360  0.4273
 1665TIP3   OH226409   5.804   1.911  17.058  0.0550 -0.4574  0.1132
 1665TIP3    H126410   5.777   1.961  16.981  0.9784 -0.4880 -0.2483
 1665TIP3    H226411   5.898   1.928  17.066  0.1928 -1.3448  0.5759
 1666TIP3   OH226412   0.123   1.305  15.181  0.1246 -0.1695 -0.0553
 1666TIP3    H126413   0.162   1.247  15.247  0.6845 -1.5149 -1.5000
 1666TIP3    H226414   0.107   1.248  15.106 -0.5570  1.3002 -1.0641
 1667TIP3   OH226415   1.802   2.448  16.797 -0.6186 -0.1656  0.0735
 1667TIP3    H126416   1.780   2.364  16.756  0.9962 -0.6413  0.0983
 1667TIP3    H226417   1.878   2.428  16.851 -0.7764  1.1392  0.8094
 1668TIP3   OH226418   1.898   0.987  16.539  0.1941  0.0598  0.2027
 1668TIP3    H126419   1.955   1.061  16.516  0.8730 -0.6959 -0.6297
 1668TIP3    H226420   1.809   1.021  16.528  0.5006  0.4582 -1.1858
 1669TIP3   OH226421   6.604   2.353   2.376 -0.1698  0.2390 -0.2325
 1669TIP3    H126422   6.545   2.398   2.315  0.2400  1.1643  0.0303
 1669TIP3    H226423   6.675   2.320   2.321  0.2098  1.0874 -0.2762
 1670TIP3   OH226424   4.616   4.667   4.365 -0.1989  0.3259 -0.2064
 1670TIP3    H126425   4.536   4.719   4.373  0.3756  1.3107 -0.6187
 1670TIP3    H226426   4.660   4.703   4.288  1.2703  0.7155  0.7680
 1671TIP3   OH226427   6.224   4.169  13.743  0.1195  0.0611  0.3322
 1671TIP3    H126428   6.134   4.196  13.760 -0.1030 -0.1404 -0.4998
 1671TIP3    H226429   6.222   4.130  13.656  1.1680  0.8033 -0.0522
 1672TIP3   OH226430   3.248   5.244   5.198  0.0946  0.5267  0.6309
 1672TIP3    H126431   3.170   5.218   5.247  0.3276  0.7822  1.1495
 1672TIP3    H226432   3.308   5.277   5.265  0.0879  1.6991  0.0835
 1673TIP3   OH226433   4.304   5.876  14.045 -0.5388  0.1784  0.2569
 1673TIP3    H126434   4.379   5.861  14.102 -0.5707 -0.5046  0.1255
 1673TIP3    H226435   4.340   5.871  13.956 -0.5616  0.8452  0.2010
 1674TIP3   OH226436   1.739   3.208  16.700  0.1839  0.3879  0.3599
 1674TIP3    H126437   1.816   3.258  16.676  0.1557  0.9604  1.4302
 1674TIP3    H226438   1.665   3.260  16.668  0.2296 -0.3021 -0.9257
 1675TIP3   OH226439   4.954   6.158   4.846 -0.2792 -0.3896 -0.1671
 1675TIP3    H126440   4.977   6.234   4.900 -0.2180 -0.6502  0.1721
 1675TIP3    H226441   4.977   6.185   4.757  0.5473 -0.3336  0.0617
 1676TIP3   OH226442   1.681   5.274   1.714 -0.2616 -0.0198  0.7548
 1676TIP3    H126443   1.647   5.296   1.627  0.2165  0.0183  0.5736
 1676TIP3    H226444   1.630   5.198   1.741  1.0208 -1.3743 -0.4830
 1677TIP3   OH226445   3.356   4.336   6.316  0.0157  0.5745  0.3719
 1677TIP3    H126446   3.299   4.402   6.355 -1.0713 -0.7101  1.0338
 1677TIP3    H226447   3.398   4.293   6.391 -2.4365 -2.2276  0.3242
 1678TIP3   OH226448   5.405   2.264   5.530 -0.4299  0.1598  0.0860
 1678TIP3    H126449   5.375   2.351   5.556  0.3850  0.7041 -0.7848
 1678TIP3    H226450   5.395   2.262   5.435  0.6875 -0.2615 -0.0318
 1679TIP3   OH226451   6.264   3.304  13.669  0.4526  0.0083 -0.2503
 1679TIP3    H126452   6.264   3.328  13.576  0.3659 -2.2705 -0.8843
 1679TIP3    H226453   6.341   3.350  13.705 -0.1571  1.8402 -1.1286
 1680TIP3   OH226454   3.998   1.414  13.347  0.4340  0.2452  0.5264
 1680TIP3    H126455   3.959   1.490  13.390 -0.8508 -0.3729  0.5070
 1680TIP3    H226456   3.965   1.339  13.397  0.0203 -0.4049 -0.6717
 1681TIP3   OH226457   4.440   4.901   0.057 -0.0121  0.0685  0.3536
 1681TIP3    H126458   4.394   4.819   0.039  1.6275 -0.9593  0.7200
 1681TIP3    H226459   4.392   4.939   0.131 -0.8053 -0.5160  0.1547
 1682TIP3   OH226460   0.132   2.904  16.470 -0.3018  0.6843  0.4552
 1682TIP3    H126461   0.063   2.857  16.423 -1.7651  1.8738  1.3409
 1682TIP3    H226462   0.091   2.986  16.498  1.4249  1.3532  1.1733
 1683TIP3   OH226463   2.150   2.660  14.738 -0.5429  0.2675 -0.5818
 1683TIP3    H126464   2.128   2.753  14.737  0.5950  0.5660  0.3454
 1683TIP3    H226465   2.192   2.644  14.654  1.1257  1.0959  0.0516
 1684TIP3   OH226466   6.105   5.882   1.501 -0.1200 -0.2050  0.1007
 1684TIP3    H126467   6.138   5.793   1.511 -1.1014 -0.6541 -0.4808
 1684TIP3    H226468   6.175   5.938   1.535 -0.8866 -1.2810  3.8430
 1685TIP3   OH226469   3.895   1.545  13.134  0.1506  0.6590 -0.1526
 1685TIP3    H126470   3.933   1.500  13.209 -1.2465 -0.9021 -0.3366
 1685TIP3    H226471   3.954   1.525  13.061 -0.9893 -1.8342 -0.4639
 1686TIP3   OH226472   4.501   0.786   1.231  0.4855  0.3564 -0.2585
 1686TIP3    H126473   4.479   0.711   1.286  1.5181 -1.0020 -1.6388
 1686TIP3    H226474   4.426   0.795   1.172  0.9436 -0.4776 -0.9899
 1687TIP3   OH226475   5.983   1.637   6.435  0.0478  0.2903 -0.4074
 1687TIP3    H126476   6.021   1.557   6.399 -1.8083 -1.2913  0.9245
 1687TIP3    H226477   6.058   1.695   6.449  1.3303 -0.8183 -2.3221
 1688TIP3   OH226478   3.986   5.828   1.337  0.4521 -0.7661 -0.0250
 1688TIP3    H126479   3.931   5.880   1.278  0.0832  0.4970  1.3839
 1688TIP3    H226480   3.941   5.743   1.343 -0.2357 -0.4428 -0.4816
 1689TIP3   OH226481   4.553   5.337   4.406  0.6138 -0.0903  0.4910
 1689TIP3    H126482   4.550   5.262   4.346  1.4157 -0.6091  1.0692
 1689TIP3    H226483   4.528   5.412   4.353  0.1225 -0.7208 -0.1850
 1690TIP3   OH226484   3.685   1.871   5.040  0.3976  0.2892  0.1840
 1690TIP3    H126485   3.734   1.851   4.960 -0.0516  0.3462 -0.1030
 1690TIP3    H226486   3.748   1.854   5.110  0.5646 -0.4981 -0.1402
 1691TIP3   OH226487   1.911   1.875   1.907  0.2899  0.0527  0.1046
 1691TIP3    H126488   1.860   1.835   1.836  0.3764  1.2476 -0.6644
 1691TIP3    H226489   1.850   1.883   1.979  0.7059 -3.0064  0.9156
 1692TIP3   OH226490   6.350   5.606   5.600 -0.2943 -0.6127 -0.0659
 1692TIP3    H126491   6.366   5.659   5.522  0.1225 -0.6038  0.0227
 1692TIP3    H226492   6.315   5.667   5.664  2.4146  0.1187  0.8502
 1693TIP3   OH226493   2.277   0.710  13.319 -0.0332  0.4533  0.1719
 1693TIP3    H126494   2.253   0.752  13.236 -1.3238  0.3622  0.4868
 1693TIP3    H226495   2.356   0.660  13.298 -2.1030 -2.2726 -1.9320
 1694TIP3   OH226496   2.135   1.905   5.060 -0.5336  0.4122 -0.0165
 1694TIP3    H126497   2.086   1.947   5.131 -2.1724  0.1933 -0.9853
 1694TIP3    H226498   2.174   1.828   5.101 -0.8915  0.6507  0.7955
 1695TIP3   OH226499   6.071   1.543   0.335  0.2009 -0.3828 -0.6377
 1695TIP3    H126500   6.055   1.466   0.280  2.4584 -3.7900  2.9072
 1695TIP3    H226501   5.989   1.555   0.383  0.3122 -1.7792 -0.0308
 1696TIP3   OH226502   4.993   0.581   4.976 -0.1269 -0.5500  0.3178
 1696TIP3    H126503   4.980   0.641   4.903  0.6404  1.0296  1.4277
 1696TIP3    H226504   5.005   0.496   4.935 -0.7553  0.1203 -1.3293
 1697TIP3   OH226505   6.268   2.782  11.197  0.8050  0.1836  0.0030
 1697TIP3    H126506   6.338   2.845  11.210 -0.1373  0.9969  1.4044
 1697TIP3    H226507   6.240   2.796  11.106  2.4460 -0.2048 -0.6052
 1698TIP3   OH226508   4.682   6.804   2.011  0.2997 -0.2968 -0.4137
 1698TIP3    H126509   4.719   6.853   1.938 -0.5849  2.4961  0.8590
 1698TIP3    H226510   4.622   6.742   1.970 -1.1333  2.0341 -2.0933
 1699TIP3   OH226511   1.968   4.844   4.888  0.0529  0.6886 -0.2782
 1699TIP3    H126512   1.934   4.925   4.851  0.4288  0.9921  0.0309
 1699TIP3    H226513   2.044   4.871   4.939  0.4042  0.0944 -0.4760
 1700TIP3   OH226514   3.572   5.759   4.175  0.4265 -0.1646 -0.4116
 1700TIP3    H126515   3.522   5.679   4.161  1.0753 -1.0281  1.7440
 1700TIP3    H226516   3.662   5.735   4.153  0.3623  0.5797 -1.6081
 1701TIP3   OH226517   4.458   2.817   0.149 -0.2478 -0.3097 -0.6710
 1701TIP3    H126518   4.519   2.795   0.079 -0.9415  2.0067 -2.1048
 1701TIP3    H226519   4.398   2.743   0.153  1.3410 -1.6601 -0.6730
 1702TIP3   OH226520   2.072   3.735  11.401 -0.6951  0.2757  0.3562
 1702TIP3    H126521   2.014   3.738  11.477  0.4037 -0.8263  1.2969
 1702TIP3    H226522   2.142   3.674  11.427 -0.9692 -1.1903 -2.0032
 1703TIP3   OH226523   0.315   4.946   5.243  0.2616 -0.8502 -0.3408
 1703TIP3    H126524   0.278   4.952   5.331 -1.3243  2.5939 -1.0960
 1703TIP3    H226525   0.409   4.947   5.256  0.1271  2.3776  1.3688
 1704TIP3   OH226526   0.658   5.123   1.538 -0.6378  0.0124  0.7907
 1704TIP3    H126527   0.631   5.031   1.532 -0.2160 -0.0778  0.1937
 1704TIP3    H226528   0.676   5.137   1.631 -1.5156 -0.2713  1.0142
 1705TIP3   OH226529   5.556   4.139   0.830 -0.1669 -0.2987  0.6393
 1705TIP3    H126530   5.556   4.167   0.739  1.5238  2.2808  1.3048
 1705TIP3    H226531   5.483   4.078   0.837 -0.9185  0.1439 -2.2049
 1706TIP3   OH226532   3.527   0.916   0.934 -0.1256 -0.1350  0.0485
 1706TIP3    H126533   3.432   0.910   0.938 -0.1430 -1.0255 -1.1224
 1706TIP3    H226534   3.557   0.826   0.946  0.5302  0.0156 -0.4386
 1707TIP3   OH226535   4.775   2.869  13.234 -0.0305  0.2955  0.0002
 1707TIP3    H126536   4.785   2.963  13.220 -1.6393  0.4654 -0.1964
 1707TIP3    H226537   4.729   2.838  13.156  1.6080 -0.8947 -0.5275
 1708TIP3   OH226538   1.442   3.273  10.658  0.7277  0.1261 -0.2951
 1708TIP3    H126539   1.424   3.301  10.569  0.7420 -1.4856 -0.8376
 1708TIP3    H226540   1.367   3.218  10.682  1.2211 -0.3129  0.2920
 1709TIP3   OH226541   4.745   2.070   3.606  0.7466  1.0192 -0.0998
 1709TIP3    H126542   4.747   1.983   3.568  1.3861  1.6999 -1.7040
 1709TIP3    H226543   4.828   2.077   3.655  0.7841  0.8025 -0.1330
 1710TIP3   OH226544   5.796   1.609   5.222 -0.1335 -0.2660  0.1684
 1710TIP3    H126545   5.881   1.604   5.265  0.4542 -0.8368 -0.9974
 1710TIP3    H226546   5.781   1.521   5.188 -0.8707  0.0013 -0.2079
 1711TIP3   OH226547   2.848   5.728   0.030 -0.2284 -0.2202 -0.1253
 1711TIP3    H126548   2.915   5.774  -0.020  1.7934 -1.4022  1.3909
 1711TIP3    H226549   2.817   5.659  -0.029  1.1816 -0.7856 -0.2293
 1712TIP3   OH226550   1.441   5.362  13.495  0.0152 -0.1724 -0.4321
 1712TIP3    H126551   1.432   5.365  13.591 -0.3170 -1.3541 -0.4150
 1712TIP3    H226552   1.510   5.426  13.476  2.3359 -2.1114  0.9149
 1713TIP3   OH226553   6.748   2.352  15.971  0.3782 -0.2988 -0.2067
 1713TIP3    H126554   6.685   2.419  15.946 -0.4857 -0.8403  0.4410
 1713TIP3    H226555   6.694   2.278  15.999  1.2960 -0.6654  0.6639
 1714TIP3   OH226556   1.179   1.448  11.999  0.3372  0.1564 -0.7478
 1714TIP3    H126557   1.208   1.540  11.995 -0.1298  0.3848  0.5808
 1714TIP3    H226558   1.090   1.450  11.964 -0.8023  0.7859  1.8785
 1715TIP3   OH226559   3.978   0.205   5.618  0.2461  0.5869  0.0006
 1715TIP3    H126560   3.960   0.168   5.531  0.9447  1.4335 -0.5295
 1715TIP3    H226561   3.940   0.293   5.614 -0.0807  0.4825  0.7119
 1716TIP3   OH226562   2.197   5.421   2.933  0.1821  0.2060 -0.0579
 1716TIP3    H126563   2.105   5.440   2.949 -0.3960 -2.0475 -0.3403
 1716TIP3    H226564   2.223   5.484   2.865 -0.2107  2.9107  2.1045
 1717TIP3   OH226565   4.395   0.969  14.349 -0.3003  0.2824 -0.1168
 1717TIP3    H126566   4.336   0.932  14.284  1.3226  0.2835 -1.6834
 1717TIP3    H226567   4.443   1.037  14.302  0.1350  1.0828  1.4065
 1718TIP3   OH226568   2.778   5.363  11.695 -0.3428  0.1458  0.8340
 1718TIP3    H126569   2.806   5.277  11.724  0.0324 -0.2804 -0.6740
 1718TIP3    H226570   2.827   5.424  11.750  2.1261 -0.6044 -0.3904
 1719TIP3   OH226571   4.992   4.624  15.862 -0.0756  0.1788 -0.2424
 1719TIP3    H126572   4.959   4.666  15.783  2.8858 -0.6344 -2.0266
 1719TIP3    H226573   4.935   4.548  15.874 -0.0332 -0.1762 -2.1145
 1720TIP3   OH226574   6.402   0.423   2.007 -0.6479  0.2615  0.5197
 1720TIP3    H126575   6.376   0.401   2.097 -1.2990  1.3728  0.6267
 1720TIP3    H226576   6.473   0.486   2.017 -0.1697 -0.2272  0.2410
 1721TIP3   OH226577   6.783   2.920  12.556 -0.2537  0.4283  0.6471
 1721TIP3    H126578   6.735   2.977  12.615 -2.3809 -0.8381  0.2567
 1721TIP3    H226579   6.723   2.905  12.483  0.4532 -1.7334  0.4318
 1722TIP3   OH226580   5.732   6.130   1.650 -0.1746 -0.1189 -1.0544
 1722TIP3    H126581   5.657   6.187   1.666  0.7152  0.4846  1.6684
 1722TIP3    H226582   5.701   6.042   1.673  0.5856  0.5094  3.3894
 1723TIP3   OH226583   3.175   4.499   1.589  0.4435  0.3023  0.0928
 1723TIP3    H126584   3.136   4.520   1.504  0.8610  2.0690  0.2979
 1723TIP3    H226585   3.107   4.522   1.653  0.4131 -0.2956  0.2817
 1724TIP3   OH226586   6.768   6.293  10.993  0.0803  0.0047  0.3881
 1724TIP3    H126587   6.796   6.259  11.078  2.8469  0.6376 -0.1788
 1724TIP3    H226588   6.833   6.361  10.972 -2.2258  1.9707 -0.9059
 1725TIP3   OH226589   6.046   5.755   4.309 -0.1241 -0.0589 -0.5037
 1725TIP3    H126590   6.063   5.695   4.236 -0.8143 -0.1163 -0.6212
 1725TIP3    H226591   6.096   5.718   4.382 -0.9752 -1.1069 -0.4160
 1726TIP3   OH226592   5.405   0.160   5.234  0.4207 -0.2253  0.3968
 1726TIP3    H126593   5.335   0.102   5.264 -0.3626  0.2641 -0.4211
 1726TIP3    H226594   5.420   0.219   5.309 -2.5336  1.9273 -0.4969
 1727TIP3   OH226595   6.393   1.876   5.217  0.0702  0.1633  0.2237
 1727TIP3    H126596   6.462   1.868   5.150 -1.2726  1.5762 -1.4279
 1727TIP3    H226597   6.398   1.967   5.246 -0.0445 -0.1677  1.3148
 1728TIP3   OH226598   2.202   1.654  11.010 -0.0202  0.1666  0.5257
 1728TIP3    H126599   2.214   1.563  11.035  1.4061 -0.0497 -0.7845
 1728TIP3    H226600   2.135   1.652  10.941  0.1210  0.0860  0.3912
 1729TIP3   OH226601   6.359   1.807  14.240  0.3483 -0.4942  0.0378
 1729TIP3    H126602   6.348   1.805  14.145 -2.0014  0.5499  0.2288
 1729TIP3    H226603   6.387   1.897  14.259  0.3055 -0.5515  0.3756
 1730TIP3   OH226604   0.549   4.626   1.698  0.3538 -0.1662  0.4393
 1730TIP3    H126605   0.642   4.638   1.682 -0.0334  0.4077 -1.7529
 1730TIP3    H226606   0.522   4.706   1.743  0.5966  0.5697 -0.6732
 1731TIP3   OH226607   4.110   0.679  16.199  0.0742  0.0086 -0.8468
 1731TIP3    H126608   4.204   0.676  16.187 -0.1867 -0.7739 -2.9946
 1731TIP3    H226609   4.087   0.593  16.235 -0.1325 -0.9970 -3.2451
 1732TIP3   OH226610   6.195   4.949   5.528  0.2531  0.1428  0.4681
 1732TIP3    H126611   6.204   4.928   5.435 -0.6846 -2.0156  0.8115
 1732TIP3    H226612   6.173   5.043   5.529  0.7602  0.3234 -1.4363
 1733TIP3   OH226613   1.069   2.760  14.582 -0.2191 -0.2080 -0.3841
 1733TIP3    H126614   0.986   2.789  14.542  0.0077 -0.0698 -0.7570
 1733TIP3    H226615   1.087   2.675  14.541 -0.2590 -0.3131 -0.1841
 1734TIP3   OH226616   4.807   5.624  14.940 -0.2393  0.1141  0.7729
 1734TIP3    H126617   4.850   5.673  15.009  1.4361  0.4027 -0.4150
 1734TIP3    H226618   4.812   5.680  14.863 -2.5837  0.0528  0.4893
 1735TIP3   OH226619   5.788   1.547  10.835 -0.4490  0.1830 -0.2196
 1735TIP3    H126620   5.696   1.574  10.833 -0.2147  0.9854 -0.5901
 1735TIP3    H226621   5.795   1.494  10.914 -0.8882  1.4421  0.7102
 1736TIP3   OH226622   6.266   0.953   4.253 -0.2480 -0.4811 -0.5159
 1736TIP3    H126623   6.242   0.862   4.271 -1.4227 -0.3572 -1.2832
 1736TIP3    H226624   6.191   0.988   4.204 -0.7253  1.4889  1.4722
 1737TIP3   OH226625   1.488   2.306   5.900  0.3091 -0.3787  0.3766
 1737TIP3    H126626   1.565   2.347   5.939  0.3058  0.1953 -0.1976
 1737TIP3    H226627   1.506   2.307   5.806 -1.0857  1.2489  0.0813
 1738TIP3   OH226628   4.723   3.138  13.130 -0.4609 -0.0296 -0.4026
 1738TIP3    H126629   4.778   3.106  13.059  0.4946 -1.4521  0.9100
 1738TIP3    H226630   4.742   3.232  13.135  1.1034 -0.3176 -0.6237
 1739TIP3   OH226631   3.933   6.564   6.182 -0.6234 -0.6036  0.0948
 1739TIP3    H126632   3.871   6.505   6.225 -1.2837 -0.2422 -0.3393
 1739TIP3    H226633   3.937   6.533   6.091 -3.4318  1.8334 -1.0327
 1740TIP3   OH226634   5.747   1.974  14.132  0.5037 -0.5534 -0.4560
 1740TIP3    H126635   5.826   1.991  14.080  1.3021 -0.7245  0.6594
 1740TIP3    H226636   5.757   2.029  14.209 -0.1092 -1.1295  0.0489
 1741TIP3   OH226637   0.259   5.637   1.819  0.2417 -0.5728  0.0206
 1741TIP3    H126638   0.334   5.676   1.863  0.2521 -1.8750  1.2479
 1741TIP3    H226639   0.296   5.598   1.740  0.5440  0.2540 -0.2554
 1742TIP3   OH226640   1.395   2.612   5.473 -0.1747 -0.5853  0.5283
 1742TIP3    H126641   1.378   2.594   5.381  0.6623  1.5450 -0.0901
 1742TIP3    H226642   1.309   2.604   5.515 -0.8279 -0.1722 -0.6994
 1743TIP3   OH226643   2.476   3.044   2.424 -0.3066  0.6427 -0.2774
 1743TIP3    H126644   2.506   3.115   2.481 -0.2760  0.6975 -0.3622
 1743TIP3    H226645   2.398   3.010   2.469 -0.1951  0.5869 -0.1265
 1744TIP3   OH226646   2.068   6.078  15.670 -0.3703 -0.3294  0.4692
 1744TIP3    H126647   2.066   6.094  15.576  0.1963 -0.8894  0.3490
 1744TIP3    H226648   2.111   6.155  15.707 -0.9601  0.0739  0.3187
 1745TIP3   OH226649   5.742   1.327  14.378  0.7226 -0.0407 -0.9887
 1745TIP3    H126650   5.647   1.339  14.367  0.5817  0.1115  0.2171
 1745TIP3    H226651   5.755   1.233  14.372  0.0870 -0.3392  1.4232
 1746TIP3   OH226652   1.094   0.378   0.931 -0.0324  0.5048  0.2382
 1746TIP3    H126653   1.171   0.422   0.895  0.7818  1.3514  2.8109
 1746TIP3    H226654   1.023   0.441   0.920  0.7139  1.7606  2.1114
 1747TIP3   OH226655   0.999   3.792   0.647 -0.5814  0.2973  0.5859
 1747TIP3    H126656   1.088   3.822   0.631  0.2536 -2.1410  0.3002
 1747TIP3    H226657   0.948   3.827   0.574  0.8816 -1.1997 -1.2471
 1748TIP3   OH226658   1.739   5.306   4.764  0.2150  0.6564 -0.0617
 1748TIP3    H126659   1.766   5.214   4.765 -1.9654 -0.0655 -1.3927
 1748TIP3    H226660   1.785   5.345   4.839  1.4318 -1.4193  0.3588
 1749TIP3   OH226661   6.719   1.450   1.066  0.0245 -0.1541  0.6585
 1749TIP3    H126662   6.775   1.373   1.059  1.0655  0.6334  0.0713
 1749TIP3    H226663   6.669   1.436   1.147 -1.7216 -2.6254 -0.7081
 1750TIP3   OH226664   2.744   2.835   5.766  0.4969 -0.0489 -0.0667
 1750TIP3    H126665   2.811   2.766   5.763 -0.3303 -0.8834 -2.7848
 1750TIP3    H226666   2.671   2.796   5.815  0.7031 -0.4444 -0.0710
 1751TIP3   OH226667   4.226   0.376   2.348  0.7718 -0.2498  0.0393
 1751TIP3    H126668   4.224   0.319   2.271  3.5103  0.4920 -0.7186
 1751TIP3    H226669   4.219   0.465   2.312 -2.0554  0.0459  1.0878
 1752TIP3   OH226670   4.809   1.253  13.739  0.7478  0.1082 -0.2349
 1752TIP3    H126671   4.745   1.288  13.677  1.7285 -2.4673 -2.9072
 1752TIP3    H226672   4.889   1.303  13.722  0.3538  1.2189  0.9509
 1753TIP3   OH226673   5.931   3.329   3.216  0.0538 -0.6307  0.7031
 1753TIP3    H126674   5.850   3.290   3.248 -0.7085  1.3809  1.4339
 1753TIP3    H226675   5.965   3.378   3.291  1.0171 -0.0065 -0.1057
 1754TIP3   OH226676   5.954   5.838  16.193 -0.5896 -0.0421 -0.3341
 1754TIP3    H126677   6.030   5.843  16.135 -1.0608 -1.1088 -1.0799
 1754TIP3    H226678   5.945   5.745  16.214 -2.2536 -0.0844 -1.0694
 1755TIP3   OH226679   2.812   1.574   1.745  0.4929  0.1466  0.2516
 1755TIP3    H126680   2.885   1.634   1.762  0.2118  0.8708 -0.9368
 1755TIP3    H226681   2.735   1.621   1.775  0.3931 -0.1108  0.3969
 1756TIP3   OH226682   6.810   4.386  16.591  0.2731  0.3878 -0.3745
 1756TIP3    H126683   6.861   4.409  16.668  0.6050  0.6675 -0.6731
 1756TIP3    H226684   6.735   4.337  16.625  0.7312 -0.0143  0.0684
 1757TIP3   OH226685   6.174   0.298   0.828 -0.5718  0.2765 -0.1354
 1757TIP3    H126686   6.090   0.262   0.798 -0.9129  1.4761 -0.6793
 1757TIP3    H226687   6.211   0.341   0.751  0.4042  0.0240  0.1817
 1758TIP3   OH226688   5.204   0.583   1.745  0.1138 -0.3612 -0.1945
 1758TIP3    H126689   5.247   0.598   1.660  0.2051  1.6990  0.1520
 1758TIP3    H226690   5.223   0.662   1.795 -0.7846 -1.1168  1.4019
 1759TIP3   OH226691   1.976   4.783  16.644  0.1284 -0.0528  0.5149
 1759TIP3    H126692   1.980   4.692  16.615 -1.4825 -0.3240  1.0641
 1759TIP3    H226693   2.064   4.817  16.628  1.1440 -2.0511  1.4813
 1760TIP3   OH226694   3.120   4.845  15.960 -0.4071  0.0856 -0.0023
 1760TIP3    H126695   3.134   4.815  15.870  0.0794  0.3286 -0.0129
 1760TIP3    H226696   3.106   4.940  15.952  0.8423  0.3116  0.2759
 1761TIP3   OH226697   3.017   4.664  14.169 -0.1827  0.0230  0.3271
 1761TIP3    H126698   2.967   4.743  14.150 -0.2028  0.0251  0.3850
 1761TIP3    H226699   2.952   4.603  14.204  0.1362  0.6354  2.1201
 1762TIP3   OH226700   0.590   4.353   2.542 -0.2354  0.3354 -0.3233
 1762TIP3    H126701   0.615   4.340   2.634  0.6773  0.8352 -0.4912
 1762TIP3    H226702   0.673   4.359   2.495 -0.6434 -2.2094 -1.5503
 1763TIP3   OH226703   3.564   0.046   1.038 -0.2516  0.4010  0.1332
 1763TIP3    H126704   3.580   0.139   1.051 -1.9968  0.7444  0.0588
 1763TIP3    H226705   3.499   0.022   1.103 -2.2688  0.0317 -1.8714
 1764TIP3   OH226706   4.630   6.735   0.835 -0.2289  0.4891 -0.1802
 1764TIP3    H126707   4.592   6.821   0.815 -0.3141  0.6796  0.7427
 1764TIP3    H226708   4.724   6.753   0.845 -0.0445  0.2214 -1.3447
 1765TIP3   OH226709   1.558   4.989   3.565 -0.3563  0.6249 -0.3379
 1765TIP3    H126710   1.464   4.991   3.548 -1.0676 -1.5864  2.5982
 1765TIP3    H226711   1.588   4.906   3.529 -0.3775 -0.4377  1.8952
 1766TIP3   OH226712   2.386   5.011   1.041 -0.3553 -0.4236 -0.1946
 1766TIP3    H126713   2.479   5.023   1.063 -0.2747 -1.0445 -0.1586
 1766TIP3    H226714   2.339   5.047   1.116 -0.1822  0.9749 -0.7341
 1767TIP3   OH226715   0.674   2.189  13.847  0.2927 -0.4739 -0.0483
 1767TIP3    H126716   0.634   2.104  13.862  0.6197 -1.1172 -2.4066
 1767TIP3    H226717   0.637   2.219  13.764  0.6085  1.4489  0.4525
 1768TIP3   OH226718   0.958   2.125   6.219 -0.0664 -0.5664 -0.5206
 1768TIP3    H126719   0.878   2.175   6.233  1.2418  1.3816  0.4258
 1768TIP3    H226720   0.933   2.035   6.239 -2.2609 -0.2083 -1.3131
 1769TIP3   OH226721   6.711   4.198  13.533 -0.2796 -0.3499 -0.2114
 1769TIP3    H126722   6.663   4.265  13.485 -0.3858 -0.8356 -0.7999
 1769TIP3    H226723   6.757   4.246  13.602 -1.2595  0.1752  0.0998
 1770TIP3   OH226724   5.100   5.534   0.172 -0.3317 -0.5811  0.1615
 1770TIP3    H126725   5.193   5.551   0.187 -0.3300  0.6865 -1.0620
 1770TIP3    H226726   5.056   5.577   0.245 -0.0200  0.1425 -0.0630
 1771TIP3   OH226727   1.729   5.386  16.310 -0.5250 -0.2486 -0.2505
 1771TIP3    H126728   1.705   5.429  16.228 -1.4101  2.7757  1.4454
 1771TIP3    H226729   1.663   5.317  16.321  0.1634 -1.3649 -2.4418
 1772TIP3   OH226730   5.651   3.090  12.888 -0.8379 -0.4317  0.4900
 1772TIP3    H126731   5.730   3.109  12.939 -0.8201 -0.1142  0.3432
 1772TIP3    H226732   5.646   2.994  12.888 -1.2857 -0.4383  1.7921
 1773TIP3   OH226733   1.773   0.172   5.056 -0.4264 -0.2552 -0.7725
 1773TIP3    H126734   1.695   0.136   5.013  0.6932 -1.6417 -1.7573
 1773TIP3    H226735   1.752   0.264   5.069 -2.0825 -0.4979 -1.3430
 1774TIP3   OH226736   2.554   1.680  10.300  0.1057  0.3552 -0.1287
 1774TIP3    H126737   2.607   1.611  10.260  0.2022  0.7209 -0.6362
 1774TIP3    H226738   2.475   1.635  10.330  1.7729 -0.7803  3.0839
 1775TIP3   OH226739   3.544   2.609   3.737 -0.0279 -0.6574  0.0941
 1775TIP3    H126740   3.601   2.665   3.684 -0.7305  0.3011  0.3505
 1775TIP3    H226741   3.476   2.667   3.770 -1.1638 -1.7792 -0.1973
 1776TIP3   OH226742   0.541   2.145  11.396  0.6607 -0.2078  0.0287
 1776TIP3    H126743   0.459   2.184  11.363  1.0786  0.4988 -0.2102
 1776TIP3    H226744   0.520   2.116  11.485 -0.0173 -0.6000 -0.2499
 1777TIP3   OH226745   6.261   1.317  14.548  0.5654  0.0876 -0.2654
 1777TIP3    H126746   6.297   1.346  14.632  0.6438  1.7136 -0.8263
 1777TIP3    H226747   6.167   1.330  14.556  0.7260  2.2345 -1.0848
 1778TIP3   OH226748   5.347   2.544  15.230 -0.5296  0.2139  0.3983
 1778TIP3    H126749   5.400   2.482  15.280 -1.1694  0.2673  1.1481
 1778TIP3    H226750   5.335   2.502  15.145  1.5362  0.6200 -0.1476
 1779TIP3   OH226751   4.504   0.970   5.368  0.2663 -0.6626 -0.0255
 1779TIP3    H126752   4.467   1.039   5.314  1.3717  0.8283  1.0176
 1779TIP3    H226753   4.584   0.944   5.322  1.8044  1.3712  1.2590
 1780TIP3   OH226754   3.783   0.634  10.925 -0.1264 -0.0991  1.1132
 1780TIP3    H126755   3.808   0.551  10.965  0.7635  0.2919  1.3929
 1780TIP3    H226756   3.861   0.662  10.876 -1.2413 -0.6849 -1.1440
 1781TIP3   OH226757   6.767   1.957   3.477 -0.4964  0.6818  0.0097
 1781TIP3    H126758   6.808   2.035   3.515 -0.0596 -0.0744  1.1450
 1781TIP3    H226759   6.761   1.976   3.383  4.2373  0.1210 -0.6234
 1782TIP3   OH226760   3.674   1.134  16.355  0.1451  0.0015  0.2947
 1782TIP3    H126761   3.737   1.105  16.421  0.4263  0.9033  0.4304
 1782TIP3    H226762   3.609   1.184  16.404 -0.4017 -0.4698  0.0742
 1783TIP3   OH226763   4.658   1.784   2.870 -0.3124  0.5375 -0.4199
 1783TIP3    H126764   4.580   1.729   2.872 -0.5282  0.8491  1.0702
 1783TIP3    H226765   4.713   1.745   2.803  0.7767 -3.2543  2.3569
 1784TIP3   OH226766   0.167   6.767   3.748  0.1732 -0.2402 -0.7971
 1784TIP3    H126767   0.232   6.699   3.728 -0.6325 -0.8730 -1.3013
 1784TIP3    H226768   0.124   6.784   3.664 -1.1449 -0.7038 -0.2358
 1785TIP3   OH226769   2.392   4.798   0.545 -0.8799  0.6170  0.1211
 1785TIP3    H126770   2.332   4.735   0.587 -1.1342  0.7883  0.0134
 1785TIP3    H226771   2.465   4.744   0.516 -1.2290  0.3224 -0.2276
 1786TIP3   OH226772   6.006   1.002  10.437  0.0783  0.0322  0.4014
 1786TIP3    H126773   5.999   0.915  10.400  2.3300  0.0182 -0.1048
 1786TIP3    H226774   6.072   1.047  10.384 -1.4302  2.2769  0.2626
 1787TIP3   OH226775   2.772   4.432   2.946 -0.0495  0.2642  0.4433
 1787TIP3    H126776   2.861   4.462   2.965  0.4263 -0.4538 -0.5049
 1787TIP3    H226777   2.771   4.341   2.976 -1.0049  0.7417  1.9532
 1788TIP3   OH226778   6.732   6.432  16.161 -0.0422 -0.4956  0.4252
 1788TIP3    H126779   6.713   6.449  16.253 -0.4265 -0.9371  0.4303
 1788TIP3    H226780   6.684   6.352  16.140  0.7870 -0.9186  0.0914
 1789TIP3   OH226781   2.308   4.841   4.916  0.1022 -0.1511 -0.1740
 1789TIP3    H126782   2.351   4.778   4.974  3.3428  1.3976 -0.6448
 1789TIP3    H226783   2.239   4.881   4.970  0.9504 -0.9487  1.5674
 1790TIP3   OH226784   2.451   2.440   3.110 -0.2719 -0.1156  0.2736
 1790TIP3    H126785   2.507   2.507   3.151 -1.9143  1.1852  0.4983
 1790TIP3    H226786   2.447   2.369   3.174  1.4740 -0.4569  0.0507
 1791TIP3   OH226787   0.068   0.174   3.047  0.4220 -0.1825 -0.1973
 1791TIP3    H126788   0.112   0.253   3.015  3.0530 -0.9809  1.1406
 1791TIP3    H226789   0.038   0.197   3.135  2.5943 -1.0025  0.8488
 1792TIP3   OH226790   6.332   3.552  14.914 -0.0882  0.0494 -0.9558
 1792TIP3    H126791   6.299   3.462  14.915 -0.4644  0.1572 -2.1646
 1792TIP3    H226792   6.255   3.605  14.933  0.1828  0.1245  0.0024
 1793TIP3   OH226793   5.136   0.799   5.947 -0.1500  0.1526  0.6128
 1793TIP3    H126794   5.159   0.730   5.884 -0.4086 -1.0109  1.7448
 1793TIP3    H226795   5.050   0.773   5.980 -0.0897  0.8175  1.3181
 1794TIP3   OH226796   2.583   4.555  12.857  0.5413  0.3189 -0.4690
 1794TIP3    H126797   2.637   4.478  12.843 -0.0085 -0.2628  0.4910
 1794TIP3    H226798   2.637   4.628  12.826  0.1080 -0.6194 -3.8033
 1795TIP3   OH226799   4.119   0.642  10.451  0.2328 -0.2492  0.0586
 1795TIP3    H126800   4.123   0.736  10.436  0.3104 -0.4255 -1.0983
 1795TIP3    H226801   4.026   0.621  10.444  0.0261 -0.0520  1.7828
 1796TIP3   OH226802   0.335   6.577   3.427  0.9813  0.4694  0.3586
 1796TIP3    H126803   0.358   6.660   3.469 -1.4437  0.7343  1.3859
 1796TIP3    H226804   0.289   6.528   3.496 -0.0665 -0.5461 -1.0038
 1797TIP3   OH226805   3.544   4.012   4.900 -0.6434 -0.2646 -0.1182
 1797TIP3    H126806   3.535   4.073   4.972  0.6338 -0.2906  0.0844
 1797TIP3    H226807   3.625   4.037   4.856 -0.5158 -1.2941 -0.5176
 1798TIP3   OH226808   2.038   2.645   1.571  0.3567  0.0710  0.3087
 1798TIP3    H126809   2.039   2.706   1.645 -1.9574  1.3410 -0.6008
 1798TIP3    H226810   1.958   2.594   1.584  0.3746 -0.2815 -0.8702
 1799TIP3   OH226811   5.096   4.099  12.332  0.2753 -0.5421 -0.3692
 1799TIP3    H126812   5.020   4.099  12.391  0.7102 -2.9044  0.3044
 1799TIP3    H226813   5.151   4.027  12.364  2.6957  0.9110 -1.0056
 1800TIP3   OH226814   4.498   3.939  14.723 -0.2422  0.6325 -0.5628
 1800TIP3    H126815   4.486   4.006  14.656 -2.3482  1.8437  0.8885
 1800TIP3    H226816   4.414   3.937  14.769  0.5180 -1.4563  0.8655
 1801TIP3   OH226817   0.597   2.431  10.826 -0.0738 -0.5431 -0.0039
 1801TIP3    H126818   0.687   2.440  10.858  0.3216  1.6262 -1.5149
 1801TIP3    H226819   0.543   2.433  10.905  1.1778 -2.3869  0.9661
 1802TIP3   OH226820   1.001   4.315  14.351  0.2434 -0.3255  0.2094
 1802TIP3    H126821   1.011   4.354  14.438 -1.2866 -1.1017  0.7744
 1802TIP3    H226822   1.072   4.353  14.299  1.2576  0.0689  1.8175
 1803TIP3   OH226823   2.222   5.828   1.352  0.3010 -0.4015 -0.2827
 1803TIP3    H126824   2.182   5.907   1.317  0.0452 -0.3952  0.0080
 1803TIP3    H226825   2.221   5.766   1.279  2.5993  0.5646 -1.2130
 1804TIP3   OH226826   3.240   2.206   3.596  0.1384  0.3410 -0.1904
 1804TIP3    H126827   3.313   2.248   3.640 -0.9645  1.3172  0.7635
 1804TIP3    H226828   3.186   2.170   3.667 -0.8734  0.6073 -0.7977
 1805TIP3   OH226829   2.148   3.556  13.937  0.8369 -0.1535  0.4444
 1805TIP3    H126830   2.203   3.590  13.866 -1.6673  0.5522 -1.3369
 1805TIP3    H226831   2.138   3.463  13.917  0.7514 -0.1141  0.3008
 1806TIP3   OH226832   3.387   2.388   5.713 -0.2207 -0.3140 -0.2893
 1806TIP3    H126833   3.362   2.470   5.757  1.0234 -0.0702 -0.0063
 1806TIP3    H226834   3.348   2.319   5.767  0.8719  0.0034  0.9374
 1807TIP3   OH226835   1.492   6.452  14.087 -0.4683 -0.0380  0.0140
 1807TIP3    H126836   1.496   6.436  14.181  0.1063 -1.5823 -0.2448
 1807TIP3    H226837   1.443   6.377  14.052  0.1259  0.0312 -1.0081
 1808TIP3   OH226838   5.933   1.023   0.036 -0.5965 -0.4346  0.5223
 1808TIP3    H126839   5.880   1.077   0.094  0.1875  2.0347 -0.8893
 1808TIP3    H226840   5.903   1.047  -0.052 -1.3641 -3.6342 -0.2091
 1809TIP3   OH226841   3.369   1.126   2.565  0.2429  0.0582 -0.1085
 1809TIP3    H126842   3.437   1.169   2.514 -1.1934  0.6001 -1.6706
 1809TIP3    H226843   3.347   1.188   2.634  2.9799 -1.1375  1.9938
 1810TIP3   OH226844   6.003   1.052   4.157 -0.0192 -0.3252 -0.3784
 1810TIP3    H126845   6.053   1.095   4.087  0.5534  0.3120  0.4139
 1810TIP3    H226846   5.929   1.011   4.111  0.1153  0.4347 -1.3075
 1811TIP3   OH226847   5.377   2.063   3.030 -0.2340 -0.2527 -0.4147
 1811TIP3    H126848   5.286   2.062   2.999  0.2260 -0.9800 -1.8295
 1811TIP3    H226849   5.400   1.970   3.038  0.4047 -0.0678 -0.1056
 1812TIP3   OH226850   0.444   0.942  10.965 -0.3125  0.1567  0.2364
 1812TIP3    H126851   0.530   0.922  11.001 -0.1053 -0.2316 -0.4557
 1812TIP3    H226852   0.453   0.926  10.872 -0.6694  1.7121 -0.1034
 1813TIP3   OH226853   1.872   5.353   4.325  0.3029  0.2533  0.9993
 1813TIP3    H126854   1.909   5.357   4.413 -1.0084 -1.3454  1.6746
 1813TIP3    H226855   1.798   5.293   4.333 -1.2804  1.8338 -0.6852
 1814TIP3   OH226856   2.614   4.616   1.538  0.3074  0.6248 -0.3466
 1814TIP3    H126857   2.557   4.653   1.605  0.8561  0.4702  0.2109
 1814TIP3    H226858   2.612   4.680   1.467 -1.4018  0.1339 -0.8004
 1815TIP3   OH226859   1.053   3.592   3.342  0.0222 -0.2241  0.2834
 1815TIP3    H126860   1.051   3.555   3.253  0.1418 -0.3588  0.3375
 1815TIP3    H226861   1.133   3.558   3.381 -0.4601 -0.8630  0.7426
 1816TIP3   OH226862   1.811   3.462   3.441 -0.2401  0.4983 -0.4153
 1816TIP3    H126863   1.733   3.511   3.465 -0.1524  0.8839 -0.8977
 1816TIP3    H226864   1.814   3.467   3.346 -0.0086 -0.1058 -0.4399
 1817TIP3   OH226865   5.335   5.050  14.851  0.3012  0.0164 -0.1298
 1817TIP3    H126866   5.255   5.103  14.843  0.3891  0.0308 -1.1135
 1817TIP3    H226867   5.346   5.012  14.764 -0.4804 -2.6912  0.8506
 1818TIP3   OH226868   0.960   5.529  15.309  0.1853 -0.2450  0.2099
 1818TIP3    H126869   0.985   5.442  15.280  0.8731  0.5854 -1.9275
 1818TIP3    H226870   0.875   5.518  15.350 -0.5701 -1.6921 -1.6095
 1819TIP3   OH226871   5.756   4.220  12.799  0.5526 -0.3161  0.3085
 1819TIP3    H126872   5.804   4.225  12.716 -0.7967  2.1537 -0.4496
 1819TIP3    H226873   5.681   4.164  12.780  0.2734  0.2036 -0.1721
 1820TIP3   OH226874   0.086   2.385  11.413  0.2438 -0.0223 -0.0787
 1820TIP3    H126875   0.043   2.470  11.416  0.8155  0.3465 -1.6235
 1820TIP3    H226876   0.179   2.404  11.424  0.4307 -0.3963 -0.9655
 1821TIP3   OH226877   4.507   2.211  15.023  0.0787  0.0464  0.5369
 1821TIP3    H126878   4.455   2.184  14.948  0.1176  1.2043  0.0846
 1821TIP3    H226879   4.580   2.149  15.025 -1.5957 -2.0425  1.5851
 1822TIP3   OH226880   3.408   2.627  15.000 -0.5285 -0.4286 -1.0070
 1822TIP3    H126881   3.357   2.631  14.919 -0.9112 -1.5680 -0.8391
 1822TIP3    H226882   3.346   2.596  15.066 -0.2091  0.4445 -0.2750
 1823TIP3   OH226883   6.250   3.249   4.208 -0.3228  0.1228  0.2355
 1823TIP3    H126884   6.160   3.218   4.213 -0.6231  1.0395  0.8161
 1823TIP3    H226885   6.258   3.312   4.280  0.9696 -0.4112  0.5917
 1824TIP3   OH226886   4.599   4.891   2.886  0.0304 -0.0570  0.2413
 1824TIP3    H126887   4.534   4.961   2.897  1.9109  2.2239 -1.9443
 1824TIP3    H226888   4.634   4.876   2.974 -1.4194  0.7075  0.9747
 1825TIP3   OH226889   4.617   4.748   1.724  0.3438 -0.6015  0.1998
 1825TIP3    H126890   4.637   4.840   1.739  2.1187 -1.3983  3.8574
 1825TIP3    H226891   4.546   4.728   1.785 -0.5027 -1.5343 -1.0402
 1826TIP3   OH226892   6.422   3.538  11.335  0.3063 -0.5023  0.0583
 1826TIP3    H126893   6.388   3.618  11.295  0.8886 -1.1450 -1.8322
 1826TIP3    H226894   6.430   3.559  11.428 -1.3975  0.9814 -0.0734
 1827TIP3   OH226895   5.597   3.633   3.696  0.1288  0.0029  0.7963
 1827TIP3    H126896   5.543   3.606   3.623 -0.8491 -2.0315  2.1772
 1827TIP3    H226897   5.663   3.564   3.705  0.4095  0.3581  1.6439
 1828TIP3   OH226898   3.055   5.148  13.992 -0.1220  0.0001 -0.0013
 1828TIP3    H126899   3.088   5.078  13.936 -0.6007  0.1195 -0.4434
 1828TIP3    H226900   2.984   5.188  13.942 -1.0917 -0.3985  0.9988
 1829TIP3   OH226901   1.235   0.202  10.583  0.0951  0.5668 -0.3527
 1829TIP3    H126902   1.279   0.277  10.543  0.3521  1.5527  1.6760
 1829TIP3    H226903   1.300   0.166  10.643 -0.2472 -0.9306 -0.8370
 1830TIP3   OH226904   3.992   0.494   5.632 -0.2340 -0.0116 -0.0834
 1830TIP3    H126905   4.081   0.471   5.660  0.0524 -0.0244 -0.9585
 1830TIP3    H226906   4.003   0.575   5.582 -0.8902  0.6499  0.7990
 1831TIP3   OH226907   0.704   6.134  12.061 -0.0121  0.0027  0.3690
 1831TIP3    H126908   0.679   6.128  12.153  0.5477 -0.0511  0.5199
 1831TIP3    H226909   0.796   6.159  12.063  0.0125 -0.0378 -0.1784
 1832TIP3   OH226910   6.208   4.821  12.722 -0.5719 -0.0075  0.1077
 1832TIP3    H126911   6.133   4.874  12.750  0.5795  1.5139  0.4500
 1832TIP3    H226912   6.282   4.857  12.771  0.5912 -0.7102 -1.0766
 1833TIP3   OH226913   2.930   6.821  12.365  0.4305 -0.3082  0.0489
 1833TIP3    H126914   2.843   6.857  12.349  0.4568 -0.4911 -0.5078
 1833TIP3    H226915   2.989   6.894  12.351  0.3850 -0.2446  0.1889
 1834TIP3   OH226916   4.934   4.054  10.763  0.0345 -0.1536 -0.1991
 1834TIP3    H126917   5.021   4.060  10.802 -1.0374  1.6113  2.1568
 1834TIP3    H226918   4.879   4.014  10.831 -1.4594  0.8738 -0.7459
 1835TIP3   OH226919   0.719   6.811   1.973 -0.0032  0.0415 -0.1248
 1835TIP3    H126920   0.805   6.818   2.015 -0.1684  0.5191  0.1397
 1835TIP3    H226921   0.685   6.726   2.002 -0.6357  0.8745  1.7333
 1836TIP3   OH226922   1.922   3.740   0.011 -0.2956 -0.1871  0.0295
 1836TIP3    H126923   1.830   3.764   0.018 -0.4012 -0.7249  0.4839
 1836TIP3    H226924   1.959   3.757   0.098  0.4631  1.7373 -0.6065
 1837TIP3   OH226925   2.621   6.063  13.997 -0.3182  0.2550  0.1282
 1837TIP3    H126926   2.625   5.980  14.045 -1.1162  1.1419  1.8321
 1837TIP3    H226927   2.694   6.114  14.030 -1.0424  0.9876  0.6552
 1838TIP3   OH226928   3.827   6.748   0.597 -0.0646  0.1794 -0.0556
 1838TIP3    H126929   3.904   6.805   0.600  0.1039  0.0398 -1.1002
 1838TIP3    H226930   3.855   6.666   0.639  0.9815 -0.5357 -2.0142
 1839TIP3   OH226931   6.634   4.354   1.520  0.5550 -0.0493  0.1821
 1839TIP3    H126932   6.605   4.313   1.601 -1.7181  1.3926  0.1818
 1839TIP3    H226933   6.690   4.426   1.548 -1.7129  1.6385  0.7072
 1840TIP3   OH226934   5.918   1.899  16.785 -0.3260 -0.4028  0.3621
 1840TIP3    H126935   5.987   1.966  16.786 -0.1297 -0.5149  3.2318
 1840TIP3    H226936   5.949   1.831  16.845 -2.4020 -1.0038  0.8388
 1841TIP3   OH226937   6.187   5.883  16.080 -0.0325  0.4479  0.1168
 1841TIP3    H126938   6.279   5.869  16.105  1.3727  1.8272 -3.6452
 1841TIP3    H226939   6.177   5.978  16.079 -1.6504  0.3156  0.6971
 1842TIP3   OH226940   6.345   0.789  10.184 -0.0277 -0.0055  0.4141
 1842TIP3    H126941   6.399   0.723  10.141  1.6543  1.3701  0.2891
 1842TIP3    H226942   6.270   0.741  10.217  0.7901 -1.8485 -0.2683
 1843TIP3   OH226943   0.834   0.287  11.119  0.5972  0.2669  0.1087
 1843TIP3    H126944   0.860   0.216  11.177 -0.1222 -0.1599 -0.0819
 1843TIP3    H226945   0.744   0.308  11.145  0.1559 -0.1230 -1.0231
 1844TIP3   OH226946   4.110   3.734  13.513 -0.7773 -0.4089  0.5117
 1844TIP3    H126947   4.130   3.724  13.606  1.0333  0.5955  0.2755
 1844TIP3    H226948   4.161   3.665  13.470  0.1467  0.4943  0.1099
 1845TIP3   OH226949   6.664   2.578  16.197 -0.1356 -0.0151  0.1257
 1845TIP3    H126950   6.723   2.506  16.218 -1.1989 -0.4476  1.7972
 1845TIP3    H226951   6.623   2.552  16.114 -0.3490 -1.2534  0.6034
 1846TIP3   OH226952   1.339   6.662  14.178 -0.4034  0.0740 -0.0944
 1846TIP3    H126953   1.321   6.579  14.133 -0.5248  0.2273 -0.3346
 1846TIP3    H226954   1.430   6.682  14.155  0.0149 -0.5872  0.9372
 1847TIP3   OH226955   2.315   2.459   0.999 -0.3476  0.1376  0.1585
 1847TIP3    H126956   2.272   2.374   1.003 -0.9073  0.4505  1.1699
 1847TIP3    H226957   2.262   2.516   1.055  0.9720  0.7219  0.8642
 1848TIP3   OH226958   0.399   1.188   4.695 -0.0152 -0.6428 -0.0761
 1848TIP3    H126959   0.330   1.208   4.632 -0.4029 -1.3642  0.1060
 1848TIP3    H226960   0.420   1.272   4.736  0.2765 -0.1597 -1.1947
 1849TIP3   OH226961   4.395   5.186  10.336  0.4311 -0.1640  0.3389
 1849TIP3    H126962   4.339   5.211  10.263  0.9007  1.2481  0.4403
 1849TIP3    H226963   4.377   5.251  10.404 -0.4283 -1.7495  1.7416
 1850TIP3   OH226964   0.242   5.985   3.684 -0.0958  0.4542 -0.1251
 1850TIP3    H126965   0.282   5.983   3.597 -1.6015 -0.2492 -0.8407
 1850TIP3    H226966   0.253   6.076   3.713 -0.8267  1.0796 -1.6825
 1851TIP3   OH226967   5.785   2.813   3.561  0.4406  0.2453  1.4293
 1851TIP3    H126968   5.766   2.721   3.579  0.3818 -0.0645 -0.0653
 1851TIP3    H226969   5.700   2.856   3.559  0.4413  0.2627  1.7903
 1852TIP3   OH226970   3.560   5.049   2.487 -0.0341  0.1067  0.7667
 1852TIP3    H126971   3.507   4.987   2.538 -0.5390  0.2393  0.4115
 1852TIP3    H226972   3.629   4.995   2.448  0.2329 -0.0297  1.4213
 1853TIP3   OH226973   1.055   6.381  13.447 -0.3956  0.5095  0.4121
 1853TIP3    H126974   1.147   6.361  13.462 -0.1003  0.6920 -1.0391
 1853TIP3    H226975   1.007   6.316  13.498  0.5268  0.4522  1.2228
 1854TIP3   OH226976   5.036   3.598   5.950  0.1140 -0.6488  0.2878
 1854TIP3    H126977   4.987   3.611   6.031  0.5076  0.8081  0.3208
 1854TIP3    H226978   4.974   3.555   5.891 -0.0467 -2.1341  1.4653
 1855TIP3   OH226979   1.483   6.531   5.390  0.6344  0.0678  0.1100
 1855TIP3    H126980   1.535   6.512   5.469  1.5234 -1.0588 -0.7105
 1855TIP3    H226981   1.535   6.596   5.343 -0.0153  0.9252  0.5280
 1856TIP3   OH226982   5.678   0.129  14.698 -0.1133 -0.4028  0.0735
 1856TIP3    H126983   5.673   0.217  14.660  1.2343 -0.3682 -0.0858
 1856TIP3    H226984   5.667   0.142  14.792  1.4388  0.1175  0.2019
 1857TIP3   OH226985   3.644   0.239  16.631 -0.0742  0.4645 -0.2596
 1857TIP3    H126986   3.568   0.217  16.684  0.9274 -1.1175  0.5940
 1857TIP3    H226987   3.701   0.162  16.638  0.2772  0.3136 -3.3390
 1858TIP3   OH226988   2.934   3.247  10.232 -0.2229 -0.4161  0.6973
 1858TIP3    H126989   2.985   3.167  10.216 -1.2975 -0.6459 -2.2388
 1858TIP3    H226990   2.861   3.219  10.287 -1.6779 -2.0295 -1.8698
 1859TIP3   OH226991   5.806   6.270   3.536  0.6613  0.2396  0.3115
 1859TIP3    H126992   5.730   6.233   3.580 -0.8217  1.7691 -0.8612
 1859TIP3    H226993   5.820   6.213   3.460  2.2192 -1.4336  1.7543
 1860TIP3   OH226994   1.070   4.624  13.557  0.4359  0.1879  0.1764
 1860TIP3    H126995   1.115   4.548  13.519 -0.5505  0.0642 -0.8230
 1860TIP3    H226996   1.076   4.611  13.651  0.1599 -1.2314  0.0277
 1861TIP3   OH226997   5.822   5.601  12.422  0.1338  0.3010  0.2696
 1861TIP3    H126998   5.796   5.585  12.512  2.0948 -1.1456  0.6352
 1861TIP3    H226999   5.739   5.614  12.375 -0.9477  0.4857  2.1350
 1862TIP3   OH227000   3.922   6.424   5.929  0.1417  0.0640 -0.7347
 1862TIP3    H127001   3.867   6.347   5.918  1.9618 -1.1402 -1.7130
 1862TIP3    H227002   4.005   6.391   5.963  1.8780  1.1572 -3.5321
 1863TIP3   OH227003   5.546   5.445  11.348  0.5423 -0.3657 -0.3985
 1863TIP3    H127004   5.531   5.465  11.440  0.8896 -2.9219  0.2973
 1863TIP3    H227005   5.493   5.510  11.300 -1.5924 -0.4538  1.6435
 1864TIP3   OH227006   5.973   5.173   3.497  0.1661 -0.1341  0.1317
 1864TIP3    H127007   6.054   5.196   3.543  0.1216  0.2693  0.0140
 1864TIP3    H227008   5.997   5.174   3.405  0.6023 -2.3088  0.1796
 1865TIP3   OH227009   3.788   4.750   1.544 -0.0787  0.0131  0.0267
 1865TIP3    H127010   3.881   4.757   1.563 -0.2589 -1.3253  1.5773
 1865TIP3    H227011   3.746   4.736   1.629 -1.4877 -1.1510 -0.7923
 1866TIP3   OH227012   6.672   3.807  14.452  0.7481 -0.1254  0.1962
 1866TIP3    H127013   6.638   3.733  14.502  1.5444  0.0560  1.0384
 1866TIP3    H227014   6.687   3.876  14.517 -0.0344  0.8163 -0.5756
 1867TIP3   OH227015   5.623   4.081   4.143  0.8734 -0.1252  0.3912
 1867TIP3    H127016   5.623   4.133   4.224 -0.7952  1.2872 -0.4419
 1867TIP3    H227017   5.602   3.992   4.172 -2.0687  0.7656  1.3756
 1868TIP3   OH227018   4.576   5.958  12.785  0.3563 -0.4333  0.4829
 1868TIP3    H127019   4.507   6.024  12.777 -0.5617 -1.5490 -1.8331
 1868TIP3    H227020   4.555   5.909  12.863 -0.6797  0.1229  0.5653
 1869TIP3   OH227021   2.119   0.843   5.317  0.6990  0.2394 -0.2405
 1869TIP3    H127022   2.063   0.916   5.290  1.0717  0.1595 -1.2766
 1869TIP3    H227023   2.069   0.765   5.293  1.5464  0.1667 -1.8560
 1870TIP3   OH227024   0.875   2.083   1.807 -0.1412  0.4016 -0.1318
 1870TIP3    H127025   0.826   2.102   1.727 -1.0713  1.0842  0.5822
 1870TIP3    H227026   0.892   1.989   1.803 -1.4010  0.1659 -0.4699
 1871TIP3   OH227027   6.456   1.765  16.817 -0.2648  0.0598  0.2438
 1871TIP3    H127028   6.475   1.701  16.886  0.0067 -0.2565 -0.1253
 1871TIP3    H227029   6.497   1.846  16.848  2.1239 -0.6928 -0.7232
 1872TIP3   OH227030   5.704   4.177  10.383  0.3869  0.1615  0.5231
 1872TIP3    H127031   5.638   4.173  10.452 -0.7714  1.5185 -0.4387
 1872TIP3    H227032   5.781   4.215  10.425 -0.7308  2.2395  0.8377
 1873TIP3   OH227033   3.406   1.944   3.271  0.1511  0.0731  0.6195
 1873TIP3    H127034   3.329   1.996   3.297  0.4078  0.6270  0.2930
 1873TIP3    H227035   3.434   1.902   3.352 -2.6406 -3.1145  0.1389
 1874TIP3   OH227036   5.005   6.509  13.506 -0.1173  0.9374 -0.0721
 1874TIP3    H127037   5.097   6.521  13.480  0.2362  1.3124  1.2770
 1874TIP3    H227038   4.972   6.443  13.445  1.4074 -0.1231  0.1647
 1875TIP3   OH227039   3.374   5.073  10.471  0.1666 -0.0085  0.0727
 1875TIP3    H127040   3.354   4.980  10.473  1.3974 -0.2860  0.6422
 1875TIP3    H227041   3.449   5.083  10.531 -1.2467  1.6894  1.6742
 1876TIP3   OH227042   0.697   4.344   3.727 -0.5549 -0.0788 -0.5073
 1876TIP3    H127043   0.773   4.354   3.669  0.9704 -2.3378  0.9735
 1876TIP3    H227044   0.713   4.407   3.798  0.7893 -1.5505  0.5695
 1877TIP3   OH227045   2.483   6.303   1.876  0.4579  0.3122 -0.3529
 1877TIP3    H127046   2.430   6.381   1.858  1.2475  1.2064  0.9638
 1877TIP3    H227047   2.419   6.237   1.902 -0.0682  1.4710  1.5425
 1878TIP3   OH227048   3.286   6.454   3.719  0.2916  0.1150  0.3460
 1878TIP3    H127049   3.203   6.466   3.672  0.2304  0.4356  0.5306
 1878TIP3    H227050   3.288   6.361   3.740 -0.4001  0.2363  1.0201
 1879TIP3   OH227051   0.902   2.427   1.746  0.2462  0.4605 -0.4572
 1879TIP3    H127052   0.929   2.377   1.669  2.5123  1.1234 -0.1767
 1879TIP3    H227053   0.966   2.404   1.813 -0.7657  1.0711  0.7701
 1880TIP3   OH227054   6.644   4.700   1.456  0.3716  0.1227  0.0593
 1880TIP3    H127055   6.620   4.659   1.373 -0.9530 -0.4335  0.6859
 1880TIP3    H227056   6.624   4.793   1.444  1.3521  0.2580 -0.6415
 1881TIP3   OH227057   3.064   3.939   0.945  0.0966  0.3782 -0.3100
 1881TIP3    H127058   3.041   4.031   0.961  2.9656  0.9317  1.4219
 1881TIP3    H227059   3.113   3.941   0.863 -1.8527 -0.0694 -1.5513
 1882TIP3   OH227060   2.028   6.513   0.214  0.4088 -0.0658  0.3245
 1882TIP3    H127061   2.013   6.453   0.140 -0.2055 -1.7162  1.7344
 1882TIP3    H227062   2.061   6.457   0.284 -1.4056  1.0143  2.1163
 1883TIP3   OH227063   6.727   3.499   5.505 -0.2153  0.0692 -0.0256
 1883TIP3    H127064   6.731   3.484   5.410 -1.0895  2.4901 -0.5030
 1883TIP3    H227065   6.802   3.556   5.523  0.8875 -1.6252  1.0819
 1884TIP3   OH227066   0.275   4.294   3.226  0.3781  0.1358  0.1001
 1884TIP3    H127067   0.185   4.275   3.255  0.3226 -0.6012 -0.5095
 1884TIP3    H227068   0.328   4.226   3.268  0.9042  1.4481  1.6809
 1885TIP3   OH227069   1.843   1.882  12.906 -0.5941  0.2655 -0.3685
 1885TIP3    H127070   1.805   1.837  12.982 -0.8436  1.2487  0.1091
 1885TIP3    H227071   1.890   1.814  12.859  0.6838 -0.1376  1.3771
 1886TIP3   OH227072   2.848   2.087   5.320  0.0319 -0.1347 -0.0746
 1886TIP3    H127073   2.880   2.139   5.246  0.3330  0.8824  0.7473
 1886TIP3    H227074   2.753   2.098   5.317  0.1880  2.0791  1.1923
 1887TIP3   OH227075   5.360   5.329   3.820 -0.0188  0.4731  0.4436
 1887TIP3    H127076   5.288   5.345   3.881 -0.7333  1.7263 -0.6826
 1887TIP3    H227077   5.325   5.264   3.759  0.0029  0.6675  0.2240
 1888TIP3   OH227078   4.367   4.307  11.678 -0.2733  0.4572  0.1353
 1888TIP3    H127079   4.324   4.224  11.697  2.2465 -1.1649 -0.6858
 1888TIP3    H227080   4.391   4.301  11.585  2.0550  0.9835  0.6240
 1889TIP3   OH227081   2.995   4.457  16.070  0.4749 -0.5212  0.2702
 1889TIP3    H127082   2.949   4.531  16.030  1.3813 -0.2946 -0.3719
 1889TIP3    H227083   2.954   4.447  16.156 -0.9353 -0.4759 -0.3617
 1890TIP3   OH227084   1.626   2.698   5.683  0.1145 -0.2893  0.3928
 1890TIP3    H127085   1.612   2.686   5.777  0.9477 -1.2408  0.4130
 1890TIP3    H227086   1.561   2.640   5.642  0.1633 -0.3440  0.3927
 1891TIP3   OH227087   0.024   3.288   5.174 -0.2293 -0.2269 -0.5456
 1891TIP3    H127088   0.062   3.376   5.168  1.1115 -0.8734 -3.0361
 1891TIP3    H227089  -0.067   3.299   5.147 -0.1805  0.4622 -0.4319
 1892TIP3   OH227090   0.266   2.207  14.371 -0.8691  0.3610  0.0652
 1892TIP3    H127091   0.314   2.278  14.329 -0.0069 -0.7155 -0.8234
 1892TIP3    H227092   0.191   2.192  14.314 -0.0600 -0.6480 -0.7750
 1893TIP3   OH227093   4.860   3.240   4.351  0.0332 -0.0882  0.7702
 1893TIP3    H127094   4.844   3.334   4.358 -0.1136 -0.1641  1.4540
 1893TIP3    H227095   4.774   3.202   4.334  0.0161 -0.1529  1.0068
 1894TIP3   OH227096   2.134   6.248   1.805 -0.1924  0.5879  0.4586
 1894TIP3    H127097   2.097   6.159   1.801  0.0546  0.4560  1.0877
 1894TIP3    H227098   2.187   6.254   1.726 -1.5293  0.7756 -0.4594
 1895TIP3   OH227099   5.716   6.246  14.648  0.2831 -0.4035 -0.0188
 1895TIP3    H127100   5.675   6.261  14.563 -1.5161  1.0181  1.0254
 1895TIP3    H227101   5.709   6.151  14.661 -0.9767 -0.4356 -0.7312
 1896TIP3   OH227102   1.415   3.413   0.705 -0.0863  0.3055  0.0525
 1896TIP3    H127103   1.371   3.435   0.787  0.5275  1.0927  0.1848
 1896TIP3    H227104   1.507   3.434   0.721  0.0957  0.1188 -0.7152
 1897TIP3   OH227105   5.399   5.007   0.118 -0.1156 -0.2246  0.1177
 1897TIP3    H127106   5.434   4.933   0.168  0.3953 -1.1711 -1.5357
 1897TIP3    H227107   5.372   4.969   0.034  1.2040  1.6052 -1.2387
 1898TIP3   OH227108   1.931   2.051   0.406 -0.2294  0.1351 -0.0102
 1898TIP3    H127109   1.850   2.002   0.416  1.5388 -2.6106  2.3132
 1898TIP3    H227110   1.969   2.018   0.324 -0.2282 -0.6124  0.2799
 1899TIP3   OH227111   2.460   3.925   2.552  0.7819  0.2547 -0.1184
 1899TIP3    H127112   2.399   3.997   2.534  0.7419  0.5322  1.0295
 1899TIP3    H227113   2.422   3.880   2.627  1.7755  0.1818  0.3516
 1900TIP3   OH227114   3.863   5.546   1.019 -0.3692  0.3697 -0.0929
 1900TIP3    H127115   3.808   5.581   0.949  0.6337  0.1853 -0.9947
 1900TIP3    H227116   3.878   5.455   0.994  0.1462  0.3553  0.2707
 1901TIP3   OH227117   1.894   0.398   2.392  0.4048 -0.3471  0.0367
 1901TIP3    H127118   1.989   0.404   2.383  0.7096 -0.5759  2.5613
 1901TIP3    H227119   1.879   0.322   2.448 -1.4490 -1.7246 -2.1377
 1902TIP3   OH227120   6.759   0.042   0.746  0.4624 -0.3358  0.0702
 1902TIP3    H127121   6.819  -0.002   0.805  0.1160 -0.6766  0.1755
 1902TIP3    H227122   6.719  -0.029   0.694 -0.6128 -0.2310  0.7164
 1903TIP3   OH227123   0.054   5.515   2.574 -0.0051  0.3969  0.7636
 1903TIP3    H127124   0.106   5.453   2.523  1.5029  1.2677  1.1935
 1903TIP3    H227125  -0.027   5.525   2.524  0.1239 -1.1557  0.1880
 1904TIP3   OH227126   3.652   3.603   1.746  0.4686  0.1413  0.8367
 1904TIP3    H127127   3.607   3.520   1.759 -0.1291  0.4266  0.6070
 1904TIP3    H227128   3.597   3.668   1.789 -0.6390  0.8487 -1.4773
 1905TIP3   OH227129   0.867   3.642   5.467  0.2990 -0.3705 -0.2967
 1905TIP3    H127130   0.859   3.570   5.404 -0.1563  0.3081 -1.0350
 1905TIP3    H227131   0.823   3.716   5.425 -1.1148 -0.2039  1.3242
 1906TIP3   OH227132   2.233   0.197  14.129  0.7582  0.2239  0.1080
 1906TIP3    H127133   2.150   0.221  14.086  0.9803  0.7472 -0.0332
 1906TIP3    H227134   2.296   0.262  14.098  1.0034  0.4077  0.9562
 1907TIP3   OH227135   3.073   5.094   0.032 -0.2247 -0.2040  0.1256
 1907TIP3    H127136   3.008   5.045   0.081 -1.5190  1.5766  0.2898
 1907TIP3    H227137   3.145   5.107   0.094 -0.8879  0.1110  0.8534
 1908TIP3   OH227138   6.405   0.455  10.920  0.0775 -0.1773 -0.0242
 1908TIP3    H127139   6.429   0.515  10.849  1.1486 -3.0699 -2.3559
 1908TIP3    H227140   6.486   0.409  10.941 -0.6074 -0.5988  1.9275
 1909TIP3   OH227141   5.404   4.395  11.609  0.2356 -0.2121  0.0337
 1909TIP3    H127142   5.488   4.364  11.575  0.4004  0.6102 -0.3433
 1909TIP3    H227143   5.384   4.472  11.556 -0.9212 -0.5837 -0.0912
 1910TIP3   OH227144   5.277   6.134  16.946 -0.6024 -0.4178 -0.0794
 1910TIP3    H127145   5.354   6.077  16.942 -0.3847 -0.0684 -0.8751
 1910TIP3    H227146   5.225   6.098  17.019  0.5474 -0.3439  0.8119
 1911TIP3   OH227147   3.284   4.818   6.113 -1.0323  0.0205  0.3189
 1911TIP3    H127148   3.236   4.791   6.035  0.6391 -0.0690 -0.7373
 1911TIP3    H227149   3.338   4.743   6.136 -1.0609  0.2571  1.2120
 1912TIP3   OH227150   0.567   2.925  13.855  0.1704 -0.3791  0.8091
 1912TIP3    H127151   0.563   2.854  13.791 -0.9291  1.2206 -1.0020
 1912TIP3    H227152   0.496   2.905  13.917 -0.0152 -0.9504  0.4254
 1913TIP3   OH227153   6.481   3.974   2.783 -0.5231  0.4210  0.5819
 1913TIP3    H127154   6.400   3.981   2.732 -0.6289 -0.1660  0.6632
 1913TIP3    H227155   6.458   3.918   2.857  0.5497 -1.7665 -0.6437
 1914TIP3   OH227156   0.106   1.654   0.042 -0.0587 -0.5542 -0.1657
 1914TIP3    H127157   0.074   1.599   0.114  1.1058 -1.8536 -0.5923
 1914TIP3    H227158   0.130   1.592  -0.027 -1.7269  0.6717 -1.9685
 1915TIP3   OH227159   2.428   2.852  13.539  0.2408 -0.0198 -0.6309
 1915TIP3    H127160   2.423   2.756  13.546 -0.0987 -0.0143 -0.7797
 1915TIP3    H227161   2.437   2.882  13.629 -2.4675 -0.0376 -0.2871
 1916TIP3   OH227162   4.630   3.419   5.612  0.0263 -0.4679 -0.0359
 1916TIP3    H127163   4.643   3.465   5.529 -0.7172 -1.4795 -0.7333
 1916TIP3    H227164   4.542   3.445   5.640  0.6266  0.6154  0.9463
 1917TIP3   OH227165   1.545   0.409   5.991 -0.0543 -0.3995 -0.3938
 1917TIP3    H127166   1.607   0.343   5.960  1.8045  0.7073  0.7160
 1917TIP3    H227167   1.555   0.409   6.086 -0.9300  0.6070 -0.2749
 1918TIP3   OH227168   0.439   0.901  16.774 -0.1596 -0.1909  0.1900
 1918TIP3    H127169   0.421   0.834  16.708  0.2472  0.3301 -0.4613
 1918TIP3    H227170   0.365   0.896  16.833 -1.7528  0.9056 -1.6090
 1919TIP3   OH227171   0.354   5.532  11.269 -0.5373 -0.1797  0.0015
 1919TIP3    H127172   0.347   5.611  11.214  0.8862  0.1186  0.2062
 1919TIP3    H227173   0.407   5.560  11.344  2.3462 -1.9356 -1.2049
 1920TIP3   OH227174   1.508   3.516  12.010  0.7657  0.5681  0.3717
 1920TIP3    H127175   1.526   3.436  12.060  0.3415  0.5506  0.5071
 1920TIP3    H227176   1.562   3.508  11.931 -0.0851 -0.3872 -0.1484
 1921TIP3   OH227177   4.360   5.341   2.695 -0.3080  0.2085  0.1810
 1921TIP3    H127178   4.412   5.365   2.772 -1.9459  0.3898  1.2895
 1921TIP3    H227179   4.274   5.318   2.731 -0.1351 -3.1897 -1.2511
 1922TIP3   OH227180   2.184   2.247  13.222 -0.6436  0.1449  0.2852
 1922TIP3    H127181   2.177   2.170  13.278 -0.8276 -0.7673 -0.9462
 1922TIP3    H227182   2.183   2.212  13.133 -3.2141  1.6981 -0.4249
 1923TIP3   OH227183   3.097   4.104  15.451  0.3446 -0.0710  0.0883
 1923TIP3    H127184   3.137   4.017  15.442 -2.2192 -1.4155  0.7538
 1923TIP3    H227185   3.014   4.097  15.403  1.1214  2.8551 -1.9929
 1924TIP3   OH227186   2.981   5.076  13.583 -0.9266 -0.1562 -0.0258
 1924TIP3    H127187   2.987   5.059  13.489  3.7572 -2.7013  0.4190
 1924TIP3    H227188   2.910   5.019  13.613 -2.4151  0.5965 -1.9141
 1925TIP3   OH227189   2.535   0.403  16.593 -0.0085 -0.4740 -0.3853
 1925TIP3    H127190   2.456   0.432  16.549  0.4152  1.1468 -0.1501
 1925TIP3    H227191   2.517   0.416  16.687 -0.1320 -1.8738 -0.2003
 1926TIP3   OH227192   3.751   4.966   4.747 -0.1015  0.0218  0.2557
 1926TIP3    H127193   3.818   4.945   4.681  0.4455  2.2809  0.0216
 1926TIP3    H227194   3.716   5.051   4.720 -1.8651 -0.3105  1.3551
 1927TIP3   OH227195   4.285   1.465   5.492  0.1355  0.2818  0.2256
 1927TIP3    H127196   4.301   1.549   5.447  0.9301 -0.0871 -0.2070
 1927TIP3    H227197   4.218   1.422   5.439  2.9698 -1.3698 -2.3869
 1928TIP3   OH227198   4.861   5.567   4.621  0.6285  0.2938  0.6171
 1928TIP3    H127199   4.875   5.662   4.611  1.1884  0.1692  0.1753
 1928TIP3    H227200   4.782   5.561   4.674 -0.3189  1.0138 -0.6483
 1929TIP3   OH227201   0.431   3.112  11.043  0.0853  0.3880  0.0805
 1929TIP3    H127202   0.442   3.185  10.982 -0.5416  0.6723  0.3042
 1929TIP3    H227203   0.521   3.081  11.059  0.2877  0.5293 -0.7065
 1930TIP3   OH227204   1.424   2.184   6.329  0.4418  0.4327 -0.1322
 1930TIP3    H127205   1.420   2.104   6.277  0.7262 -2.1007  3.4309
 1930TIP3    H227206   1.516   2.209   6.328  0.4187  0.5232 -0.9183
 1931TIP3   OH227207   5.955   5.900   6.570  0.6263 -0.4278  0.0664
 1931TIP3    H127208   5.961   5.809   6.599  1.7306 -0.3391  0.1554
 1931TIP3    H227209   5.981   5.898   6.477  0.1073 -0.2768 -0.0873
 1932TIP3   OH227210   0.835   2.950  11.412 -0.0692  0.3343  0.3998
 1932TIP3    H127211   0.792   2.929  11.495  0.8609  0.9801  1.0655
 1932TIP3    H227212   0.881   3.032  11.429  3.1080 -1.3083  0.3747
 1933TIP3   OH227213   3.853   3.153  15.582  0.2484  0.9430 -0.4834
 1933TIP3    H127214   3.930   3.118  15.627 -1.2033  0.0207  1.4274
 1933TIP3    H227215   3.801   3.194  15.651 -1.1118  1.2971 -1.6651
 1934TIP3   OH227216   0.775   1.200  12.162 -0.4166 -0.0806  0.2206
 1934TIP3    H127217   0.848   1.189  12.223  0.9241  0.6987 -1.1903
 1934TIP3    H227218   0.707   1.143  12.197  0.6251 -0.3610  1.9294
 1935TIP3   OH227219   6.506   1.526  12.878 -0.5600 -0.7623 -0.5030
 1935TIP3    H127220   6.538   1.615  12.867  0.0387 -1.1412 -2.1161
 1935TIP3    H227221   6.421   1.536  12.921 -0.6305  0.6058 -0.9206
 1936TIP3   OH227222   2.094   4.817   1.162 -0.9693 -0.3437 -0.4858
 1936TIP3    H127223   2.082   4.909   1.138 -0.3962 -0.3300 -0.7256
 1936TIP3    H227224   2.140   4.821   1.246 -1.9632 -0.4073  0.0887
 1937TIP3   OH227225   0.953   5.467  12.081  0.1205  0.3979  0.0232
 1937TIP3    H127226   0.904   5.403  12.132  2.0001 -0.9117  0.2963
 1937TIP3    H227227   1.021   5.416  12.037 -0.7716  1.6215 -3.0690
 1938TIP3   OH227228   1.326   6.687   4.062 -0.0800  0.3554  0.4027
 1938TIP3    H127229   1.323   6.598   4.096  0.4175  0.7808  1.6132
 1938TIP3    H227230   1.379   6.681   3.982  0.3004 -0.3587  0.7028
 1939TIP3   OH227231   6.627   1.505  12.144 -0.0304  0.1442  0.2038
 1939TIP3    H127232   6.632   1.506  12.240 -0.0404 -1.7032  0.2623
 1939TIP3    H227233   6.634   1.412  12.121 -2.2545  0.3068 -1.4620
 1940TIP3   OH227234   1.482   0.816   5.320 -0.5725 -0.0663  0.4662
 1940TIP3    H127235   1.389   0.823   5.339 -0.1372 -0.5807  3.0458
 1940TIP3    H227236   1.525   0.865   5.390  1.1107  0.5052 -0.8982
 1941TIP3   OH227237   3.773   1.359  16.957 -0.1596 -0.4221 -0.2544
 1941TIP3    H127238   3.679   1.372  16.957 -0.3245 -1.1029  2.2585
 1941TIP3    H227239   3.810   1.448  16.958 -0.8880 -0.0926  1.7723
 1942TIP3   OH227240   6.632   1.912  15.718  0.2138 -0.0418 -0.3582
 1942TIP3    H127241   6.540   1.909  15.692  0.5155 -1.2121 -1.4051
 1942TIP3    H227242   6.667   1.989  15.674  0.1787 -0.7196 -1.6275
 1943TIP3   OH227243   4.855   0.643  12.396 -0.1842 -0.6177 -0.6730
 1943TIP3    H127244   4.778   0.654  12.340 -0.3958 -0.5210 -0.3699
 1943TIP3    H227245   4.925   0.689  12.351  0.5449 -3.3369 -2.6127
 1944TIP3   OH227246   0.259   5.354  16.520 -0.5678 -0.4600 -0.1568
 1944TIP3    H127247   0.281   5.404  16.441 -0.5058 -0.5160 -0.1751
 1944TIP3    H227248   0.177   5.392  16.551 -0.0158  0.3118  0.3843
 1945TIP3   OH227249   2.286   3.137   1.215  0.9351 -0.1447 -0.3613
 1945TIP3    H127250   2.290   3.076   1.289  0.6397  0.9637  0.5905
 1945TIP3    H227251   2.227   3.206   1.244  0.8467  0.3399 -1.6291
 1946TIP3   OH227252   2.782   5.419   4.057 -0.0535 -0.0095  0.0431
 1946TIP3    H127253   2.773   5.486   4.124 -1.6335 -0.0483 -0.0881
 1946TIP3    H227254   2.816   5.343   4.104 -1.0139  0.0064  0.7966
 1947TIP3   OH227255   2.592   1.850   2.926  0.3258 -0.2826  0.0331
 1947TIP3    H127256   2.529   1.786   2.895 -1.1976  1.4277 -0.5424
 1947TIP3    H227257   2.540   1.915   2.973  2.1393 -0.8740  3.1494
 1948TIP3   OH227258   5.668   1.129  16.502  0.4153  0.0059  0.5791
 1948TIP3    H127259   5.632   1.208  16.462 -0.7427 -0.9534 -0.3699
 1948TIP3    H227260   5.752   1.116  16.459  0.0917  0.1047 -0.1031
 1949TIP3   OH227261   3.621   3.056   3.334  0.0851 -0.3053 -0.2476
 1949TIP3    H127262   3.606   3.143   3.372 -1.6783 -0.6817  0.0319
 1949TIP3    H227263   3.629   3.073   3.240  1.8187  0.3521 -0.0083
 1950TIP3   OH227264   6.415   4.913   4.970 -0.3058 -0.6558  0.3525
 1950TIP3    H127265   6.351   4.936   4.902  0.2503  0.5271  0.2101
 1950TIP3    H227266   6.500   4.935   4.931  0.0465 -0.3571  1.2677
 1951TIP3   OH227267   2.387   3.564   1.836 -0.0900  0.4026  0.7179
 1951TIP3    H127268   2.294   3.580   1.849 -0.4017 -1.3150  0.8097
 1951TIP3    H227269   2.414   3.631   1.772 -1.7896 -0.1905 -0.7088
 1952TIP3   OH227270   3.419   2.865   3.401 -0.5593 -0.3155 -0.2945
 1952TIP3    H127271   3.493   2.914   3.365 -1.5811  1.3937 -0.1798
 1952TIP3    H227272   3.419   2.886   3.495 -2.2274  1.2275 -0.5786
 1953TIP3   OH227273   6.307   0.176  11.490  0.1730  0.2778 -0.1700
 1953TIP3    H127274   6.401   0.157  11.484  0.0448 -0.6372  0.4828
 1953TIP3    H227275   6.268   0.091  11.510 -0.6967  0.8347  0.5197
 1954TIP3   OH227276   5.604   2.654  15.345  0.1134 -0.0743  0.4878
 1954TIP3    H127277   5.518   2.642  15.305  0.0744  2.3882 -0.3659
 1954TIP3    H227278   5.666   2.630  15.277  0.0888 -0.6251  0.6604
 1955TIP3   OH227279   6.084   4.637   0.972 -0.3712  0.3052  0.4611
 1955TIP3    H127280   6.115   4.724   0.999  0.6580 -0.4628  1.9488
 1955TIP3    H227281   6.003   4.624   1.022 -1.4421  1.0418 -1.0236
 1956TIP3   OH227282   1.945   3.665  13.600  0.3368  0.2749 -0.5290
 1956TIP3    H127283   2.001   3.611  13.543 -0.6864 -0.8496 -0.5203
 1956TIP3    H227284   1.858   3.625  13.592 -0.1478  1.0621  0.6158
 1957TIP3   OH227285   5.592   6.425  13.187 -0.0511  0.6195 -0.5565
 1957TIP3    H127286   5.643   6.467  13.119  1.8720 -0.9297 -0.1849
 1957TIP3    H227287   5.584   6.491  13.256  1.3018  0.9809 -0.7210
 1958TIP3   OH227288   4.795   2.213  16.641 -0.3137 -0.3951 -0.0254
 1958TIP3    H127289   4.879   2.172  16.621  0.2203  0.6135  0.1248
 1958TIP3    H227290   4.758   2.159  16.711  1.9421  1.2607  2.6316
 1959TIP3   OH227291   2.521   4.778  15.331  0.0251 -0.4847 -0.3106
 1959TIP3    H127292   2.499   4.823  15.250 -1.2675 -2.4553 -1.1453
 1959TIP3    H227293   2.611   4.749  15.319  0.1778  0.1108 -0.6083
 1960TIP3   OH227294   1.272   2.130   4.186 -0.1426 -0.3418  0.5456
 1960TIP3    H127295   1.345   2.134   4.124  0.5859 -2.0484  1.2306
 1960TIP3    H227296   1.226   2.213   4.174  3.1192  1.8033  1.6277
 1961TIP3   OH227297   4.105   6.442   3.180 -0.1983 -0.2252  0.1551
 1961TIP3    H127298   4.173   6.417   3.243 -0.5941 -2.2414 -0.1454
 1961TIP3    H227299   4.024   6.409   3.218 -1.2313  2.8853  0.9127
 1962TIP3   OH227300   5.407   6.388  12.953  0.0213  0.3793 -0.8292
 1962TIP3    H127301   5.402   6.483  12.942  1.3958  0.4684 -0.8994
 1962TIP3    H227302   5.412   6.375  13.048 -0.9348  0.3125 -0.7777
 1963TIP3   OH227303   0.087   5.981   2.962  0.2015 -0.1562  0.1819
 1963TIP3    H127304   0.055   5.998   2.873  1.1480 -0.8009 -0.2919
 1963TIP3    H227305   0.141   5.903   2.954  0.9384  0.2310  1.1813
 1964TIP3   OH227306   4.128   3.311   0.590 -0.3964  0.6883 -0.0505
 1964TIP3    H127307   4.143   3.231   0.639 -0.0854  0.9743  0.3318
 1964TIP3    H227308   4.042   3.299   0.549 -0.6486  0.4353  0.5464
 1965TIP3   OH227309   1.332   4.615   2.106 -0.0662 -0.5383 -0.9432
 1965TIP3    H127310   1.387   4.619   2.027  0.0385 -1.8830 -0.9627
 1965TIP3    H227311   1.368   4.683   2.163 -1.7811  2.3381 -3.0131
 1966TIP3   OH227312   1.063   5.158  12.808  0.2594 -0.2860  0.8338
 1966TIP3    H127313   0.975   5.151  12.846 -1.4463  3.4184 -1.7947
 1966TIP3    H227314   1.119   5.181  12.883 -0.8616 -2.8007  2.5850
 1967TIP3   OH227315   5.962   4.030  16.572  0.3777  0.0894  0.5348
 1967TIP3    H127316   5.986   4.107  16.521 -0.5093  0.6984  1.0099
 1967TIP3    H227317   5.994   4.048  16.660 -0.4569  0.2374  0.8153
 1968TIP3   OH227318   4.270   3.039  16.783  0.1978  0.1908  0.0902
 1968TIP3    H127319   4.276   3.125  16.826  2.2463  0.8527 -1.3837
 1968TIP3    H227320   4.331   2.984  16.832 -0.5280 -0.2311  0.5382
 1969TIP3   OH227321   3.444   0.888   0.615  0.3083 -0.1383  0.7473
 1969TIP3    H127322   3.534   0.866   0.640  1.3793  1.5086 -1.4093
 1969TIP3    H227323   3.448   0.908   0.522 -1.9335  1.8369  0.9718
 1970TIP3   OH227324   3.009   0.489  13.981  0.3186 -0.0514  0.1714
 1970TIP3    H127325   2.967   0.434  14.047 -0.5120  0.8296  0.3899
 1970TIP3    H227326   2.981   0.450  13.898 -0.6350  0.2960  0.3184
 1971TIP3   OH227327   4.888   3.037  12.936  0.4644 -0.8524 -0.6249
 1971TIP3    H127328   4.940   2.957  12.947  0.3564 -0.8390  0.0623
 1971TIP3    H227329   4.953   3.105  12.921  0.5840 -0.9942 -0.7605
 1972TIP3   OH227330   0.726   1.107   2.796 -0.0901  0.4999 -0.3248
 1972TIP3    H127331   0.715   1.021   2.754  1.7481  0.4699 -0.8261
 1972TIP3    H227332   0.692   1.170   2.733 -0.1801  0.2286 -0.5465
 1973TIP3   OH227333   3.716   4.553   4.976  0.1370 -0.2731 -0.1683
 1973TIP3    H127334   3.763   4.636   4.988  0.5416 -0.7097  1.6478
 1973TIP3    H227335   3.690   4.553   4.884  0.1974  1.8304 -0.2419
 1974TIP3   OH227336   1.520   5.416   1.238  0.3011 -0.4432 -0.1574
 1974TIP3    H127337   1.440   5.380   1.200  0.0632  0.7378 -0.8211
 1974TIP3    H227338   1.586   5.348   1.225 -0.1464 -0.6808 -1.2961
 1975TIP3   OH227339   1.374   3.478   3.387  0.4748 -0.3310 -0.0770
 1975TIP3    H127340   1.441   3.418   3.418  0.1776  0.2477  1.7896
 1975TIP3    H227341   1.380   3.473   3.291  2.5157 -1.0050  0.0404
 1976TIP3   OH227342   4.140   0.333   5.026  0.4741 -0.0918 -0.2302
 1976TIP3    H127343   4.155   0.363   5.116  3.1459 -1.0363 -0.2684
 1976TIP3    H227344   4.103   0.410   4.981 -2.3311 -0.0377  1.9324
 1977TIP3   OH227345   4.758   3.422  11.622  0.5644  0.0337  0.2986
 1977TIP3    H127346   4.705   3.446  11.698  0.1721 -0.5552  0.2148
 1977TIP3    H227347   4.848   3.437  11.651  0.5066 -1.5350  1.3866
 1978TIP3   OH227348   3.479   5.646   4.991 -0.8273 -0.1237  0.4934
 1978TIP3    H127349   3.447   5.717   5.045  0.4990 -0.1100  1.2902
 1978TIP3    H227350   3.526   5.689   4.920  0.7404 -0.1858  1.4594
 1979TIP3   OH227351   3.994   0.894   1.992 -0.4966  0.2483  0.5411
 1979TIP3    H127352   3.938   0.971   1.992 -1.2595 -0.2926  1.5723
 1979TIP3    H227353   3.935   0.821   1.975  0.1358 -0.1705  0.1093
 1980TIP3   OH227354   0.188   1.464  13.590 -0.0436  0.2687  0.1697
 1980TIP3    H127355   0.255   1.514  13.543  0.7794  0.0341  1.0693
 1980TIP3    H227356   0.225   1.376  13.597 -0.5448  0.0817  0.4732
 1981TIP3   OH227357   4.580   4.466   1.699  0.3324 -0.0015 -0.2030
 1981TIP3    H127358   4.624   4.465   1.614 -2.0076  0.6439 -1.4963
 1981TIP3    H227359   4.601   4.551   1.737  0.1556  0.3230 -0.8305
 1982TIP3   OH227360   6.139   6.537   2.716  0.0274  0.4513  0.2367
 1982TIP3    H127361   6.049   6.510   2.695  0.2560 -0.8554  0.8278
 1982TIP3    H227362   6.134   6.562   2.809  0.3108  0.1774  0.3256
 1983TIP3   OH227363   5.870   4.843  10.907  0.1660  0.1823  0.4427
 1983TIP3    H127364   5.907   4.774  10.852  2.5342  2.3691 -0.9802
 1983TIP3    H227365   5.852   4.801  10.991  1.6192 -2.0998 -0.3062
 1984TIP3   OH227366   3.533   4.988   5.366 -0.0807 -0.1170  0.1952
 1984TIP3    H127367   3.459   4.951   5.317 -2.9115  1.8029  2.6795
 1984TIP3    H227368   3.576   4.911   5.404 -1.2108 -1.2738 -0.7505
 1985TIP3   OH227369   2.031   3.786   2.090 -0.6798  0.3706  0.3446
 1985TIP3    H127370   2.086   3.806   2.014  0.0402 -1.0453  0.4607
 1985TIP3    H227371   1.990   3.870   2.112  1.6349  1.5753  0.4054
 1986TIP3   OH227372   3.177   5.253  11.305  0.7829 -0.7357  0.3768
 1986TIP3    H127373   3.098   5.203  11.286  0.4280  0.1170 -0.4631
 1986TIP3    H227374   3.168   5.333  11.255  2.7189 -1.1046 -0.6808
 1987TIP3   OH227375   4.528   0.007  11.427  0.2283  0.0142 -0.4703
 1987TIP3    H127376   4.541   0.086  11.480  4.0710 -0.8008  0.1420
 1987TIP3    H227377   4.559  -0.065  11.483  1.2522 -1.2968 -2.5633
 1988TIP3   OH227378   1.225   3.933   0.641 -0.5019  0.1555 -0.3911
 1988TIP3    H127379   1.223   4.024   0.610  0.2396  0.2324 -0.2392
 1988TIP3    H227380   1.304   3.896   0.600 -0.4286 -0.2255  0.0880
 1989TIP3   OH227381   5.149   3.938   4.727 -0.3697  0.4221  0.2592
 1989TIP3    H127382   5.156   3.956   4.820 -0.2546 -1.8109  0.7383
 1989TIP3    H227383   5.235   3.902   4.703  0.0003  2.0185 -1.0026
 1990TIP3   OH227384   4.463   4.403  13.871  0.0158 -0.7056  0.3863
 1990TIP3    H127385   4.426   4.395  13.783  1.1977 -0.0466 -0.1918
 1990TIP3    H227386   4.411   4.472  13.913 -1.7534 -2.2490  0.8866
 1991TIP3   OH227387   1.886   6.767   2.519  0.3189 -0.1515  0.1595
 1991TIP3    H127388   1.920   6.753   2.431  0.4059  2.3691 -0.2692
 1991TIP3    H227389   1.959   6.748   2.577  0.8869  0.1810 -0.4417
 1992TIP3   OH227390   3.960   2.286   1.206  0.5228  0.2369 -0.5118
 1992TIP3    H127391   3.914   2.204   1.225 -1.2105  1.3431  0.2679
 1992TIP3    H227392   4.025   2.293   1.275  0.9211 -0.6426 -0.7810
 1993TIP3   OH227393   0.218   4.969  12.709  0.2047  0.5093  0.3862
 1993TIP3    H127394   0.261   5.025  12.645 -0.0717  0.5657  0.2456
 1993TIP3    H227395   0.242   5.006  12.794 -1.9015  2.3505  0.2828
 1994TIP3   OH227396   5.237   5.504   2.063 -0.1569 -0.6239 -0.5256
 1994TIP3    H127397   5.246   5.577   2.003 -2.1624  0.7248  0.7048
 1994TIP3    H227398   5.319   5.503   2.113  0.2402  0.2005 -1.1473
 1995TIP3   OH227399   0.315   6.210   3.343 -0.2127  0.2572  0.8212
 1995TIP3    H127400   0.221   6.206   3.322  0.0022 -1.3642  0.0233
 1995TIP3    H227401   0.358   6.169   3.268  1.1748  1.1734  1.0732
 1996TIP3   OH227402   5.053   5.323   3.264 -0.4127 -0.5766  0.0863
 1996TIP3    H127403   5.064   5.399   3.207  2.1921 -0.3831  0.7625
 1996TIP3    H227404   5.079   5.249   3.209 -1.3777 -0.8301 -0.0544
 1997TIP3   OH227405   0.513   0.747  15.907 -0.2823  0.6020 -0.0521
 1997TIP3    H127406   0.494   0.807  15.978  0.6690 -0.0234  0.7601
 1997TIP3    H227407   0.508   0.660  15.946  0.2525  0.2475 -0.7389
 1998TIP3   OH227408   0.225   6.331  15.249 -0.0143 -0.9796 -0.1921
 1998TIP3    H127409   0.320   6.335  15.246  0.0780 -2.3191  0.0122
 1998TIP3    H227410   0.197   6.421  15.265  1.3001 -0.8054  1.4807
 1999TIP3   OH227411   0.434   1.503  13.155 -0.6611  0.3951  0.8216
 1999TIP3    H127412   0.384   1.580  13.127  0.8118  2.1194  2.6067
 1999TIP3    H227413   0.506   1.498  13.091 -1.0395  0.1913  0.4085
 2000TIP3   OH227414   5.587   3.483   5.807 -0.5126 -0.5354  0.2834
 2000TIP3    H127415   5.523   3.510   5.742 -0.9079  0.5023  1.0748
 2000TIP3    H227416   5.650   3.555   5.810 -0.8780 -0.2376  1.5235
 2001TIP3   OH227417   0.780   5.314  12.248  0.3784  0.2916 -0.2555
 2001TIP3    H127418   0.744   5.225  12.246  0.8703  0.0811  0.0285
 2001TIP3    H227419   0.848   5.311  12.315 -1.2217  1.4923  1.5381
 2002TIP3   OH227420   5.976   3.834  15.958  0.7796 -0.0752  0.4100
 2002TIP3    H127421   5.974   3.895  16.032  0.3102  0.1491  0.2168
 2002TIP3    H227422   5.980   3.889  15.880  1.1862 -0.3094  0.2595
 2003TIP3   OH227423   5.861   5.408  14.161 -0.2972 -0.7067 -0.0955
 2003TIP3    H127424   5.912   5.460  14.223  0.0002  0.9629 -1.6186
 2003TIP3    H227425   5.875   5.452  14.077 -3.0725 -1.0486 -0.8379
 2004TIP3   OH227426   4.218   6.687   0.815 -0.3961  0.1372  0.3787
 2004TIP3    H127427   4.173   6.609   0.848 -1.5710  1.2377  1.4574
 2004TIP3    H227428   4.241   6.737   0.894  0.0337  1.0572 -0.3095
 2005TIP3   OH227429   3.928   4.336  16.225 -0.6069 -0.0513  0.1632
 2005TIP3    H127430   3.874   4.396  16.276  0.3106  0.3032  0.7539
 2005TIP3    H227431   3.996   4.391  16.188 -0.0560 -0.6339  0.2794
 2006TIP3   OH227432   6.705   4.867  16.011  0.3069  0.3192 -0.3283
 2006TIP3    H127433   6.737   4.957  16.002  0.3306  0.4439  0.8309
 2006TIP3    H227434   6.765   4.827  16.074  0.0884 -0.4066 -0.5791
 2007TIP3   OH227435   4.605   4.287   3.550  0.6441 -0.3611  0.3969
 2007TIP3    H127436   4.620   4.194   3.538  1.6420 -0.0720 -0.9506
 2007TIP3    H227437   4.688   4.320   3.585  1.0024  0.2890 -0.9764
 2008TIP3   OH227438   1.303   3.150   0.738 -0.1249 -0.0926 -0.6765
 2008TIP3    H127439   1.353   3.073   0.708 -0.7159  0.0572 -2.1240
 2008TIP3    H227440   1.370   3.214   0.761  0.3730 -0.2321 -1.6767
 2009TIP3   OH227441   0.660   6.155  14.077  0.0938  0.2271 -0.3977
 2009TIP3    H127442   0.670   6.245  14.047  1.2628  0.5981  1.0011
 2009TIP3    H227443   0.566   6.144  14.090 -0.1080  1.0705 -1.0812
 2010TIP3   OH227444   0.207   3.334  15.952 -0.6433  0.1356  0.3427
 2010TIP3    H127445   0.237   3.347  15.862 -1.4864 -0.4945 -0.0449
 2010TIP3    H227446   0.282   3.359  16.006 -0.5142  1.6778 -0.4910
 2011TIP3   OH227447   6.525   3.200   2.919 -0.2312  0.0032 -0.2537
 2011TIP3    H127448   6.577   3.175   2.842 -1.0188  1.0580 -1.1558
 2011TIP3    H227449   6.506   3.292   2.906 -1.3046 -0.0660  0.6853
 2012TIP3   OH227450   1.663   1.558   5.425 -0.0651  0.2350  0.3467
 2012TIP3    H127451   1.671   1.652   5.439  0.0060  0.4292 -0.8933
 2012TIP3    H227452   1.580   1.548   5.377  0.0373 -0.3058  0.2759
 2013TIP3   OH227453   0.105   3.303  11.683 -0.6123  0.0130  0.4474
 2013TIP3    H127454   0.193   3.283  11.648 -0.3690  0.3679  0.8562
 2013TIP3    H227455   0.082   3.387  11.643 -2.3310 -1.7283 -2.5929
 2014TIP3   OH227456   4.744   3.932  15.352  0.3591 -0.6876  0.5671
 2014TIP3    H127457   4.794   3.854  15.377 -0.1625 -1.5096 -0.8398
 2014TIP3    H227458   4.788   4.004  15.397  0.6554 -1.8139  2.1846
 2015TIP3   OH227459   1.392   4.703  15.361 -0.0525 -0.0657 -0.3993
 2015TIP3    H127460   1.373   4.797  15.366  0.3974 -0.0375  1.4996
 2015TIP3    H227461   1.327   4.663  15.419  0.8715 -0.7245  0.2033
 2016TIP3   OH227462   4.033   5.944   2.094  0.3591  0.4156 -0.0869
 2016TIP3    H127463   4.062   5.931   2.004 -0.0441  0.2694 -0.1979
 2016TIP3    H227464   4.001   5.859   2.122 -0.5980  0.7234 -0.2049
 2017TIP3   OH227465   0.700   0.248   4.638 -0.4368  0.0680 -0.0081
 2017TIP3    H127466   0.771   0.210   4.587 -1.8362  0.1658 -2.1879
 2017TIP3    H227467   0.737   0.327   4.677  1.3219 -1.2326  1.0794
 2018TIP3   OH227468   6.261   6.551  16.191  0.4671  0.2562  0.1833
 2018TIP3    H127469   6.177   6.585  16.223  0.7624 -0.9101  2.3818
 2018TIP3    H227470   6.256   6.457  16.206  2.3495  0.2304  0.8625
 2019TIP3   OH227471   4.909   2.389  16.949  0.2015  0.1373 -0.3994
 2019TIP3    H127472   4.919   2.443  16.870  0.1820  3.6995  1.8599
 2019TIP3    H227473   4.819   2.404  16.977 -0.1794 -2.0845 -0.2698
 2020TIP3   OH227474   0.313   3.179  11.487 -0.3371  0.8729 -0.4785
 2020TIP3    H127475   0.276   3.164  11.400  0.2859  2.2539 -1.0136
 2020TIP3    H227476   0.407   3.173  11.474 -0.1856  2.2960 -0.1695
 2021TIP3   OH227477   2.427   1.779  12.757 -0.4293 -0.0721  0.3913
 2021TIP3    H127478   2.502   1.837  12.768 -0.1692 -0.6262  1.8942
 2021TIP3    H227479   2.371   1.823  12.693 -0.2792  1.8672  1.5067
 2022TIP3   OH227480   6.738   3.361   2.282  0.5157 -0.4639  0.2093
 2022TIP3    H127481   6.776   3.448   2.272  1.7528 -1.0153 -0.0972
 2022TIP3    H227482   6.701   3.361   2.371  0.4637  0.3793  0.1917
 2023TIP3   OH227483   2.951   5.518   3.717  0.3021 -0.2356  0.8459
 2023TIP3    H127484   2.955   5.430   3.754 -1.3457 -0.4739  0.4991
 2023TIP3    H227485   2.910   5.506   3.631  0.4235  0.8240  0.6291
 2024TIP3   OH227486   4.098   0.687   4.018 -0.0841 -0.0129  0.0014
 2024TIP3    H127487   4.059   0.634   4.089  0.8664 -0.0334  0.5219
 2024TIP3    H227488   4.168   0.632   3.984  0.8798  0.8770  0.5064
 2025TIP3   OH227489   0.316   5.704  16.060  0.2971  0.8032 -0.7055
 2025TIP3    H127490   0.378   5.667  15.998  0.0078 -0.4436 -0.2864
 2025TIP3    H227491   0.237   5.651  16.050 -0.4270  1.8501 -0.6634
 2026TIP3   OH227492   6.341   0.153   4.068 -0.5723  0.1471 -0.4103
 2026TIP3    H127493   6.292   0.187   4.142  0.2693  0.6293 -0.0541
 2026TIP3    H227494   6.277   0.143   3.998 -1.3681 -0.2793  0.3729
 2027TIP3   OH227495   5.525   3.787   1.134  0.5838  0.4147  0.7061
 2027TIP3    H127496   5.475   3.730   1.076  1.8889 -0.7885  0.7366
 2027TIP3    H227497   5.594   3.823   1.079  0.8333  0.5789  1.1229
 2028TIP3   OH227498   5.666   5.167  16.884 -0.1203  0.5674  0.2819
 2028TIP3    H127499   5.611   5.226  16.937  2.9488  2.0957  2.0403
 2028TIP3    H227500   5.737   5.222  16.853  0.4263 -1.2861 -2.0639
 2029TIP3   OH227501   3.688   1.670  16.489  0.2146 -0.2620 -0.1764
 2029TIP3    H127502   3.636   1.680  16.410 -0.9366 -1.7972  0.3378
 2029TIP3    H227503   3.745   1.595  16.471  1.2598  0.5171 -0.2032
 2030TIP3   OH227504   0.607   5.459   4.023  0.0973 -0.1037 -0.1122
 2030TIP3    H127505   0.535   5.413   4.066 -0.1509  2.0676  2.0347
 2030TIP3    H227506   0.584   5.459   3.930 -2.1385 -0.4025  0.3858
 2031TIP3   OH227507   1.555   2.460  15.523  0.1669  0.3959  0.3360
 2031TIP3    H127508   1.523   2.432  15.609  1.6822 -0.1593  0.7462
 2031TIP3    H227509   1.529   2.389  15.464 -0.7192  0.6911  0.3644
 2032TIP3   OH227510   4.357   2.637  16.150  0.4517 -0.0114  0.3780
 2032TIP3    H127511   4.390   2.558  16.193 -0.0940 -1.0853 -1.0881
 2032TIP3    H227512   4.405   2.640  16.067 -0.6903  0.2723 -0.2911
 2033TIP3   OH227513   1.580   5.723   3.801 -0.1369 -0.1290  0.3315
 2033TIP3    H127514   1.500   5.703   3.752  0.4396  1.9284 -1.6190
 2033TIP3    H227515   1.637   5.647   3.786 -0.1112  0.2704 -2.0502
 2034TIP3   OH227516   2.505   1.087  15.231  0.0866  0.4723  0.0386
 2034TIP3    H127517   2.483   1.119  15.144 -2.0532 -1.6964 -0.3228
 2034TIP3    H227518   2.592   1.047  15.221 -0.4457 -0.3935 -1.3143
 2035TIP3   OH227519   0.429   0.042  10.779  0.3272  0.0124  0.0065
 2035TIP3    H127520   0.436  -0.029  10.715 -0.3563 -1.5377  1.5614
 2035TIP3    H227521   0.490   0.109  10.748  0.0272 -0.6753 -2.2272
 2036TIP3   OH227522   5.156   2.693  14.398 -0.1905 -0.3190  0.2856
 2036TIP3    H127523   5.092   2.623  14.384 -0.6025  0.1098  0.0074
 2036TIP3    H227524   5.223   2.654  14.455  0.0077 -1.1959 -0.5282
 2037TIP3   OH227525   3.691   1.903  14.913  0.1435 -0.3636  0.0794
 2037TIP3    H127526   3.729   1.843  14.849 -0.3432  0.0091 -0.5749
 2037TIP3    H227527   3.598   1.903  14.893  0.1926  0.9299 -0.2113
 2038TIP3   OH227528   1.197   1.531  13.699  0.8042  0.0523  0.2574
 2038TIP3    H127529   1.291   1.541  13.711  0.9472  0.3603 -0.9676
 2038TIP3    H227530   1.160   1.616  13.723  0.5227 -0.7614  3.1346
 2039TIP3   OH227531   4.623   0.536  11.556  0.7549  0.5331 -0.1237
 2039TIP3    H127532   4.667   0.597  11.497  1.0064  1.1276  0.6634
 2039TIP3    H227533   4.682   0.527  11.630  1.7229 -2.3207 -1.1088
 2040TIP3   OH227534   5.157   2.543   3.774 -0.0136  0.0807 -0.0269
 2040TIP3    H127535   5.066   2.526   3.749 -0.4902  0.6359  1.2391
 2040TIP3    H227536   5.190   2.603   3.707 -1.2705  1.6114  0.6617
 2041TIP3   OH227537   1.014   4.268   0.689  0.2838  0.0328  0.2246
 2041TIP3    H127538   0.967   4.272   0.606 -0.5042 -0.6991  0.6156
 2041TIP3    H227539   0.953   4.303   0.753  0.9229  0.6831  0.5019
 2042TIP3   OH227540   5.548   3.001  10.769  0.4737  0.1126 -0.1822
 2042TIP3    H127541   5.552   2.987  10.675  2.3492  0.2144 -0.1669
 2042TIP3    H227542   5.636   3.031  10.792 -0.4951  2.0235  1.3088
 2043TIP3   OH227543   5.895   5.509   3.300 -0.6165  0.0438  0.2652
 2043TIP3    H127544   5.839   5.463   3.237 -0.6626  0.2237  0.1735
 2043TIP3    H227545   5.837   5.572   3.343 -0.1399  1.4463 -1.0528
 2044TIP3   OH227546   1.204   5.828  10.440  0.1687 -0.6263 -0.1715
 2044TIP3    H127547   1.239   5.745  10.472  0.3276 -0.2977  0.5524
 2044TIP3    H227548   1.127   5.804  10.389  0.0677 -1.2051  0.2360
 2045TIP3   OH227549   1.829   0.729   2.273 -0.6827  0.0824 -0.1818
 2045TIP3    H127550   1.751   0.763   2.316 -0.4982 -0.4272  0.5682
 2045TIP3    H227551   1.839   0.641   2.308 -0.6773 -0.4479 -1.4648
 2046TIP3   OH227552   5.653   5.317  14.534  0.3294  0.0795 -0.6068
 2046TIP3    H127553   5.613   5.239  14.571  0.1528  0.4100 -0.0962
 2046TIP3    H227554   5.739   5.288  14.504  0.5674 -0.1553  0.2617
 2047TIP3   OH227555   5.395   4.052  11.387  0.2259  0.4485  0.3798
 2047TIP3    H127556   5.487   4.029  11.379  0.1409  0.7659 -4.5170
 2047TIP3    H227557   5.349   3.987  11.334 -1.8439  2.4669 -0.4774
 2048TIP3   OH227558   5.281   5.801  13.531 -0.2342  0.5790 -0.0149
 2048TIP3    H127559   5.298   5.709  13.513 -1.1774  0.2154  0.8319
 2048TIP3    H227560   5.215   5.827  13.466  0.1921  0.7248 -0.3936
 2049TIP3   OH227561   0.481   5.693  10.433 -0.0068  0.2830 -0.0853
 2049TIP3    H127562   0.408   5.751  10.413 -0.0327 -0.2072 -1.5315
 2049TIP3    H227563   0.442   5.606  10.440  0.5264 -0.1528 -1.9324
 2050TIP3   OH227564   5.859   2.356  12.321  0.6138 -0.6883  0.0207
 2050TIP3    H127565   5.937   2.411  12.329 -1.0485  2.0560 -0.9096
 2050TIP3    H227566   5.844   2.349  12.226  0.6054 -2.5961  0.1248
 2051TIP3   OH227567   2.354   3.564   1.303 -0.1391 -0.0252  0.0709
 2051TIP3    H127568   2.287   3.587   1.367 -1.2120  0.2394 -1.1238
 2051TIP3    H227569   2.383   3.649   1.268 -0.3696 -0.2319 -0.6146
 2052TIP3   OH227570   1.114   1.073   1.396 -0.0614  0.0317  0.0053
 2052TIP3    H127571   1.110   1.136   1.468 -0.5350 -0.1771  0.1654
 2052TIP3    H227572   1.128   1.127   1.318 -1.6919  0.4807 -0.0232
 2053TIP3   OH227573   4.268   2.845   5.629  0.1814  0.2285  0.0134
 2053TIP3    H127574   4.182   2.887   5.631 -0.6198 -1.3708  0.6373
 2053TIP3    H227575   4.318   2.895   5.565 -1.0582  1.4707 -0.0231
 2054TIP3   OH227576   6.542   5.551   2.619 -0.8254  0.2140  0.1404
 2054TIP3    H127577   6.495   5.497   2.556  0.4533 -1.5029  0.5654
 2054TIP3    H227578   6.538   5.500   2.701 -1.9113  2.0774  1.3368
 2055TIP3   OH227579   6.633   1.522  12.423  0.7736  0.3239 -0.3365
 2055TIP3    H127580   6.657   1.588  12.488  1.7053  0.3748 -0.7194
 2055TIP3    H227581   6.668   1.440  12.458 -0.2208  0.0521  0.0489
 2056TIP3   OH227582   1.559   2.830   6.136  0.3981  0.1152  0.0512
 2056TIP3    H127583   1.624   2.821   6.206 -1.0235 -0.3402  1.3881
 2056TIP3    H227584   1.586   2.906   6.087  1.7412  0.1441  0.7954
 2057TIP3   OH227585   0.527   0.672   5.220 -0.1833 -0.8951  0.5157
 2057TIP3    H127586   0.551   0.689   5.311 -0.6789  1.9827  0.2012
 2057TIP3    H227587   0.431   0.681   5.218 -0.0530  0.6143 -0.5168
 2058TIP3   OH227588   5.762   4.764   0.981  0.0776  0.4457  0.0612
 2058TIP3    H127589   5.785   4.792   1.069 -2.9957  0.0068  1.1320
 2058TIP3    H227590   5.669   4.784   0.973  0.1902  0.2011 -3.0159
 2059TIP3   OH227591   2.269   0.990  16.433 -0.3321  0.1406  0.2365
 2059TIP3    H127592   2.310   1.021  16.514 -0.3065 -0.5191  0.4830
 2059TIP3    H227593   2.299   0.900  16.424 -1.0771 -0.0942 -0.0060
 2060TIP3   OH227594   2.623   1.552  10.817 -0.1483 -0.1114  0.0434
 2060TIP3    H127595   2.677   1.631  10.822  2.9395 -1.9805 -1.0822
 2060TIP3    H227596   2.588   1.551  10.728 -1.5974  0.7475  0.5641
 2061TIP3   OH227597   0.856   2.386  12.017  0.4665  0.6699  0.1523
 2061TIP3    H127598   0.931   2.337  12.052  0.2535 -0.1259 -0.4632
 2061TIP3    H227599   0.797   2.396  12.092  0.3391 -0.3757  0.2050
 2062TIP3   OH227600   4.639   6.229  11.160  0.3007  0.2685 -0.0792
 2062TIP3    H127601   4.580   6.196  11.093 -0.0137  0.5704  0.0460
 2062TIP3    H227602   4.622   6.323  11.163  0.9414  0.3911 -0.1914
 2063TIP3   OH227603   4.469   4.326   3.077 -0.0133 -0.2005 -0.0083
 2063TIP3    H127604   4.446   4.258   3.141 -0.9153  0.4525  0.3794
 2063TIP3    H227605   4.556   4.355   3.103 -0.0908 -0.4182  0.5058
 2064TIP3   OH227606   5.893   0.656   3.827 -0.2392  0.2950  0.5377
 2064TIP3    H127607   5.942   0.725   3.783  0.0563  1.2839  2.3303
 2064TIP3    H227608   5.950   0.627   3.898 -0.5552 -1.5001  0.0978
 2065TIP3   OH227609   6.041   4.791  13.021 -0.4446  0.4307 -0.0828
 2065TIP3    H127610   6.118   4.778  13.075 -0.4814 -1.4827 -0.4200
 2065TIP3    H227611   6.070   4.851  12.952  0.4859  0.4324  0.2993
 2066TIP3   OH227612   0.045   3.442  12.595  0.8870  0.0802  0.3168
 2066TIP3    H127613  -0.047   3.467  12.607  1.0626  1.1999 -0.5520
 2066TIP3    H227614   0.076   3.424  12.684 -0.0686  0.0691  0.6612
 2067TIP3   OH227615   1.980   1.996   0.767  0.3045  0.6346 -0.0758
 2067TIP3    H127616   1.987   2.069   0.829 -2.0292  2.3829 -1.6649
 2067TIP3    H227617   2.029   2.026   0.690 -1.4956  1.0513 -1.1174
 2068TIP3   OH227618   4.276   2.920  14.527  0.1207 -0.4241 -0.4409
 2068TIP3    H127619   4.192   2.902  14.486 -0.1651  0.6122 -0.3381
 2068TIP3    H227620   4.280   3.016  14.533  1.4178 -0.4450 -0.6691
 2069TIP3   OH227621   3.613   5.566  12.215  0.3718 -0.0890  0.5596
 2069TIP3    H127622   3.593   5.655  12.244  0.2991  0.0903 -0.0296
 2069TIP3    H227623   3.690   5.541  12.267  0.8376  0.5919  0.2188
 2070TIP3   OH227624   2.924   6.066   3.553  0.6755  0.4038 -0.4461
 2070TIP3    H127625   3.015   6.074   3.583  0.1147 -1.1323  1.9253
 2070TIP3    H227626   2.884   6.150   3.578  0.7544 -0.0486  1.4006
 2071TIP3   OH227627   0.707   2.753   0.941  0.3718  0.4050 -0.3446
 2071TIP3    H127628   0.657   2.792   1.013  2.1056  1.1352  0.5164
 2071TIP3    H227629   0.679   2.801   0.864 -1.3704 -0.2522 -0.1663
 2072TIP3   OH227630   3.213   1.556  14.392  0.0722 -0.0018 -0.4351
 2072TIP3    H127631   3.124   1.521  14.387 -0.4696  1.0230  1.0937
 2072TIP3    H227632   3.214   1.631  14.333 -0.8070  1.3322  1.1626
 2073TIP3   OH227633   1.912   3.203  10.509 -0.1036 -0.5749 -0.1409
 2073TIP3    H127634   1.988   3.167  10.462 -1.6924 -1.8567 -1.8977
 2073TIP3    H227635   1.865   3.253  10.442 -2.9501 -3.2198 -0.3258
 2074TIP3   OH227636   3.979   4.663  16.196  0.4609  0.5103  0.4074
 2074TIP3    H127637   4.019   4.606  16.261  0.2971 -1.6788 -1.2745
 2074TIP3    H227638   3.892   4.626  16.181  0.7098  0.5432 -1.4406
 2075TIP3   OH227639   1.518   4.545   2.733  0.2187  0.2078 -0.3184
 2075TIP3    H127640   1.435   4.538   2.687 -0.0395 -0.7810  0.2728
 2075TIP3    H227641   1.516   4.632   2.773 -0.3451  0.3531 -0.6610
 2076TIP3   OH227642   2.228   1.612   2.962 -0.4989  0.2484  0.0219
 2076TIP3    H127643   2.184   1.527   2.955 -0.2466  0.2289 -2.3282
 2076TIP3    H227644   2.269   1.625   2.876 -2.8257  3.9382 -0.7973
 2077TIP3   OH227645   4.137   3.571   4.284  0.3539  0.6714 -0.2849
 2077TIP3    H127646   4.091   3.588   4.366 -2.7266 -0.3847 -1.6229
 2077TIP3    H227647   4.130   3.476   4.272  0.0834  0.8860 -2.0868
 2078TIP3   OH227648   1.859   1.678   4.917  0.3829  0.3541  0.0279
 2078TIP3    H127649   1.851   1.592   4.958 -0.5091  0.5223  0.2207
 2078TIP3    H227650   1.905   1.661   4.835  0.9043 -0.1881  0.4249
 2079TIP3   OH227651   4.291   5.433  11.429 -0.6026  0.0204  0.7212
 2079TIP3    H127652   4.262   5.408  11.517  0.1677  2.1443  1.6532
 2079TIP3    H227653   4.341   5.357  11.398  0.3050 -0.2606  2.7111
 2080TIP3   OH227654   1.113   3.194   3.567 -0.4947  0.3497 -0.4544
 2080TIP3    H127655   1.147   3.117   3.613  1.2299  1.6732  0.6148
 2080TIP3    H227656   1.081   3.251   3.637 -0.9356  0.9941 -1.1646
 2081TIP3   OH227657   0.788   4.937  16.745 -0.1102  0.5893 -0.3158
 2081TIP3    H127658   0.834   4.860  16.779 -1.5087  0.4116  1.2885
 2081TIP3    H227659   0.845   4.970  16.675 -0.2004 -2.7604 -2.1389
 2082TIP3   OH227660   4.410   0.012   4.067  0.1772  0.1033 -0.6118
 2082TIP3    H127661   4.337   0.060   4.107  1.1584  0.3895  0.9383
 2082TIP3    H227662   4.429   0.061   3.987 -0.9896  0.3281 -0.7687
 2083TIP3   OH227663   5.567   3.023   2.691 -0.1937 -0.1487  0.8218
 2083TIP3    H127664   5.512   3.041   2.767  0.5352 -0.3670  1.4104
 2083TIP3    H227665   5.656   3.019   2.726 -0.1126 -3.6157  0.5496
 2084TIP3   OH227666   0.258   4.939   3.743  0.0272  0.3319 -0.1658
 2084TIP3    H127667   0.247   4.986   3.660  0.6003 -0.3536 -0.6449
 2084TIP3    H227668   0.215   4.994   3.808 -0.8775  0.6447 -0.9988
 2085TIP3   OH227669   0.001   4.866   2.480 -0.3789  0.1400  0.1582
 2085TIP3    H127670  -0.075   4.844   2.426  0.4519  0.8872 -1.3764
 2085TIP3    H227671  -0.033   4.929   2.544 -0.9792  0.8002 -0.7858
 2086TIP3   OH227672   5.998   4.552  16.904  0.0299 -0.2430  0.1634
 2086TIP3    H127673   5.906   4.534  16.887 -0.3569  2.4863 -1.2131
 2086TIP3    H227674   6.045   4.501  16.838 -0.1985 -3.6589  2.4388
 2087TIP3   OH227675   3.691   0.513  14.024  0.1359 -0.5034  0.7734
 2087TIP3    H127676   3.762   0.573  14.002 -0.6171 -0.2794 -1.2656
 2087TIP3    H227677   3.652   0.549  14.104  1.7689 -0.1871  1.4700
 2088TIP3   OH227678   0.554   3.713  13.670  0.4311  0.3448  0.0178
 2088TIP3    H127679   0.474   3.679  13.712  0.8193 -0.0621  0.4399
 2088TIP3    H227680   0.595   3.767  13.738  1.1444 -0.4421  0.2228
 2089TIP3   OH227681   3.382   5.972  14.565 -0.4411 -0.0236 -0.6686
 2089TIP3    H127682   3.468   5.984  14.524 -0.2117 -0.9107 -0.4671
 2089TIP3    H227683   3.369   5.877  14.565 -0.7984  0.0166  0.5805
 2090TIP3   OH227684   0.479   5.699   2.680  0.0793  0.3761 -0.1799
 2090TIP3    H127685   0.395   5.724   2.640 -0.3589  0.3838  0.7348
 2090TIP3    H227686   0.466   5.609   2.709  0.0915  0.6721  0.7547
 2091TIP3   OH227687   5.817   0.956   5.969 -0.3584  0.1893  0.5351
 2091TIP3    H127688   5.741   0.932   5.917 -0.3224  2.8096 -0.9244
 2091TIP3    H227689   5.892   0.927   5.917 -0.3503  0.7788  0.2073
 2092TIP3   OH227690   3.875   0.105   4.316  0.0599 -0.0125  0.1318
 2092TIP3    H127691   3.835   0.038   4.260  1.2737  0.6759 -1.6670
 2092TIP3    H227692   3.802   0.150   4.357 -0.8710 -0.7911 -0.6294
 2093TIP3   OH227693   5.868   0.192  15.902  0.0345 -0.8665 -0.2657
 2093TIP3    H127694   5.914   0.133  15.843 -0.8376 -1.3935 -0.4179
 2093TIP3    H227695   5.934   0.258  15.925  1.0062 -1.8517 -0.1354
 2094TIP3   OH227696   1.171   3.476  14.572 -0.1029  0.7014  0.5084
 2094TIP3    H127697   1.207   3.408  14.629 -0.5406 -0.5996 -0.7408
 2094TIP3    H227698   1.228   3.475  14.495 -1.7288 -0.1983 -0.7409
 2095TIP3   OH227699   3.223   3.036  11.585 -0.0469 -0.5833 -0.4691
 2095TIP3    H127700   3.163   3.001  11.519 -1.0566 -1.6867  0.9676
 2095TIP3    H227701   3.165   3.067  11.656  1.0299 -0.3548  0.3360
 2096TIP3   OH227702   4.091   1.654  11.831  0.2078 -0.0307  0.1466
 2096TIP3    H127703   4.044   1.571  11.818  0.5335 -0.5988  2.1650
 2096TIP3    H227704   4.086   1.699  11.747 -3.2593 -0.4085  0.0255
 2097TIP3   OH227705   5.707   0.273  11.496  0.1175  0.8060  0.2377
 2097TIP3    H127706   5.728   0.315  11.412 -0.7966  0.1463 -0.3419
 2097TIP3    H227707   5.641   0.208  11.474  1.8466 -1.3490  0.9772
 2098TIP3   OH227708   1.946   4.931  11.011  0.2065 -0.1101 -0.8108
 2098TIP3    H127709   2.013   4.913  11.076 -0.5081  1.8123  0.5564
 2098TIP3    H227710   1.974   5.012  10.969 -2.1456  1.9345  1.2468
 2099TIP3   OH227711   6.039   3.354  15.237  0.1441  0.0867  0.3609
 2099TIP3    H127712   5.969   3.402  15.281  0.6899  0.0803  1.2417
 2099TIP3    H227713   5.993   3.293  15.179 -0.5648  0.8997  0.0489
 2100TIP3   OH227714   2.054   3.996  13.492  0.0574 -0.1515 -0.3936
 2100TIP3    H127715   2.137   4.014  13.536  1.3839 -0.1935 -2.6960
 2100TIP3    H227716   2.066   3.910  13.452 -1.2390 -0.3030 -0.5030
 2101TIP3   OH227717   0.609   4.881  16.098  0.4472 -0.2709 -0.1012
 2101TIP3    H127718   0.641   4.791  16.094 -0.2781 -0.5415 -0.0159
 2101TIP3    H227719   0.602   4.908  16.006  0.0967 -0.5187 -0.1522
 2102TIP3   OH227720   3.899   1.513   0.534  0.2543 -0.0718  0.3697
 2102TIP3    H127721   3.906   1.603   0.503  3.7110  0.3379  1.7930
 2102TIP3    H227722   3.926   1.460   0.459  0.0656  0.2403  0.0787
 2103TIP3   OH227723   1.203   4.927  15.313 -0.6141 -0.3297 -0.3335
 2103TIP3    H127724   1.109   4.924  15.293 -0.5652 -0.3792 -0.5639
 2103TIP3    H227725   1.240   4.980  15.242 -0.1574 -2.0816 -1.4905
 2104TIP3   OH227726   1.827   2.027  14.582 -1.0108 -0.3915 -0.0330
 2104TIP3    H127727   1.870   1.955  14.629  1.5985  0.1528 -1.4249
 2104TIP3    H227728   1.823   1.997  14.491  1.3596  1.6693 -0.9020
 2105TIP3   OH227729   4.930   0.998  11.305  0.3926 -0.0203 -0.2114
 2105TIP3    H127730   4.853   0.943  11.289  1.1477 -1.1552 -0.0808
 2105TIP3    H227731   4.972   1.005  11.220  0.1067  0.6778 -0.3009
 2106TIP3   OH227732   0.162   6.128  13.948  0.9248  0.2287  0.3243
 2106TIP3    H127733   0.137   6.042  13.917  1.4395 -0.3156  1.3482
 2106TIP3    H227734   0.100   6.148  14.018  2.1017 -0.2851  1.5586
 2107TIP3   OH227735   1.656   4.136  14.110  0.1699  0.0374 -0.2493
 2107TIP3    H127736   1.732   4.193  14.096  0.6044 -0.7468 -1.2568
 2107TIP3    H227737   1.596   4.188  14.162  1.3455  0.7254  0.4634
 2108TIP3   OH227738   0.344   4.074   0.391 -0.1549  0.4805  0.2772
 2108TIP3    H127739   0.302   4.149   0.348  1.0701  1.8118  1.2955
 2108TIP3    H227740   0.273   4.029   0.436 -1.0068  0.6731 -0.8235
 2109TIP3   OH227741   3.920   0.510  12.608  0.1491 -0.0667  0.5771
 2109TIP3    H127742   3.873   0.427  12.604  1.8046 -1.0220 -0.1533
 2109TIP3    H227743   3.980   0.500  12.681  0.9971  0.1269 -0.0811
 2110TIP3   OH227744   1.824   2.705   1.813  0.4141  0.5725  0.2383
 2110TIP3    H127745   1.842   2.698   1.907  1.2054 -0.4617  0.0336
 2110TIP3    H227746   1.866   2.786   1.786  1.6306  0.0423  0.4819
 2111TIP3   OH227747   6.759   1.444  12.978 -0.2603 -0.1951  0.5665
 2111TIP3    H127748   6.767   1.514  13.043 -1.7394  0.9857 -0.4576
 2111TIP3    H227749   6.677   1.462  12.933 -0.0415 -1.8738 -0.6112
 2112TIP3   OH227750   5.510   4.071  13.712 -0.3248 -0.5161  0.4105
 2112TIP3    H127751   5.522   4.116  13.796 -3.2919 -1.7679  1.6596
 2112TIP3    H227752   5.546   3.984  13.726  2.9770  0.4178 -1.1395
 2113TIP3   OH227753   5.741   5.469   3.073  0.3300  0.2217  0.3436
 2113TIP3    H127754   5.690   5.388   3.080 -0.3455  0.4531 -1.4339
 2113TIP3    H227755   5.778   5.466   2.985  0.0967  1.9397  0.1542
 2114TIP3   OH227756   2.288   3.830   5.213  0.0331 -0.3054  0.2684
 2114TIP3    H127757   2.362   3.852   5.157 -1.4364  1.0277 -1.2937
 2114TIP3    H227758   2.307   3.874   5.296  0.1131  1.7477 -0.7641
 2115TIP3   OH227759   4.326   3.661   1.143  0.0230  0.0623  0.1687
 2115TIP3    H127760   4.344   3.750   1.173 -1.9945  1.0352 -1.1965
 2115TIP3    H227761   4.360   3.659   1.053 -2.3403  0.4786 -0.8238
 2116TIP3   OH227762   4.644   2.837  11.535 -0.0738 -0.0015  0.2784
 2116TIP3    H127763   4.576   2.901  11.556  0.0356  0.3607 -0.4336
 2116TIP3    H227764   4.686   2.819  11.618 -0.6712  0.2015  0.6323
 2117TIP3   OH227765   1.521   2.131  13.703  0.1485  0.5910  0.4493
 2117TIP3    H127766   1.462   2.112  13.630  1.4098  0.8767 -0.6901
 2117TIP3    H227767   1.464   2.167  13.772 -0.9544  1.1690 -0.7219
 2118TIP3   OH227768   4.621   4.069   1.422 -0.4383 -0.5955  0.0453
 2118TIP3    H127769   4.527   4.063   1.405 -0.6045 -0.3904  0.8350
 2118TIP3    H227770   4.629   4.137   1.490  0.2479 -0.8408  0.2209
 2119TIP3   OH227771   1.613   3.815  11.658 -0.2008 -0.4067  0.1277
 2119TIP3    H127772   1.701   3.815  11.622 -0.3983  1.7778 -0.4869
 2119TIP3    H227773   1.556   3.824  11.582 -0.8476  0.0304  0.6512
 2120TIP3   OH227774   5.268   3.038   4.562 -0.1686  0.5602  0.1076
 2120TIP3    H127775   5.257   3.039   4.467  0.9752  0.1327 -0.0494
 2120TIP3    H227776   5.298   2.949   4.581  1.9516  1.3163  0.5614
 2121TIP3   OH227777   6.174   0.781  13.338 -0.2334  0.2641 -1.3993
 2121TIP3    H127778   6.081   0.763  13.354 -0.0411 -0.0089 -0.5205
 2121TIP3    H227779   6.215   0.695  13.343  0.2175  0.5127 -0.6590
 2122TIP3   OH227780   4.465   1.177  12.686 -0.3993  0.2903  0.6182
 2122TIP3    H127781   4.482   1.145  12.597 -1.3845 -0.1145  0.5598
 2122TIP3    H227782   4.529   1.248  12.698  0.2728 -0.1670 -0.1125
 2123TIP3   OH227783   0.522   6.027  10.651 -0.2987 -0.6799  0.3596
 2123TIP3    H127784   0.516   5.984  10.737 -1.5084 -1.5701 -0.1380
 2123TIP3    H227785   0.433   6.023  10.617  0.2093 -0.5226 -1.0323
 2124TIP3   OH227786   5.246   3.550   6.659 -0.4569  0.4378  0.5845
 2124TIP3    H127787   5.301   3.627   6.674  0.6823 -0.4103  0.9271
 2124TIP3    H227788   5.238   3.544   6.564 -1.1915  1.4049  0.5764
 2125TIP3   OH227789   2.359   4.477  15.523 -0.0875 -0.0088  0.0928
 2125TIP3    H127790   2.447   4.463  15.490 -0.3263 -1.2964 -0.0786
 2125TIP3    H227791   2.326   4.553  15.475  1.1310  0.8725  0.6113
 2126TIP3   OH227792   3.954   2.708  14.907 -0.0705  0.0405 -0.4844
 2126TIP3    H127793   4.003   2.766  14.848 -0.2966 -0.1773 -0.8896
 2126TIP3    H227794   3.974   2.620  14.875 -1.2484 -0.0304 -1.0702
 2127TIP3   OH227795   1.204   3.751   2.048 -0.1336  0.0071 -0.3900
 2127TIP3    H127796   1.209   3.656   2.038 -0.5774 -0.1461  0.6886
 2127TIP3    H227797   1.114   3.773   2.024 -0.8990 -0.2363  2.0425
 2128TIP3   OH227798   5.114   2.300   2.071 -0.4854 -0.2218 -0.3713
 2128TIP3    H127799   5.088   2.384   2.109  1.4807  0.9394 -1.4592
 2128TIP3    H227800   5.033   2.248   2.072 -1.3272  0.9348  2.1334
 2129TIP3   OH227801   0.602   5.281  14.769  0.3949 -0.1832  0.2872
 2129TIP3    H127802   0.571   5.243  14.686 -0.1821 -0.9581  0.8417
 2129TIP3    H227803   0.602   5.208  14.831  3.7459 -0.3413  0.2763
 2130TIP3   OH227804   4.798   2.491   1.611  0.1931 -0.0402  0.5958
 2130TIP3    H127805   4.817   2.426   1.544 -2.5530 -0.2532 -0.0992
 2130TIP3    H227806   4.734   2.449   1.669  1.6791  0.5192  2.7866
 2131TIP3   OH227807   3.797   6.623  11.505 -0.3930  0.0102  0.1161
 2131TIP3    H127808   3.817   6.529  11.503 -3.3272 -0.7115 -0.0006
 2131TIP3    H227809   3.860   6.662  11.444  1.5511 -1.6743  0.9122
 2132TIP3   OH227810   6.640   2.253  14.002 -0.0377  0.1939  0.8901
 2132TIP3    H127811   6.702   2.277  14.071  2.6837 -1.2374 -0.8790
 2132TIP3    H227812   6.661   2.312  13.929  1.2462 -2.0317 -0.6780
 2133TIP3   OH227813   6.569   6.670  12.246  0.1927  0.0514  0.1110
 2133TIP3    H127814   6.544   6.578  12.249 -0.3337  0.1048 -1.5731
 2133TIP3    H227815   6.514   6.712  12.313  1.0514 -0.9575  1.4956
 2134TIP3   OH227816   2.608   3.703  12.086 -0.3309 -0.4634  0.0031
 2134TIP3    H127817   2.554   3.775  12.053  0.1029 -0.9232 -1.8214
 2134TIP3    H227818   2.548   3.649  12.138 -1.0895  0.1942 -0.1801
 2135TIP3   OH227819   3.952   3.456   1.129 -0.6198  0.1171 -0.4260
 2135TIP3    H127820   3.874   3.444   1.183 -0.1417  0.4710  0.3475
 2135TIP3    H227821   3.942   3.544   1.092  0.6467  1.2358  1.7424
 2136TIP3   OH227822   4.675   4.295  16.801 -0.1011 -0.4657 -0.0295
 2136TIP3    H127823   4.691   4.377  16.847 -1.1289 -0.9864  1.3391
 2136TIP3    H227824   4.629   4.240  16.865  0.7012 -2.1799 -0.8489
 2137TIP3   OH227825   0.436   4.523   0.415 -0.0513  0.2007 -0.3887
 2137TIP3    H127826   0.341   4.518   0.401 -0.0968  2.0017 -1.0519
 2137TIP3    H227827   0.446   4.564   0.500  0.1317 -0.0549 -0.2875
 2138TIP3   OH227828   1.368   6.590  11.901 -0.1519 -0.1279  0.0614
 2138TIP3    H127829   1.350   6.497  11.891  0.2849 -0.1864 -0.2034
 2138TIP3    H227830   1.455   6.602  11.864  0.7539 -0.0106  2.1028
 2139TIP3   OH227831   1.809   1.807  15.169  0.1637 -0.6516  0.3126
 2139TIP3    H127832   1.855   1.745  15.113  0.9136  0.0147  0.1777
 2139TIP3    H227833   1.819   1.772  15.258 -0.7959 -1.5638  0.0817
 2140TIP3   OH227834   6.778   6.199   0.939 -0.2938 -0.0784  0.2725
 2140TIP3    H127835   6.834   6.169   0.867 -1.5475  0.9408 -1.1749
 2140TIP3    H227836   6.779   6.127   1.002  3.3269  0.1968  0.7807
 2141TIP3   OH227837   1.431   1.529   4.050 -0.6371 -0.2385 -0.3755
 2141TIP3    H127838   1.460   1.599   4.109 -0.4709  0.1805 -0.9444
 2141TIP3    H227839   1.356   1.490   4.095 -0.0005 -0.4922  0.5155
 2142TIP3   OH227840   3.073   1.913   2.977 -0.5508  0.1054  0.3841
 2142TIP3    H127841   2.984   1.881   2.989 -0.2904 -1.2716 -1.0885
 2142TIP3    H227842   3.068   1.973   2.903  0.1723 -2.2604 -1.7097
 2143TIP3   OH227843   3.757   6.648  16.771 -0.4830  0.0835 -0.6587
 2143TIP3    H127844   3.735   6.555  16.770 -0.7594  0.1162 -2.6580
 2143TIP3    H227845   3.835   6.654  16.826 -0.0383 -1.4393 -1.0707
 2144TIP3   OH227846   1.078   3.496  13.079 -0.0291 -0.0063 -0.1480
 2144TIP3    H127847   1.130   3.434  13.130  1.7440  1.1590 -0.4410
 2144TIP3    H227848   0.988   3.485  13.112  0.8074 -0.3151  2.2149
 2145TIP3   OH227849   5.749   2.368  14.157  0.3834  0.4343  0.0164
 2145TIP3    H127850   5.793   2.284  14.150  1.3932  0.8244  1.3501
 2145TIP3    H227851   5.820   2.432  14.162 -0.3687  1.4146 -1.3023
 2146TIP3   OH227852   0.261   3.519  13.740 -0.5933 -0.0087  0.0671
 2146TIP3    H127853   0.178   3.560  13.717  0.4225  0.9431 -2.1854
 2146TIP3    H227854   0.310   3.588  13.785 -0.3418  0.0250 -0.2561
 2147TIP3   OH227855   5.836   1.406   1.811 -0.5617 -0.5236  0.4992
 2147TIP3    H127856   5.932   1.409   1.804 -0.5679 -1.4679 -0.0512
 2147TIP3    H227857   5.808   1.354   1.736 -1.5998  0.6513  0.0357
 2148TIP3   OH227858   1.369   6.282   0.488 -0.2605  1.0578 -0.0024
 2148TIP3    H127859   1.462   6.304   0.486  0.4911 -1.6628 -1.4377
 2148TIP3    H227860   1.342   6.297   0.579  2.0694  0.2772  0.8944
 2149TIP3   OH227861   2.495   5.902   3.580  0.4078  0.3148  0.6265
 2149TIP3    H127862   2.417   5.882   3.633 -2.1688 -0.2982 -3.0234
 2149TIP3    H227863   2.522   5.817   3.545  1.0431  0.8773 -0.2630
 2150TIP3   OH227864   3.467   3.656   6.295 -0.3454  0.2192 -0.3086
 2150TIP3    H127865   3.451   3.606   6.375  0.0163 -1.4562 -1.2349
 2150TIP3    H227866   3.563   3.665   6.292 -0.3758  0.4991 -0.4164
 2151TIP3   OH227867   4.084   0.372   5.295 -0.5673  0.7218  0.6043
 2151TIP3    H127868   4.027   0.298   5.316  1.0416 -0.2903  1.5832
 2151TIP3    H227869   4.023   0.446   5.286 -2.2492 -0.7208 -0.6724
 2152TIP3   OH227870   2.057   6.707  16.802 -0.1383 -0.5584 -0.0950
 2152TIP3    H127871   2.030   6.710  16.894  0.8633  0.1679  0.1989
 2152TIP3    H227872   2.143   6.664  16.804  0.1816  0.0400 -0.6038
 2153TIP3   OH227873   4.634   3.456   4.631  0.0580 -0.1849  0.2950
 2153TIP3    H127874   4.700   3.396   4.665  0.5566  1.1723  1.8742
 2153TIP3    H227875   4.684   3.522   4.583 -0.3390 -0.2580 -0.2236
 2154TIP3   OH227876   6.137   0.186  13.894 -0.4222 -0.2709 -0.7474
 2154TIP3    H127877   6.214   0.225  13.937 -1.7275  0.0551  1.4836
 2154TIP3    H227878   6.163   0.096  13.876  0.6806 -0.0086 -0.5626
 2155TIP3   OH227879   0.710   2.105   3.911  0.4286  0.3055  0.2188
 2155TIP3    H127880   0.717   2.059   3.995  0.9113 -0.9132 -0.4614
 2155TIP3    H227881   0.716   2.036   3.845  0.3715  1.2718 -0.8383
 2156TIP3   OH227882   3.842   0.742   0.107  0.2566 -0.0303  0.4605
 2156TIP3    H127883   3.886   0.827   0.114  0.0191  0.0291  1.2528
 2156TIP3    H227884   3.844   0.723   0.013  0.1179  0.9548  0.2389
 2157TIP3   OH227885   6.419   2.883  15.971  0.0527  0.1233 -0.2593
 2157TIP3    H127886   6.435   2.922  16.057  0.6430  0.5534 -0.5576
 2157TIP3    H227887   6.502   2.891  15.925  0.2230 -1.5725 -0.3067
 2158TIP3   OH227888   3.217   4.903   3.486  0.6643 -0.6147  0.0904
 2158TIP3    H127889   3.138   4.922   3.536  0.2867  1.0236 -1.0037
 2158TIP3    H227890   3.215   4.809   3.471 -1.5169 -0.5309 -0.5418
 2159TIP3   OH227891   4.101   5.291  12.508  0.9543  0.2162 -0.4841
 2159TIP3    H127892   4.179   5.346  12.514  1.1133 -0.0245 -0.3720
 2159TIP3    H227893   4.063   5.313  12.423  1.1998  0.2536 -0.5848
 2160TIP3   OH227894   5.958   3.567   3.722 -0.2026  0.3313  0.0857
 2160TIP3    H127895   6.042   3.575   3.766  0.2146  1.3691 -0.8589
 2160TIP3    H227896   5.896   3.611   3.781  0.1456  0.7107  0.1680
 2161TIP3   OH227897   3.384   0.718   5.838  0.0291  0.3383 -0.2290
 2161TIP3    H127898   3.412   0.803   5.873  0.9665  0.3290 -0.9073
 2161TIP3    H227899   3.391   0.729   5.743 -0.9955 -0.1246 -0.3692
 2162TIP3   OH227900   4.813   2.348  16.117  0.5012 -0.1995 -0.3150
 2162TIP3    H127901   4.829   2.398  16.037  0.0354 -0.7404 -0.7536
 2162TIP3    H227902   4.718   2.354  16.131  0.3029 -1.7388 -0.8981
 2163TIP3   OH227903   1.765   5.852  12.994 -0.6676  0.0245  0.1281
 2163TIP3    H127904   1.807   5.916  13.053  0.9496  0.2029 -1.1489
 2163TIP3    H227905   1.680   5.890  12.974 -1.2026  0.0339  2.1940
 2164TIP3   OH227906   6.758   3.975  11.360 -0.4887 -0.2774 -0.3415
 2164TIP3    H127907   6.683   4.025  11.390 -0.6468  0.4405 -1.8381
 2164TIP3    H227908   6.815   3.967  11.437 -0.7495  1.6696  0.0901
 2165TIP3   OH227909   0.181   4.886  14.048 -0.2605  0.8212 -0.0778
 2165TIP3    H127910   0.099   4.844  14.023  1.4576 -1.4376 -2.3939
 2165TIP3    H227911   0.206   4.939  13.972  0.6988  1.0506  0.3704
 2166TIP3   OH227912   6.509   4.700  13.892 -0.0117  0.2007  0.0112
 2166TIP3    H127913   6.450   4.679  13.820  2.9766 -1.3638 -2.1592
 2166TIP3    H227914   6.520   4.618  13.940  2.2003 -0.2373 -1.1129
 2167TIP3   OH227915   4.959   6.780   3.264  0.4588  0.2707 -0.0199
 2167TIP3    H127916   4.930   6.715   3.327 -0.6202  1.1366  0.4059
 2167TIP3    H227917   5.004   6.729   3.196 -0.9459 -1.0142 -0.0499
 2168TIP3   OH227918   0.238   0.433   5.330 -0.0923 -0.1373  0.0836
 2168TIP3    H127919   0.249   0.416   5.424 -0.1603  0.7445  0.2560
 2168TIP3    H227920   0.177   0.507   5.326  1.8819  1.5359 -0.5699
 2169TIP3   OH227921   5.015   4.845   1.671 -0.3159 -0.0939  0.3013
 2169TIP3    H127922   5.007   4.870   1.763  1.4446 -1.3611  0.8359
 2169TIP3    H227923   5.041   4.753   1.672  1.9157  0.4206 -1.3812
 2170TIP3   OH227924   6.721   2.195   0.054 -0.5151  0.8082 -0.1000
 2170TIP3    H127925   6.709   2.290   0.044  1.7176  1.4839  2.2228
 2170TIP3    H227926   6.664   2.172   0.127 -1.8695  0.0831 -1.3476
 2171TIP3   OH227927   5.198   4.452  15.817  0.1842 -0.3449  0.4263
 2171TIP3    H127928   5.144   4.525  15.846  0.4752 -0.1048  0.3701
 2171TIP3    H227929   5.157   4.422  15.736  1.4799  1.3727 -0.9252
 2172TIP3   OH227930   4.866   2.439   3.026  0.8443  0.0644  0.1443
 2172TIP3    H127931   4.861   2.344   3.038  2.0108 -0.0589 -0.2010
 2172TIP3    H227932   4.950   2.464   3.066  0.0141  1.1434  1.3151
 2173TIP3   OH227933   0.190   5.323   4.011 -0.1566 -0.3409  0.1363
 2173TIP3    H127934   0.116   5.376   4.040  1.0218  1.1420  0.5664
 2173TIP3    H227935   0.182   5.320   3.916  0.2276  1.3833  0.0220
 2174TIP3   OH227936   1.894   6.048   0.813  0.1879 -0.4272 -0.4967
 2174TIP3    H127937   1.827   6.112   0.835 -0.8922 -2.1393  1.5432
 2174TIP3    H227938   1.901   6.052   0.717 -0.7796  1.7547 -0.5178
 2175TIP3   OH227939   1.580   0.677  10.511 -0.2237 -0.7451  0.1014
 2175TIP3    H127940   1.634   0.616  10.561 -1.5182 -2.9156 -0.9695
 2175TIP3    H227941   1.515   0.710  10.574  0.2699 -0.7521  0.6127
 2176TIP3   OH227942   3.833   4.092  13.342 -0.0127  0.2928  0.1636
 2176TIP3    H127943   3.846   4.158  13.274 -0.2937 -0.6073 -0.8091
 2176TIP3    H227944   3.900   4.109  13.407  1.2478  0.2713 -1.0906
 2177TIP3   OH227945   0.245   4.465  12.120 -0.2606 -0.0964 -0.0227
 2177TIP3    H127946   0.181   4.447  12.052 -0.6365 -3.2720  1.0245
 2177TIP3    H227947   0.195   4.504  12.191 -0.4132  0.4514 -0.4281
 2178TIP3   OH227948   3.373   5.734  11.062  0.0985  0.0250 -0.3595
 2178TIP3    H127949   3.446   5.758  11.004  0.1580  1.6313  0.3310
 2178TIP3    H227950   3.297   5.730  11.005  0.5109 -0.4824 -0.8865
 2179TIP3   OH227951   3.038   4.719  12.439 -0.0006 -0.2029  0.5745
 2179TIP3    H127952   2.987   4.779  12.494 -0.4095  0.0415 -0.0661
 2179TIP3    H227953   3.011   4.738  12.350  0.4483 -0.8002  0.2994
 2180TIP3   OH227954   4.762   0.857   5.858  0.5245 -0.3533 -0.1909
 2180TIP3    H127955   4.685   0.883   5.807  0.9074  0.3220 -0.4321
 2180TIP3    H227956   4.728   0.846   5.947  0.4781  1.8193  0.1174
 2181TIP3   OH227957   0.529   5.622   2.166 -0.0438 -0.3156  0.1081
 2181TIP3    H127958   0.602   5.623   2.228  0.0666  1.1167 -0.0095
 2181TIP3    H227959   0.451   5.639   2.220 -0.2456 -1.2865  0.1506
 2182TIP3   OH227960   3.848   2.819  15.679 -0.4855 -0.1881 -0.1293
 2182TIP3    H127961   3.769   2.822  15.734 -1.6218  0.2730 -1.7363
 2182TIP3    H227962   3.821   2.773  15.600  0.5114  1.0237 -1.2245
 2183TIP3   OH227963   3.218   2.348  11.240 -0.5177  0.2193 -0.0019
 2183TIP3    H127964   3.180   2.435  11.241 -2.4230 -0.5532 -0.5945
 2183TIP3    H227965   3.250   2.334  11.329 -2.1120  0.7222  0.6783
 2184TIP3   OH227966   6.213   4.553  10.527 -0.2280 -0.5122  0.2529
 2184TIP3    H127967   6.148   4.496  10.567  0.6972  0.0002  2.6126
 2184TIP3    H227968   6.260   4.495  10.466  0.3983 -2.2431  2.2436
 2185TIP3   OH227969   3.543   6.753  11.490  0.0035  0.5206 -0.0246
 2185TIP3    H127970   3.462   6.746  11.440  0.7307 -0.5303 -1.1011
 2185TIP3    H227971   3.601   6.686  11.453  0.8472  0.2148  1.7194
 2186TIP3   OH227972   6.065   5.470   0.519 -0.0888  0.3769 -0.1793
 2186TIP3    H127973   6.041   5.422   0.440  0.6840  1.4742 -1.1086
 2186TIP3    H227974   6.109   5.549   0.487 -0.9174  1.5031  1.2991
 2187TIP3   OH227975   2.436   0.378  13.912  0.2050 -0.1580 -0.1941
 2187TIP3    H127976   2.444   0.474  13.910 -0.0128 -0.1361 -0.0285
 2187TIP3    H227977   2.355   0.360  13.864 -0.4720 -0.1716  0.9162
 2188TIP3   OH227978   6.529   2.471  14.966  0.2167 -0.3969  0.8545
 2188TIP3    H127979   6.461   2.518  15.014  0.9783  0.6723  0.9369
 2188TIP3    H227980   6.594   2.538  14.945  2.6190 -1.8027  3.1612
 2189TIP3   OH227981   3.557   5.914  16.567  0.4918 -0.3969 -0.2179
 2189TIP3    H127982   3.550   5.830  16.521  0.6539 -0.4304 -0.1823
 2189TIP3    H227983   3.530   5.895  16.656 -0.6361 -0.1540 -0.4930
 2190TIP3   OH227984   1.590   6.806   1.372  0.0465  1.0401 -0.2373
 2190TIP3    H127985   1.649   6.791   1.446 -0.2926  1.6967  0.1788
 2190TIP3    H227986   1.551   6.720   1.355  1.1215  0.6030 -0.5272
 2191TIP3   OH227987   2.874   5.526  14.212  0.4805  0.2407  0.4113
 2191TIP3    H127988   2.936   5.460  14.243  0.0704  0.6375  2.1661
 2191TIP3    H227989   2.788   5.485  14.221  0.3988 -0.1167 -1.5257
 2192TIP3   OH227990   3.668   3.615  12.828 -0.1267 -0.4087  0.8988
 2192TIP3    H127991   3.657   3.546  12.762  0.5595 -0.7575  1.1406
 2192TIP3    H227992   3.744   3.587  12.880 -0.0314  0.3712  1.1941
 2193TIP3   OH227993   5.685   3.999  16.423  0.2027  0.0722  0.6548
 2193TIP3    H127994   5.766   4.034  16.459  0.0856  0.6550  0.3661
 2193TIP3    H227995   5.708   3.912  16.392  0.3649 -0.3587  1.9099
 2194TIP3   OH227996   6.134   6.235  16.923 -0.1767 -0.0989 -0.2238
 2194TIP3    H127997   6.209   6.195  16.878  0.6247 -0.0332  1.0270
 2194TIP3    H227998   6.161   6.325  16.939 -1.3171  0.5147 -1.4971
 2195TIP3   OH227999   0.734   0.733   0.945  0.1563 -0.0573 -0.5834
 2195TIP3    H128000   0.764   0.824   0.942  0.5639 -0.0855  1.3668
 2195TIP3    H228001   0.646   0.739   0.984  0.0861 -0.4685 -0.6798
 2196TIP3   OH228002   5.349   0.701  16.184  0.6039 -0.0958 -0.3568
 2196TIP3    H128003   5.404   0.747  16.122 -0.5660 -1.5137 -2.5876
 2196TIP3    H228004   5.401   0.695  16.264  3.2010 -0.3350 -1.9738
 2197TIP3   OH228005   1.593   6.244   0.247 -0.3039  0.6339 -0.4103
 2197TIP3    H128006   1.632   6.260   0.161  0.1756  0.7679 -0.1731
 2197TIP3    H228007   1.511   6.293   0.247 -0.6686  0.0348 -1.0636
 2198TIP3   OH228008   5.020   0.503   2.476  1.0250  0.0444 -0.2427
 2198TIP3    H128009   5.104   0.461   2.457  2.0529  1.7306  0.4471
 2198TIP3    H228010   5.041   0.595   2.492 -0.7706  0.2555  1.2835
 2199TIP3   OH228011   6.229   3.169  13.084 -0.1840 -0.4631 -0.6850
 2199TIP3    H128012   6.269   3.238  13.031 -1.1093  0.8301  0.2286
 2199TIP3    H228013   6.144   3.153  13.042 -0.5425 -0.0673 -0.1169
 2200TIP3   OH228014   1.998   0.173   4.744 -0.2388  0.1258  0.2652
 2200TIP3    H128015   2.014   0.256   4.790 -2.0634  0.7333 -0.1227
 2200TIP3    H228016   2.057   0.177   4.668  0.9439  0.2529  1.1447
 2201TIP3   OH228017   5.797   0.788  14.187  0.1616 -0.4057  0.0738
 2201TIP3    H128018   5.872   0.787  14.127 -0.7480 -0.5789 -1.1024
 2201TIP3    H228019   5.811   0.866  14.242  0.1718  0.7656 -1.5162
 2202TIP3   OH228020   6.539   3.900   1.427 -0.1628 -0.3408  0.2055
 2202TIP3    H128021   6.562   3.945   1.345 -1.2984 -0.0095  0.0531
 2202TIP3    H228022   6.493   3.822   1.398 -3.5716  1.4048  0.4967
 2203TIP3   OH228023   5.020   2.841  16.711 -0.0007 -0.0844 -0.7028
 2203TIP3    H128024   5.057   2.924  16.740  2.5992 -0.8761 -1.4189
 2203TIP3    H228025   5.060   2.826  16.625 -0.6845 -1.9010 -0.7535
 2204TIP3   OH228026   5.106   1.409   4.539 -0.0688  0.1890  0.8090
 2204TIP3    H128027   5.060   1.489   4.514  2.0659  0.5008 -3.0073
 2204TIP3    H228028   5.136   1.424   4.629 -1.9628  2.5134  1.1316
 2205TIP3   OH228029   3.451   4.730  11.580  0.1398 -0.5622  0.2814
 2205TIP3    H128030   3.532   4.707  11.626 -0.9825 -0.2955  2.5655
 2205TIP3    H228031   3.406   4.646  11.569 -0.2957 -0.4658  1.1855
 2206TIP3   OH228032   2.754   6.540  13.140  0.7502  0.0051  0.1462
 2206TIP3    H128033   2.755   6.451  13.105  4.1078 -0.0465  0.0760
 2206TIP3    H228034   2.772   6.596  13.064 -0.6442  0.7161  0.3120
 2207TIP3   OH228035   5.578   2.870  15.808 -0.1065  0.3763  0.2142
 2207TIP3    H128036   5.509   2.807  15.787  0.5778 -0.3217  0.0084
 2207TIP3    H228037   5.542   2.922  15.879 -0.5767 -0.4542  0.6000
 2208TIP3   OH228038   1.683   5.794  14.564 -0.1117  0.2753 -0.1418
 2208TIP3    H128039   1.667   5.771  14.472 -2.2808  0.9477 -0.0010
 2208TIP3    H228040   1.600   5.832  14.593  1.1758  1.9615  1.5264
 2209TIP3   OH228041   1.067   2.038   5.438 -0.0582 -0.3311  0.1878
 2209TIP3    H128042   0.990   2.094   5.435 -0.2423 -0.3493  2.4349
 2209TIP3    H228043   1.058   1.979   5.363 -0.3112  1.9932 -1.7141
 2210TIP3   OH228044   0.521   2.735  14.448 -0.3946  0.0434 -0.1345
 2210TIP3    H128045   0.453   2.798  14.472  2.6103  3.5371 -0.0588
 2210TIP3    H228046   0.563   2.712  14.531 -0.6527 -1.1419 -0.3113
 2211TIP3   OH228047   1.289   1.374   2.293 -0.0738 -0.2127 -0.5066
 2211TIP3    H128048   1.203   1.405   2.323  0.4773  0.4986  0.3840
 2211TIP3    H228049   1.278   1.362   2.198 -0.6018  1.8067 -0.7558
 2212TIP3   OH228050   4.835   0.098  13.169 -0.0812 -0.1052  0.0567
 2212TIP3    H128051   4.882   0.163  13.118 -0.8201  1.6347  1.4663
 2212TIP3    H228052   4.896   0.073  13.239  0.2026 -0.9492 -0.4844
 2213TIP3   OH228053   2.360   5.031   1.632  0.6234  0.0436  0.6713
 2213TIP3    H128054   2.384   5.102   1.691 -0.6637 -0.6477  2.0964
 2213TIP3    H228055   2.272   5.006   1.659 -0.2838  0.0892 -1.9650
 2214TIP3   OH228056   3.778   4.352   4.699  0.1406  0.5739  0.0783
 2214TIP3    H128057   3.698   4.402   4.712  0.2114  0.1420  2.4989
 2214TIP3    H228058   3.845   4.399   4.749  0.8388 -0.3967  0.0887
 2215TIP3   OH228059   5.380   5.981  14.272 -0.0525 -0.1338 -0.3276
 2215TIP3    H128060   5.310   5.941  14.220  0.8915 -0.9830 -0.9846
 2215TIP3    H228061   5.460   5.964  14.221  0.4605  2.2422 -0.4216
 2216TIP3   OH228062   0.944   1.133   2.973 -0.7137 -0.5580 -0.0960
 2216TIP3    H128063   0.904   1.205   3.022 -0.9772 -1.2356  0.6988
 2216TIP3    H228064   0.874   1.102   2.916 -0.2969  0.4802 -1.2210
 2217TIP3   OH228065   5.911   1.235   5.726 -0.1900 -0.0020 -0.1787
 2217TIP3    H128066   5.871   1.242   5.640 -1.2789  1.0246  0.3833
 2217TIP3    H228067   5.998   1.273   5.716  0.1366 -0.9778 -1.0928
 2218TIP3   OH228068   1.946   5.485  13.551  0.0360  0.0967 -0.1143
 2218TIP3    H128069   1.919   5.524  13.468 -1.2312 -0.3757  0.0622
 2218TIP3    H228070   2.039   5.467  13.539  0.1696  1.2199 -0.9563
 2219TIP3   OH228071   0.288   4.787   0.672 -0.3795  0.1294  0.3103
 2219TIP3    H128072   0.198   4.788   0.639 -0.0414  1.6102 -0.6145
 2219TIP3    H228073   0.335   4.850   0.618  1.3249 -0.8896  0.5367
 2220TIP3   OH228074   6.022   6.027  15.469 -0.3651  0.1671  0.2283
 2220TIP3    H128075   5.981   6.113  15.462 -0.2896  0.0575 -3.8564
 2220TIP3    H228076   6.110   6.045  15.503 -1.4924  1.1403  2.9297
 2221TIP3   OH228077   4.517   3.220   3.504 -0.3171  0.0113 -0.2235
 2221TIP3    H128078   4.526   3.247   3.413 -0.8659  0.5245 -0.1311
 2221TIP3    H228079   4.508   3.125   3.500 -2.1732  0.1737 -0.8570
 2222TIP3   OH228080   5.610   3.820  14.601 -0.2555  0.4063 -0.0010
 2222TIP3    H128081   5.654   3.736  14.609 -0.0161  0.5504  0.2286
 2222TIP3    H228082   5.627   3.848  14.511 -0.1422  0.3155 -0.0082
 2223TIP3   OH228083   0.966   1.291  11.695 -0.7254 -0.0647 -0.3410
 2223TIP3    H128084   0.939   1.291  11.786  0.5846  1.2759  0.0847
 2223TIP3    H228085   1.045   1.237  11.693  1.0887  2.4146 -0.0144
 2224TIP3   OH228086   3.046   0.714  14.451 -0.3651 -0.1510 -0.1769
 2224TIP3    H128087   2.966   0.673  14.417 -1.3157  0.6562  1.0006
 2224TIP3    H228088   3.027   0.808  14.450  0.2568  0.0001  0.8717
 2225TIP3   OH228089   2.198   2.199  14.244 -0.0512 -0.2842 -0.4905
 2225TIP3    H128090   2.193   2.271  14.181  0.1624  0.3687  0.2218
 2225TIP3    H228091   2.248   2.131  14.199 -0.4474 -0.0816 -1.2555
 2226TIP3   OH228092   2.363   6.011   4.024 -0.3105 -0.2726 -0.1544
 2226TIP3    H128093   2.320   6.061   3.955 -1.3970  0.1904  0.8201
 2226TIP3    H228094   2.295   5.954   4.058 -0.4056  0.9740  1.9095
 2227TIP3   OH228095   0.271   0.592   3.977  0.1618  0.9146 -0.3722
 2227TIP3    H128096   0.359   0.594   4.013 -0.1983  1.6889  0.5077
 2227TIP3    H228097   0.214   0.614   4.051 -0.7812  0.3001 -0.8926
 2228TIP3   OH228098   4.117   0.374  13.161 -0.2828 -0.1185  0.2458
 2228TIP3    H128099   4.183   0.418  13.107  0.4184 -0.5248  0.7617
 2228TIP3    H228100   4.093   0.296  13.110  0.1546 -0.3401  0.3733
 2229TIP3   OH228101   1.252   1.914   4.947  0.2895  0.2604 -0.1378
 2229TIP3    H128102   1.308   1.908   5.025 -0.7434 -1.1196  0.5413
 2229TIP3    H228103   1.243   2.008   4.931  0.8003  0.5599  1.2092
 2230TIP3   OH228104   4.104   6.452  12.879  0.3588  0.2270 -0.3346
 2230TIP3    H128105   4.184   6.504  12.884  0.1262  0.7847 -1.7912
 2230TIP3    H228106   4.126   6.381  12.819 -0.5888  1.1408 -1.8357
 2231TIP3   OH228107   3.426   6.673  13.388  0.3839 -0.1975  0.0686
 2231TIP3    H128108   3.519   6.691  13.374  0.4404  0.5014  1.2378
 2231TIP3    H228109   3.404   6.719  13.469 -0.9797 -0.3764 -0.1703
 2232TIP3   OH228110   0.016   1.785  12.376  0.1369 -0.0484  0.0511
 2232TIP3    H128111   0.035   1.735  12.456  0.2034  2.2304  1.5307
 2232TIP3    H228112  -0.079   1.779  12.366  0.1068 -0.1708  0.4110
 2233TIP3   OH228113   1.307   1.990  10.461  0.1005  0.3483 -0.2765
 2233TIP3    H128114   1.236   1.948  10.509  0.8457 -1.8295 -0.9683
 2233TIP3    H228115   1.383   1.983  10.520  0.1299  1.1633 -0.2128
 2234TIP3   OH228116   1.756   2.349   5.903  0.0007  0.1089  0.0526
 2234TIP3    H128117   1.851   2.355   5.916  0.1741  0.3957 -1.1825
 2234TIP3    H228118   1.745   2.358   5.808 -1.3145  0.7345  0.2500
 2235TIP3   OH228119   4.281   1.260  13.722 -0.0816  0.5558 -0.4085
 2235TIP3    H128120   4.276   1.306  13.806 -3.3474 -0.3057 -0.0120
 2235TIP3    H228121   4.260   1.327  13.657  0.5109  0.7796 -0.3794
 2236TIP3   OH228122   3.695   4.910  12.049  0.1144  0.1992 -0.1360
 2236TIP3    H128123   3.683   4.935  12.141 -1.8924  0.8724 -0.5283
 2236TIP3    H228124   3.662   4.820  12.044  0.6074  0.0183 -0.1138
 2237TIP3   OH228125   2.769   3.137   1.335 -0.4647 -0.0496 -0.2918
 2237TIP3    H128126   2.786   3.133   1.429 -0.6843  0.9400 -0.1980
 2237TIP3    H228127   2.726   3.222   1.322 -0.5604 -0.2354 -1.2660
 2238TIP3   OH228128   4.715   6.603  13.994 -0.6221 -0.1321 -0.3004
 2238TIP3    H128129   4.704   6.676  14.055  2.7790 -0.4345  0.8576
 2238TIP3    H228130   4.750   6.532  14.048 -2.1153 -2.1025 -1.7634
 2239TIP3   OH228131   1.546   0.278  11.362  0.4997  0.4118 -0.2150
 2239TIP3    H128132   1.638   0.293  11.341  0.5300  2.0002  0.8730
 2239TIP3    H228133   1.504   0.364  11.352 -0.8445 -0.2532 -0.5497
 2240TIP3   OH228134   3.551   6.551   4.203 -0.4151 -0.0471 -0.4538
 2240TIP3    H128135   3.575   6.497   4.127  0.1829  1.1977 -1.1887
 2240TIP3    H228136   3.578   6.499   4.279  0.6951 -0.5352 -1.1549
 2241TIP3   OH228137   4.257   5.304  15.002  0.9839  0.0861  0.6179
 2241TIP3    H128138   4.175   5.300  14.952  0.2107  0.9098  1.7759
 2241TIP3    H228139   4.323   5.269  14.942 -0.4813 -2.3707  0.2895
 2242TIP3   OH228140   6.684   0.907   0.858 -0.7661  0.1178 -0.3084
 2242TIP3    H128141   6.627   0.946   0.792 -1.1348 -1.6406 -1.0982
 2242TIP3    H228142   6.674   0.812   0.845 -0.3625 -0.2750  1.8732
 2243TIP3   OH228143   3.446   2.474  16.521 -0.6466  0.3397  0.7108
 2243TIP3    H128144   3.378   2.430  16.572 -0.6487 -0.0301  0.3891
 2243TIP3    H228145   3.495   2.403  16.479 -1.0185  0.6642 -0.2830
 2244TIP3   OH228146   5.858   5.619  15.896 -0.4638  0.1844 -0.0565
 2244TIP3    H128147   5.777   5.650  15.855 -0.8241 -0.4926  0.1422
 2244TIP3    H228148   5.841   5.623  15.990 -0.9456 -1.7238 -0.0367
 2245TIP3   OH228149   1.800   2.463   1.190 -0.2069 -0.4168 -0.2529
 2245TIP3    H128150   1.809   2.432   1.099 -1.9450 -1.5743 -0.0798
 2245TIP3    H228151   1.862   2.410   1.240  0.3432 -0.1709 -0.6589
 2246TIP3   OH228152   4.940   2.523   0.381  0.2474  0.0204  0.0278
 2246TIP3    H128153   4.866   2.567   0.340 -0.0533 -0.7736 -0.3033
 2246TIP3    H228154   4.910   2.433   0.394  0.2397  0.3099  2.2529
 2247TIP3   OH228155   4.310   1.632   1.340 -0.0599 -0.3002  0.0831
 2247TIP3    H128156   4.231   1.589   1.372 -0.6244  0.7556  0.1420
 2247TIP3    H228157   4.321   1.599   1.251 -1.7762  1.1070 -0.7072
 2248TIP3   OH228158   0.267   1.467  15.989 -0.2568 -0.2512 -0.3550
 2248TIP3    H128159   0.247   1.479  15.896  0.6861  0.3215 -0.5059
 2248TIP3    H228160   0.191   1.421  16.025  0.0773 -2.0137 -1.7516
 2249TIP3   OH228161   6.592   3.992  13.864  0.8566 -0.4535 -0.4370
 2249TIP3    H128162   6.654   3.919  13.857 -0.4619 -1.6959  0.3353
 2249TIP3    H228163   6.631   4.061  13.811  2.4982 -1.4724 -0.6388
 2250TIP3   OH228164   2.174   3.361   4.378  0.0606  0.0963  0.1052
 2250TIP3    H128165   2.258   3.408   4.382 -0.5096  1.0504  1.7827
 2250TIP3    H228166   2.110   3.429   4.358 -0.4427 -0.4485 -0.1477
 2251TIP3   OH228167   1.987   0.516   0.171  0.3661 -0.7574 -0.2715
 2251TIP3    H128168   2.058   0.467   0.128  0.9007 -0.4244  0.2190
 2251TIP3    H228169   1.955   0.458   0.239  2.0884  0.1392  1.3956
 2252TIP3   OH228170   0.471   4.882   1.535 -0.3283 -0.8159 -0.1775
 2252TIP3    H128171   0.557   4.880   1.493 -0.3578  1.3055 -0.4409
 2252TIP3    H228172   0.434   4.796   1.517  2.0266 -2.0792  0.6180
 2253TIP3   OH228173   2.794   2.351   1.607  0.0831  0.1256  0.1874
 2253TIP3    H128174   2.848   2.294   1.662 -0.8209 -0.4900  0.4617
 2253TIP3    H228175   2.821   2.331   1.517 -0.8285 -1.3992  0.2266
 2254TIP3   OH228176   0.183   0.077   6.372 -0.5457  0.2998  0.1697
 2254TIP3    H128177   0.209   0.065   6.463 -0.3651  1.1076  0.2300
 2254TIP3    H228178   0.197   0.170   6.355 -1.2569  0.2968 -0.4727
 2255TIP3   OH228179   0.749   4.467  15.059 -0.4024 -0.4037  0.3399
 2255TIP3    H128180   0.724   4.444  15.149  0.5301 -0.9110  0.4800
 2255TIP3    H228181   0.787   4.387  15.023  2.1297  0.5985  0.5564
 2256TIP3   OH228182   5.257   5.817  14.448  0.3418 -0.4409 -0.5446
 2256TIP3    H128183   5.329   5.802  14.509 -0.8652 -0.1422  1.0509
 2256TIP3    H228184   5.267   5.908  14.421 -1.1395  0.6940  2.2332
 2257TIP3   OH228185   0.889   1.421   1.292 -0.1583 -0.1531  0.1776
 2257TIP3    H128186   0.973   1.452   1.326 -0.1555 -1.8756  1.8968
 2257TIP3    H228187   0.844   1.501   1.265  1.2329  0.9936  1.0786
 2258TIP3   OH228188   3.666   5.719   3.003 -0.6455  0.0308  0.4687
 2258TIP3    H128189   3.625   5.781   2.943  0.7164 -0.1663 -0.7272
 2258TIP3    H228190   3.684   5.769   3.082 -1.4475  0.5995  0.2960
 2259TIP3   OH228191   0.239   5.167  15.954 -0.0616  0.7657  0.3831
 2259TIP3    H128192   0.191   5.084  15.955  2.1551 -0.6167 -0.6170
 2259TIP3    H228193   0.241   5.195  16.046  1.0381 -1.4588  1.0862
 2260TIP3   OH228194   0.186   0.522  11.841  0.5591 -0.6140 -0.9214
 2260TIP3    H128195   0.107   0.515  11.788  1.0336  2.5961 -2.2812
 2260TIP3    H228196   0.179   0.450  11.904 -3.0049 -0.9578 -1.4893
 2261TIP3   OH228197   4.930   3.621  13.945  0.4396  0.1435 -0.1171
 2261TIP3    H128198   4.861   3.687  13.952  0.0439 -0.1793 -0.8971
 2261TIP3    H228199   4.884   3.540  13.925  0.7208 -0.8509  2.7875
 2262TIP3   OH228200   6.570   3.209   3.197 -0.1186  0.0082  0.3325
 2262TIP3    H128201   6.560   3.224   3.103 -0.4851  0.2041  0.3996
 2262TIP3    H228202   6.663   3.191   3.210 -0.4404 -2.7664 -0.4680
 2263TIP3   OH228203   2.461   3.127   0.329  0.0470  0.2990  0.1647
 2263TIP3    H128204   2.423   3.134   0.417 -1.6889  0.3793 -0.5482
 2263TIP3    H228205   2.431   3.042   0.297  1.3082 -0.0599 -0.0766
 2264TIP3   OH228206   1.244   0.894  16.956 -0.0830  0.5287 -0.1404
 2264TIP3    H128207   1.302   0.937  17.019  1.6904  0.6558 -1.7554
 2264TIP3    H228208   1.171   0.954  16.945  0.8909  1.7471 -0.1429
 2265TIP3   OH228209   5.231   2.061  16.138  0.3187 -0.5642  0.2246
 2265TIP3    H128210   5.276   1.997  16.083  1.2305 -0.8647  1.2602
 2265TIP3    H228211   5.138   2.042  16.127  0.4974 -0.8267 -0.9292
 2266TIP3   OH228212   0.878   3.561  12.441 -0.0123 -0.7072 -0.3260
 2266TIP3    H128213   0.883   3.648  12.400 -1.1055 -0.6793 -0.4350
 2266TIP3    H228214   0.787   3.554  12.469  0.0780 -1.8134 -0.2974
 2267TIP3   OH228215   6.517   2.777   4.316  0.7356 -1.0186 -0.4612
 2267TIP3    H128216   6.455   2.767   4.244 -1.8704  1.3440  1.2458
 2267TIP3    H228217   6.565   2.694   4.318 -3.2209 -3.5664 -1.1295
 2268TIP3   OH228218   6.461   5.777  10.916  0.0406  0.5538 -0.0808
 2268TIP3    H128219   6.441   5.847  10.853 -2.3917 -0.1069 -0.1603
 2268TIP3    H228220   6.508   5.711  10.865 -0.7376  0.6186 -0.9205
 2269TIP3   OH228221   4.759   4.789  15.472 -0.5720 -0.0809 -0.4241
 2269TIP3    H128222   4.755   4.809  15.565  0.0332 -1.9776  0.0428
 2269TIP3    H228223   4.714   4.706  15.463 -0.0843 -0.2254 -1.7287
 2270TIP3   OH228224   1.732   3.388  13.798 -0.5713  0.0920 -0.2107
 2270TIP3    H128225   1.766   3.364  13.885  1.5557  0.9350 -0.7535
 2270TIP3    H228226   1.719   3.304  13.753 -2.1514 -0.3847  1.0232
 2271TIP3   OH228227   4.969   3.717  10.958 -0.4792 -0.0218 -0.0141
 2271TIP3    H128228   4.918   3.645  10.996 -0.3622  0.7053  1.6128
 2271TIP3    H228229   4.908   3.791  10.957  0.1522  0.5254  0.7780
 2272TIP3   OH228230   4.739   0.971  13.399 -0.1983  0.8200  0.0961
 2272TIP3    H128231   4.773   1.059  13.414 -1.5980  1.3054  0.6115
 2272TIP3    H228232   4.705   0.944  13.484  1.7329 -0.9403  0.3695
 2273TIP3   OH228233   3.743   4.986   3.092  0.0002 -0.2556  0.1538
 2273TIP3    H128234   3.751   4.973   3.186  0.8918 -0.0541  0.1115
 2273TIP3    H228235   3.763   4.901   3.054  1.3252  0.0633  0.0838
 2274TIP3   OH228236   2.064   4.083  10.838 -0.2326  0.2900  0.8892
 2274TIP3    H128237   2.132   4.036  10.789  0.1198  1.5784  0.0923
 2274TIP3    H228238   2.112   4.149  10.888 -0.6522 -0.6109  2.5492
 2275TIP3   OH228239   0.757   4.528  12.906 -0.3777  0.1526  0.0805
 2275TIP3    H128240   0.761   4.586  12.982 -0.5167 -0.7356  0.7802
 2275TIP3    H228241   0.677   4.478  12.918 -0.1965 -0.2732 -0.4543
 2276TIP3   OH228242   1.211   2.338   0.698 -0.1938 -0.1164 -1.2195
 2276TIP3    H128243   1.147   2.281   0.741 -2.0511  2.0875 -0.8569
 2276TIP3    H228244   1.168   2.364   0.616  0.8907  0.2489 -1.6901
 2277TIP3   OH228245   5.309   3.941   0.806  0.2632  0.2638 -0.0784
 2277TIP3    H128246   5.365   3.892   0.745 -0.0872  0.7144 -0.7869
 2277TIP3    H228247   5.248   3.876   0.840  0.0794  0.1096 -0.6819
 2278TIP3   OH228248   0.938   6.493   6.254  0.2559  0.0047  0.1260
 2278TIP3    H128249   0.990   6.430   6.305  0.1993  1.4108  2.0602
 2278TIP3    H228250   0.877   6.530   6.318 -0.2011  1.4790 -1.1181
 2279TIP3   OH228251   3.133   3.845   4.019 -1.1064  0.1787  0.1575
 2279TIP3    H128252   3.091   3.872   3.937 -1.7337 -0.1076  0.3765
 2279TIP3    H228253   3.145   3.750   4.009  0.4296  0.3977 -0.3177
 2280TIP3   OH228254   4.171   6.665   5.275  0.0605 -0.1673 -0.0063
 2280TIP3    H128255   4.171   6.721   5.353  1.1510  0.3822 -0.3786
 2280TIP3    H228256   4.086   6.621   5.277  0.1458 -0.3329  1.6137
 2281TIP3   OH228257   2.826   2.029  13.963 -0.3267  0.5609 -0.1497
 2281TIP3    H128258   2.890   1.991  13.902 -1.4121 -0.9407 -0.3975
 2281TIP3    H228259   2.879   2.070  14.031  0.8975 -0.0843 -0.6906
 2282TIP3   OH228260   0.982   3.599  16.596 -0.1515  0.4100  0.9887
 2282TIP3    H128261   0.958   3.685  16.632  1.2718  0.2181  2.5234
 2282TIP3    H228262   1.057   3.618  16.539 -0.0250  0.2258  1.0953
 2283TIP3   OH228263   3.173   1.741   0.794 -0.6353  0.2524  0.2275
 2283TIP3    H128264   3.096   1.782   0.836  0.4189  1.7744  0.7874
 2283TIP3    H228265   3.154   1.647   0.795 -2.1973  0.5422  0.9527
 2284TIP3   OH228266   5.961   2.184  15.756  0.4771  0.1646 -0.0510
 2284TIP3    H128267   5.997   2.189  15.844 -0.8735  3.2655  0.4626
 2284TIP3    H228268   6.034   2.205  15.698  1.2510 -1.3960  0.3050
 2285TIP3   OH228269   4.912   1.175  10.627  0.1522 -0.3439 -0.5316
 2285TIP3    H128270   4.912   1.268  10.607 -0.8650 -0.4371 -0.9955
 2285TIP3    H228271   4.833   1.161  10.679 -0.1131 -1.0774 -1.1144
 2286TIP3   OH228272   5.622   4.001   6.208  0.2487  0.1040  0.2502
 2286TIP3    H128273   5.682   4.061   6.164  1.7145  0.3539  2.3910
 2286TIP3    H228274   5.621   3.922   6.153  2.6454  0.0657  0.1417
 2287TIP3   OH228275   1.786   0.651  11.024 -0.2016 -0.1083  0.1059
 2287TIP3    H128276   1.851   0.593  10.984 -0.0126  1.0248 -1.3147
 2287TIP3    H228277   1.708   0.641  10.969 -0.1495  0.9847 -0.1940
 2288TIP3   OH228278   2.517   0.723   1.061 -0.7412  0.2017  0.1052
 2288TIP3    H128279   2.575   0.755   1.130 -0.4027 -1.3953  0.6019
 2288TIP3    H228280   2.455   0.666   1.106 -0.6918 -0.6486 -0.8406
 2289TIP3   OH228281   3.488   5.575  12.852  0.4037 -0.6691  0.3772
 2289TIP3    H128282   3.435   5.524  12.913  0.8214 -0.7809  0.6536
 2289TIP3    H228283   3.534   5.509  12.799 -0.0145 -0.5716 -0.1057
 2290TIP3   OH228284   5.119   4.584   5.324 -0.8475  0.6872  0.0860
 2290TIP3    H128285   5.191   4.612   5.268 -0.9068  1.5455  0.4313
 2290TIP3    H228286   5.154   4.512   5.375 -0.9292 -0.4642 -1.3923
 2291TIP3   OH228287   4.342   5.149   5.468  0.3185  0.1221 -0.0201
 2291TIP3    H128288   4.272   5.162   5.532  0.2350 -0.0653 -0.0724
 2291TIP3    H228289   4.345   5.232   5.419 -0.2859 -0.0868 -0.4265
 2292TIP3   OH228290   1.217   3.658   0.844 -0.0537 -0.4570 -0.3386
 2292TIP3    H128291   1.190   3.733   0.895 -0.0365 -0.0210 -0.9533
 2292TIP3    H228292   1.227   3.587   0.907 -0.1186  0.0457  0.2372
 2293TIP3   OH228293   1.770   1.552  13.888 -0.0426 -0.0842 -0.3305
 2293TIP3    H128294   1.688   1.533  13.843 -1.2466 -1.7232  2.2589
 2293TIP3    H228295   1.759   1.642  13.921 -0.0467  0.3208 -1.3978
 2294TIP3   OH228296   4.206   4.512   2.607 -0.3395 -0.1612  0.3328
 2294TIP3    H128297   4.141   4.444   2.590 -0.5206  0.1316 -0.1729
 2294TIP3    H228298   4.155   4.594   2.605  0.1440  0.1217 -0.6854
 2295TIP3   OH228299   5.648   6.549  13.423  0.1328 -0.0561 -0.1907
 2295TIP3    H128300   5.620   6.494  13.497 -0.6342 -1.2069 -1.2811
 2295TIP3    H228301   5.714   6.608  13.460 -0.1787 -0.6392  1.3848
 2296TIP3   OH228302   5.739   2.848  11.865 -0.4455 -0.2291  0.2051
 2296TIP3    H128303   5.751   2.932  11.822 -1.7347  1.2902  2.6050
 2296TIP3    H228304   5.663   2.809  11.822 -2.2509  1.6379  1.5457
 2297TIP3   OH228305   2.225   6.478   5.767  0.1512 -0.5281  0.3024
 2297TIP3    H128306   2.282   6.428   5.708  2.2116  1.0628  0.8048
 2297TIP3    H228307   2.219   6.564   5.726 -2.9488 -0.9138 -0.3195
 2298TIP3   OH228308   5.977   4.773  13.745 -0.2673  0.1060  0.1910
 2298TIP3    H128309   6.016   4.696  13.787  0.4804 -0.2490 -1.0779
 2298TIP3    H228310   6.051   4.816  13.701 -1.3493 -1.2123 -3.2765
 2299TIP3   OH228311   4.329   3.689   4.136  0.0038 -0.8595  0.1784
 2299TIP3    H128312   4.300   3.779   4.130 -0.0689 -0.9737 -1.8861
 2299TIP3    H228313   4.254   3.641   4.172  0.1744 -0.0692  1.6307
 2300TIP3   OH228314   4.950   2.965  14.252 -0.0049 -0.1684 -0.7830
 2300TIP3    H128315   4.970   3.018  14.175  0.5823 -0.0914 -0.5842
 2300TIP3    H228316   5.005   3.003  14.321 -2.7362  1.8096  0.5148
 2301TIP3   OH228317   2.933   3.618  14.818  0.2733  0.5125  0.0667
 2301TIP3    H128318   2.899   3.592  14.904  1.1387  0.9106  0.5499
 2301TIP3    H228319   2.918   3.712  14.814 -0.3580  0.3973 -0.5095
 2302TIP3   OH228320   6.688   2.595  13.554 -0.0149 -0.1534  0.1717
 2302TIP3    H128321   6.681   2.670  13.614  0.6361  0.7571 -0.8632
 2302TIP3    H228322   6.705   2.634  13.468  0.9057 -1.5067 -0.2960
 2303TIP3   OH228323   5.500   0.962  12.580  0.0135  0.5471 -0.1323
 2303TIP3    H128324   5.488   0.971  12.674 -1.4401  0.3443 -0.2826
 2303TIP3    H228325   5.557   1.035  12.556  2.4893 -0.8110  1.2465
 2304TIP3   OH228326   2.436   0.284  14.877  0.6931 -0.0346 -0.0337
 2304TIP3    H128327   2.465   0.241  14.958  1.6673  2.4492  1.0309
 2304TIP3    H228328   2.498   0.254  14.811  0.7035 -1.0682  0.4281
 2305TIP3   OH228329   1.417   3.315   1.484  0.0253 -0.1819  0.1921
 2305TIP3    H128330   1.508   3.335   1.506 -0.3827  2.4794 -0.2274
 2305TIP3    H228331   1.397   3.238   1.537  2.9383 -1.8731 -0.8915
 2306TIP3   OH228332   4.296   3.092   2.456  0.8809  0.0802  0.2552
 2306TIP3    H128333   4.202   3.108   2.468  1.2472  1.8482  0.9958
 2306TIP3    H228334   4.306   2.998   2.470 -0.6513  0.0010  1.0132
 2307TIP3   OH228335   2.707   0.249  15.910  0.2782 -0.4791  0.2825
 2307TIP3    H128336   2.614   0.227  15.905  0.5610 -1.4404 -1.2188
 2307TIP3    H228337   2.748   0.198  15.841  1.8905  0.1980  0.6875
 2308TIP3   OH228338   4.146   4.600  15.919  0.1794  0.2583 -0.0873
 2308TIP3    H128339   4.064   4.552  15.910 -0.5352  1.1738  1.2888
 2308TIP3    H228340   4.141   4.642  16.005  2.0679  0.3806  0.0231
 2309TIP3   OH228341   3.175   0.851  13.564 -0.5238 -0.3650  0.2691
 2309TIP3    H128342   3.133   0.794  13.629  1.8092 -0.9932  1.3261
 2309TIP3    H228343   3.151   0.940  13.590 -1.4062 -0.6948  0.6398
 2310TIP3   OH228344   5.062   5.181   3.586  0.7532  0.1717  0.3255
 2310TIP3    H128345   5.086   5.094   3.554  1.3021  0.6348 -0.5563
 2310TIP3    H228346   4.969   5.190   3.566  0.9375  0.1942 -0.5644
 2311TIP3   OH228347   3.469   1.125  14.838 -0.0739 -0.6836  0.8386
 2311TIP3    H128348   3.549   1.100  14.885  0.7128  0.9655  0.4559
 2311TIP3    H228349   3.408   1.151  14.907  0.6474  0.5562  1.0244
 2312TIP3   OH228350   2.440   0.769   2.878  0.1293 -0.2255 -0.1812
 2312TIP3    H128351   2.482   0.855   2.891  2.1825 -1.6161  5.1446
 2312TIP3    H228352   2.501   0.721   2.822  0.9809  0.6092  0.0024
 2313TIP3   OH228353   0.924   5.308   4.454  0.5184 -0.0265 -0.4084
 2313TIP3    H128354   0.873   5.300   4.535  2.1373  1.4896  0.8421
 2313TIP3    H228355   0.868   5.360   4.396 -0.5228 -0.8444 -0.1748
 2314TIP3   OH228356   3.225   4.732   2.900 -0.2789 -0.0876 -0.0589
 2314TIP3    H128357   3.172   4.808   2.922 -0.1417 -0.1257  0.4166
 2314TIP3    H228358   3.300   4.768   2.853 -1.2329 -0.1296 -1.6853
 2315TIP3   OH228359   5.200   4.776  14.450  0.5720  0.3640 -0.5418
 2315TIP3    H128360   5.111   4.800  14.476  0.0647  0.1400 -1.9210
 2315TIP3    H228361   5.187   4.708  14.383  1.7336  1.0250 -1.4892
 2316TIP3   OH228362   2.103   3.086   1.591 -0.0627 -0.0316 -0.4409
 2316TIP3    H128363   2.023   3.115   1.548 -0.9471  0.6259  1.5219
 2316TIP3    H228364   2.151   3.037   1.524 -2.1858 -0.6120 -1.6047
 2317TIP3   OH228365   3.483   1.873   3.578 -0.0696 -0.3715 -0.1823
 2317TIP3    H128366   3.408   1.814   3.584  2.8422 -4.2872  2.5916
 2317TIP3    H228367   3.491   1.912   3.665  1.5466 -0.6962 -0.1505
 2318TIP3   OH228368   5.886   2.306   4.735  0.1358 -0.0628  0.2518
 2318TIP3    H128369   5.874   2.225   4.686  0.1482  0.3880 -0.5157
 2318TIP3    H228370   5.928   2.279   4.817  0.7212 -0.7600 -0.2632
 2319TIP3   OH228371   6.305   4.025   0.220 -0.2635  0.1486 -0.4291
 2319TIP3    H128372   6.316   3.932   0.199 -3.8738 -0.6964  0.6354
 2319TIP3    H228373   6.315   4.029   0.315  1.3203  1.1627 -0.6192
 2320TIP3   OH228374   5.155   5.768  15.942  0.5138  0.3510  0.2770
 2320TIP3    H128375   5.250   5.761  15.928  0.1998 -0.5128 -1.7994
 2320TIP3    H228376   5.123   5.813  15.864 -1.0653 -1.6431 -0.2973
 2321TIP3   OH228377   1.684   0.648   2.951 -0.0948  0.1342  0.1613
 2321TIP3    H128378   1.681   0.642   3.047  5.2894  0.7448  0.7162
 2321TIP3    H228379   1.705   0.559   2.922  1.5836  0.5409  0.0130
 2322TIP3   OH228380   3.788   6.433   6.400  0.3479  0.0812 -0.7341
 2322TIP3    H128381   3.761   6.521   6.425  0.3988 -0.1680  0.2314
 2322TIP3    H228382   3.882   6.430   6.418 -0.1452 -1.1043  2.2319
 2323TIP3   OH228383   0.612   3.289   4.324 -0.6937 -0.2160 -0.0367
 2323TIP3    H128384   0.690   3.258   4.278 -1.2439 -2.2087  0.2688
 2323TIP3    H228385   0.593   3.220   4.388 -2.6641  0.2320 -0.0750
 2324TIP3   OH228386   1.410   5.049  14.477 -0.3262 -0.0597  0.0141
 2324TIP3    H128387   1.470   4.974  14.473  1.2291  1.1861 -2.2877
 2324TIP3    H228388   1.326   5.013  14.449 -0.3151 -1.5098  1.7014
 2325TIP3   OH228389   3.310   1.012  16.477  0.1150  0.2897 -0.1656
 2325TIP3    H128390   3.386   0.970  16.518  0.2643  0.2383 -0.4897
 2325TIP3    H228391   3.235   0.958  16.503  0.1370  0.5554  0.4676
 2326TIP3   OH228392   1.845   5.197  12.423 -0.6520  0.2445 -0.0139
 2326TIP3    H128393   1.834   5.112  12.465  0.1984 -0.3412 -0.9443
 2326TIP3    H228394   1.910   5.242  12.477 -0.0546 -0.2443 -0.3262
 2327TIP3   OH228395   2.239   3.279  12.472  0.2669 -0.5116  0.3420
 2327TIP3    H128396   2.280   3.251  12.553 -0.8710  0.4239  1.2742
 2327TIP3    H228397   2.149   3.245  12.477 -1.1008  2.8489  1.4174
 2328TIP3   OH228398   4.933   1.734   4.131  0.6265 -0.2186  0.4271
 2328TIP3    H128399   4.882   1.815   4.124  0.9061 -0.1399 -0.8663
 2328TIP3    H228400   5.018   1.756   4.094  2.3690  0.2035  4.1521
 2329TIP3   OH228401   4.367   4.115  10.278  0.0842  0.5447  0.6607
 2329TIP3    H128402   4.335   4.200  10.250 -1.0001 -0.1484 -0.3001
 2329TIP3    H228403   4.454   4.132  10.313  0.4741  1.8283 -0.8470
 2330TIP3   OH228404   4.017   3.190  15.961 -0.1154 -0.4195  0.0699
 2330TIP3    H128405   4.012   3.095  15.966 -1.5692 -0.3462  0.6352
 2330TIP3    H228406   3.949   3.221  16.022  0.0663  0.9674 -0.3898
 2331TIP3   OH228407   5.584   1.082  15.570 -0.1377  0.1789  0.3434
 2331TIP3    H128408   5.593   1.094  15.475 -1.9144 -0.6749  0.0186
 2331TIP3    H228409   5.491   1.063  15.582  0.5114 -2.4425  1.9491
 2332TIP3   OH228410   5.295   2.303  13.538 -0.0847  0.0864 -0.0357
 2332TIP3    H128411   5.284   2.290  13.443  1.8016 -3.5337  0.0756
 2332TIP3    H228412   5.277   2.217  13.576 -0.2513  1.3221  2.9090
 2333TIP3   OH228413   4.352   4.431   4.210 -0.1173  0.1815 -0.2758
 2333TIP3    H128414   4.356   4.368   4.282 -0.0688  0.7708  0.2507
 2333TIP3    H228415   4.433   4.416   4.161 -1.2660 -1.8729 -1.6519
 2334TIP3   OH228416   2.024   3.917  12.778 -0.3407  0.5247  0.6326
 2334TIP3    H128417   1.951   3.856  12.790 -1.0701  0.9968 -1.0501
 2334TIP3    H228418   1.981   4.001  12.759  0.6208  0.6163 -1.3404
 2335TIP3   OH228419   0.097   3.388  13.111 -0.2859  0.2926  0.4798
 2335TIP3    H128420   0.004   3.381  13.091  0.1362 -0.1021 -1.6482
 2335TIP3    H228421   0.102   3.377  13.206 -2.2591 -1.3652  0.4749
 2336TIP3   OH228422   1.130   4.511  11.225  0.6109 -0.0122 -0.8350
 2336TIP3    H128423   1.103   4.443  11.286  2.2777 -0.7801 -0.8972
 2336TIP3    H228424   1.050   4.562  11.209  0.3809  1.2181  3.1522
 2337TIP3   OH228425   5.286   1.276   4.381  0.0791 -0.2738 -0.0515
 2337TIP3    H128426   5.295   1.198   4.436 -0.1991 -0.6261 -0.4950
 2337TIP3    H228427   5.213   1.324   4.420 -0.1440 -0.5427 -0.1270
 2338TIP3   OH228428   6.582   4.677   4.392 -0.2651  1.1107 -0.1266
 2338TIP3    H128429   6.493   4.644   4.380 -0.1201 -0.0393  1.5215
 2338TIP3    H228430   6.598   4.670   4.486  1.2225  2.2440 -0.2477
 2339TIP3   OH228431   5.438   4.790  11.549  0.3286  0.2089 -0.0358
 2339TIP3    H128432   5.369   4.818  11.610 -0.0862 -1.1373  0.1683
 2339TIP3    H228433   5.520   4.805  11.596 -0.0397 -3.6920  2.3358
 2340TIP3   OH228434   5.644   2.564  13.850  0.0609  0.3178 -0.0987
 2340TIP3    H128435   5.649   2.553  13.945 -2.8860  0.4342  0.1405
 2340TIP3    H228436   5.711   2.630  13.831  1.3765 -0.3865  1.7147
 2341TIP3   OH228437   4.864   4.215   3.974 -0.2793 -0.0669  1.1207
 2341TIP3    H128438   4.940   4.257   3.935  0.1028 -0.4177  1.4795
 2341TIP3    H228439   4.790   4.246   3.922  0.0516  0.6580  1.0776
 2342TIP3   OH228440   6.612   2.112  15.153  0.0480 -0.5209  0.0695
 2342TIP3    H128441   6.693   2.063  15.141  0.7792  0.9993 -1.7182
 2342TIP3    H228442   6.622   2.156  15.237  0.2246 -1.8390  0.7572
 2343TIP3   OH228443   1.315   2.166  11.414  0.2955 -0.1310 -0.9099
 2343TIP3    H128444   1.363   2.103  11.361  0.6865  0.0811 -0.8146
 2343TIP3    H228445   1.355   2.251  11.394 -0.5927  0.1735 -1.4647
 2344TIP3   OH228446   1.278   6.183   5.449 -0.2634 -0.5550 -0.7722
 2344TIP3    H128447   1.331   6.229   5.515  0.7214  0.0320 -1.9347
 2344TIP3    H228448   1.267   6.095   5.485 -0.5435  0.0153  0.6009
 2345TIP3   OH228449   0.649   6.569  11.478 -0.4362 -0.0914  0.2235
 2345TIP3    H128450   0.688   6.621  11.548 -0.8564 -0.6263  0.8731
 2345TIP3    H228451   0.714   6.570  11.408  0.9515 -1.2859  1.4238
 2346TIP3   OH228452   0.973   1.182  12.406 -0.5530 -0.0814 -0.0399
 2346TIP3    H128453   0.958   1.271  12.438  0.0777  0.0347 -0.0644
 2346TIP3    H228454   1.060   1.159  12.438 -1.0204 -0.9963  0.6518
 2347TIP3   OH228455   6.555   1.618  17.032 -0.2312 -0.2324 -0.3024
 2347TIP3    H128456   6.591   1.543  17.079  0.3197  0.3465  0.2241
 2347TIP3    H228457   6.549   1.687  17.098 -0.2835  0.3274 -0.8869
 2348TIP3   OH228458   3.678   1.149   0.931 -0.6246 -0.5152  0.4624
 2348TIP3    H128459   3.612   1.082   0.917 -1.1962  0.5979 -3.1257
 2348TIP3    H228460   3.756   1.115   0.887 -0.9734  1.1325 -1.5523
 2349TIP3   OH228461   0.515   2.202   0.928  0.4744 -0.2912 -0.1326
 2349TIP3    H128462   0.464   2.281   0.940  1.2841  0.6190 -2.1132
 2349TIP3    H228463   0.498   2.176   0.837  0.5083 -2.1946  0.3629
 2350TIP3   OH228464   1.477   2.081   6.064 -0.2180  0.4122  0.0026
 2350TIP3    H128465   1.485   2.169   6.027 -2.6474  1.1432  0.9976
 2350TIP3    H228466   1.508   2.023   5.995  1.5209  2.0132 -0.6576
 2351TIP3   OH228467   4.384   5.823   4.968  0.6440  0.3192  0.0242
 2351TIP3    H128468   4.404   5.733   4.942  2.7411  0.3946  1.1389
 2351TIP3    H228469   4.459   5.874   4.937  1.1065  1.1072  2.2717
 2352TIP3   OH228470   3.005   4.820   4.617  0.2547  0.2842  0.0371
 2352TIP3    H128471   2.959   4.751   4.665  0.9182  0.6969  1.3281
 2352TIP3    H228472   2.967   4.901   4.651  1.9177  0.6333  1.1703
 2353TIP3   OH228473   5.621   3.255   1.515  0.1790 -0.1601  0.3711
 2353TIP3    H128474   5.590   3.201   1.588 -1.1010  0.0781  0.0295
 2353TIP3    H228475   5.716   3.257   1.526  0.0455 -0.3732  1.8676
 2354TIP3   OH228476   4.696   6.300   6.340  0.2672  0.1088  0.0747
 2354TIP3    H128477   4.648   6.277   6.419  0.0572  1.0716  0.2404
 2354TIP3    H228478   4.638   6.359   6.292  1.4831  1.8366  0.5941
 2355TIP3   OH228479   4.042   2.130  12.923  0.1621  0.2313  0.1170
 2355TIP3    H128480   4.030   2.039  12.949 -0.2371  0.7249  1.7745
 2355TIP3    H228481   4.051   2.127  12.828 -2.9165 -1.2494 -0.2533
 2356TIP3   OH228482   3.121   2.721   4.470 -0.2593 -0.4996 -0.3063
 2356TIP3    H128483   3.119   2.781   4.545 -0.7333  0.8250 -1.3232
 2356TIP3    H228484   3.043   2.667   4.480 -0.9788  0.4800 -0.4397
 2357TIP3   OH228485   5.717   1.911   0.253  0.4205  0.0486  0.2570
 2357TIP3    H128486   5.668   1.964   0.190  1.4792 -0.4283 -0.9977
 2357TIP3    H228487   5.758   1.843   0.201  1.4433 -0.2884  1.4445
 2358TIP3   OH228488   1.268   5.413   0.164  0.2201  0.1246  0.1426
 2358TIP3    H128489   1.280   5.364   0.245 -2.3880 -1.4994 -0.3368
 2358TIP3    H228490   1.296   5.353   0.094  1.4123  1.1063 -0.2700
 2359TIP3   OH228491   3.653   1.908   5.403 -0.4661 -0.0888 -0.2301
 2359TIP3    H128492   3.636   1.863   5.486 -0.3200 -0.8469 -0.6046
 2359TIP3    H228493   3.570   1.952   5.382 -0.0576  1.3888  1.0744
 2360TIP3   OH228494   5.723   0.104  15.412  0.4755 -0.2333  0.4572
 2360TIP3    H128495   5.803   0.125  15.363 -0.5826 -0.3926 -1.4519
 2360TIP3    H228496   5.750   0.036  15.473  2.1082  0.7631  0.9058
 2361TIP3   OH228497   0.020   2.653  13.984 -0.3309 -0.3635  0.0607
 2361TIP3    H128498   0.001   2.625  14.073  0.3572 -0.3265  0.2242
 2361TIP3    H228499   0.114   2.668  13.983 -0.4043  0.1101 -0.5381
 2362TIP3   OH228500   1.104   6.274  15.986 -0.4640  0.4383 -0.5031
 2362TIP3    H128501   1.038   6.239  15.927 -1.9512  2.8189 -0.4172
 2362TIP3    H228502   1.081   6.367  15.995  2.3759  1.1788  0.2745
 2363TIP3   OH228503   5.312   5.904   0.765 -0.4006 -0.2932  0.7060
 2363TIP3    H128504   5.273   5.983   0.727 -0.1703 -0.4618  0.1059
 2363TIP3    H228505   5.241   5.840   0.767 -0.1518 -0.6188 -0.4389
 2364TIP3   OH228506   2.661   3.445  16.510  0.3859  0.0339 -0.8035
 2364TIP3    H128507   2.692   3.494  16.433  0.9759  0.6869 -0.1716
 2364TIP3    H228508   2.580   3.490  16.536  0.4146  0.0801 -0.7937
 2365TIP3   OH228509   6.521   1.347   3.811 -0.1273  0.1181  0.8385
 2365TIP3    H128510   6.539   1.254   3.800  0.2278 -0.0583  2.6161
 2365TIP3    H228511   6.548   1.387   3.728  0.8109 -1.2091  0.4769
 2366TIP3   OH228512   1.946   1.983   3.823 -0.1742  0.2630 -0.3534
 2366TIP3    H128513   1.894   2.029   3.889 -0.6782  0.7329 -1.0617
 2366TIP3    H228514   1.902   1.899   3.812  1.3937 -0.9487  1.7756
 2367TIP3   OH228515   3.130   1.182  13.630 -0.1766 -0.3447 -0.1697
 2367TIP3    H128516   3.191   1.178  13.556 -1.0651 -0.9535 -0.8823
 2367TIP3    H228517   3.178   1.232  13.697 -0.1288  2.1302 -1.8893
 2368TIP3   OH228518   4.119   3.863  16.423  0.0252 -0.3956  0.2610
 2368TIP3    H128519   4.059   3.933  16.398  0.4398  0.1429  0.7396
 2368TIP3    H228520   4.198   3.909  16.453 -0.0135 -1.0375  1.3850
 2369TIP3   OH228521   1.837   5.580  13.292  0.5576  0.5599  0.5053
 2369TIP3    H128522   1.882   5.638  13.230 -1.7008  2.7705  0.7589
 2369TIP3    H228523   1.778   5.529  13.237  2.8204 -1.9647  0.2339
 2370TIP3   OH228524   0.884   5.949  15.900 -0.1051 -0.8658 -0.1312
 2370TIP3    H128525   0.867   6.035  15.939  1.6626  0.4397 -2.0517
 2370TIP3    H228526   0.798   5.920  15.868 -0.5455  0.7371 -0.4731
 2371TIP3   OH228527   3.106   4.974  11.894  0.3092 -0.7270 -0.1209
 2371TIP3    H128528   3.164   4.930  11.955  1.1324 -1.1914 -1.2131
 2371TIP3    H228529   3.083   4.907  11.830 -0.4257 -0.2121 -0.4136
 2372TIP3   OH228530   3.849   5.925   5.624 -0.0962  0.1960  0.3074
 2372TIP3    H128531   3.934   5.903   5.586  0.9172  2.5867  1.0159
 2372TIP3    H228532   3.802   5.842   5.625  0.8822 -0.5787 -3.3353
 2373TIP3   OH228533   2.888   2.945  16.567  0.3107  0.3226  0.2462
 2373TIP3    H128534   2.978   2.948  16.534  0.5768 -1.6891  0.6671
 2373TIP3    H228535   2.849   3.027  16.538  2.2191  1.1509 -0.1207
 2374TIP3   OH228536   4.265   2.722  15.220  0.7145 -0.4760  0.3022
 2374TIP3    H128537   4.252   2.628  15.228 -2.0006 -0.2716 -0.6106
 2374TIP3    H228538   4.262   2.738  15.125 -2.7261  0.8496  0.4991
 2375TIP3   OH228539   5.271   1.715  15.107 -0.2175  0.6317 -0.2899
 2375TIP3    H128540   5.269   1.622  15.130 -2.3856  0.6678 -0.2168
 2375TIP3    H228541   5.327   1.755  15.174  0.9111 -0.6095 -0.4391
 2376TIP3   OH228542   4.674   1.332   5.504  0.4844  0.7845  0.0958
 2376TIP3    H128543   4.721   1.261   5.460 -0.2325 -0.4618  1.2721
 2376TIP3    H228544   4.584   1.299   5.515  0.1801  1.7920  0.8318
 2377TIP3   OH228545   6.645   5.959   3.256  0.4398  0.1777  0.3758
 2377TIP3    H128546   6.550   5.948   3.246  0.2989  0.7728  0.9848
 2377TIP3    H228547   6.659   5.955   3.350  0.4050  4.5348  0.7494
 2378TIP3   OH228548   4.411   2.388  13.164  0.1224 -0.1554  0.3028
 2378TIP3    H128549   4.466   2.433  13.100 -1.4084 -0.4618 -1.3221
 2378TIP3    H228550   4.461   2.391  13.245  0.7492  3.2007 -0.0464
 2379TIP3   OH228551   1.841   2.737   3.963 -1.0834 -0.2584 -0.3111
 2379TIP3    H128552   1.874   2.772   3.880 -0.3690  2.0109  0.8301
 2379TIP3    H228553   1.917   2.698   4.005 -1.5770 -1.9777 -0.9524
 2380TIP3   OH228554   0.217   3.249  13.626  0.2343 -0.1476 -0.3606
 2380TIP3    H128555   0.307   3.219  13.612 -0.0516 -0.0109 -3.0895
 2380TIP3    H228556   0.226   3.326  13.682  1.6651 -0.9402  0.5730
 2381TIP3   OH228557   4.084   5.731  12.973 -0.3154  0.2356 -0.1760
 2381TIP3    H128558   4.133   5.696  13.047  3.0713 -0.0946 -2.3986
 2381TIP3    H228559   4.076   5.657  12.912 -1.9938  0.8107 -0.7258
 2382TIP3   OH228560   3.799   5.306   3.654  0.0684 -0.0226  0.2378
 2382TIP3    H128561   3.862   5.333   3.721  1.3821 -0.6114 -0.7203
 2382TIP3    H228562   3.838   5.333   3.571 -1.2062  0.0863 -0.3519
 2383TIP3   OH228563   2.640   3.502  12.596  0.3419 -0.0945  0.0496
 2383TIP3    H128564   2.551   3.467  12.588 -0.0578  1.2440 -1.9162
 2383TIP3    H228565   2.636   3.588  12.556  2.7684 -0.4402 -1.1168
 2384TIP3   OH228566   0.739   3.720  10.926  0.3398  0.2554  0.3773
 2384TIP3    H128567   0.656   3.685  10.959 -0.1187  0.1353 -0.8576
 2384TIP3    H228568   0.728   3.815  10.930  0.3101  0.2423  0.6246
 2385TIP3   OH228569   1.510   2.689  11.459  0.3504  0.7213  0.0437
 2385TIP3    H128570   1.602   2.671  11.442  0.5823  1.0968  0.8567
 2385TIP3    H228571   1.493   2.771  11.412  0.7142  1.2057  0.7373
 2386TIP3   OH228572   1.875   6.072   4.615 -0.2625  0.5099 -0.2026
 2386TIP3    H128573   1.959   6.118   4.611  0.4333 -0.7545 -0.7821
 2386TIP3    H228574   1.839   6.096   4.701 -0.2136  2.5475 -0.7056
 2387TIP3   OH228575   0.829   5.090  12.956 -0.2432  0.7579  0.5247
 2387TIP3    H128576   0.766   5.022  12.979  0.5582 -0.2680 -0.1801
 2387TIP3    H228577   0.821   5.156  13.024 -0.6396 -0.3328  1.5588
 2388TIP3   OH228578   0.167   5.178   2.896 -0.5793  0.3725  0.2939
 2388TIP3    H128579   0.111   5.249   2.863 -0.6049  0.2992  0.1778
 2388TIP3    H228580   0.234   5.222   2.948 -0.9567  0.4331  0.7304
 2389TIP3   OH228581   5.429   2.811   4.626 -0.1248  0.1109 -0.2953
 2389TIP3    H128582   5.476   2.797   4.543  2.5049  1.1405  0.9243
 2389TIP3    H228583   5.452   2.736   4.680 -0.9064  0.0153 -0.0818
 2390TIP3   OH228584   5.542   6.475   3.743  0.7788 -0.6913  0.0348
 2390TIP3    H128585   5.482   6.470   3.817 -1.1526 -0.5077 -1.4371
 2390TIP3    H228586   5.485   6.487   3.666  2.6213 -1.6360 -1.5834
 2391TIP3   OH228587   2.209   3.179  12.164  0.3136  0.0852 -0.8111
 2391TIP3    H128588   2.263   3.174  12.243  0.0218 -0.0661 -0.6172
 2391TIP3    H228589   2.130   3.225  12.192  0.9755  1.6827 -1.4660
 2392TIP3   OH228590   0.026   4.767   0.379  0.0014 -0.4439 -0.3621
 2392TIP3    H128591   0.059   4.804   0.460  1.0181 -0.8215 -0.5884
 2392TIP3    H228592   0.028   4.840   0.317 -0.8353 -0.1399 -0.0487
 2393TIP3   OH228593   2.862   2.477  15.551 -0.1142 -0.2964 -0.9689
 2393TIP3    H128594   2.904   2.515  15.628 -1.1411 -2.8746  1.0020
 2393TIP3    H228595   2.768   2.488  15.567 -0.3371 -0.5137 -2.0579
 2394TIP3   OH228596   5.771   3.065  16.231 -0.2354 -0.4969  0.1361
 2394TIP3    H128597   5.773   2.971  16.250 -0.4178 -0.1676  1.9277
 2394TIP3    H228598   5.681   3.091  16.252  0.0555  0.2351  0.4790
 2395TIP3   OH228599   3.586   6.752   4.865  0.3942  0.2608 -0.7062
 2395TIP3    H128600   3.680   6.769   4.877  0.5656 -1.4768  1.0679
 2395TIP3    H228601   3.547   6.781   4.948 -0.6029  0.7015 -1.3254
 2396TIP3   OH228602   3.435   0.649  12.618 -0.1708 -0.3537 -0.0393
 2396TIP3    H128603   3.395   0.624  12.701  0.8637  0.1952  0.6321
 2396TIP3    H228604   3.525   0.672  12.640  0.0961 -0.1288 -1.3022
 2397TIP3   OH228605   1.320   1.292   4.698  0.0699 -0.0203  0.0267
 2397TIP3    H128606   1.366   1.215   4.666  1.8340  1.3880 -0.9718
 2397TIP3    H228607   1.313   1.279   4.793 -1.2980 -2.1939 -0.3134
 2398TIP3   OH228608   6.627   3.357  14.156  0.4491  0.3251 -0.2170
 2398TIP3    H128609   6.709   3.307  14.166  0.0981 -0.0725  0.8238
 2398TIP3    H228610   6.645   3.417  14.084  1.4734 -0.1344 -0.3746
 2399TIP3   OH228611   5.576   1.991  11.554 -0.4138  0.1012  0.0085
 2399TIP3    H128612   5.634   1.916  11.565 -0.1708  0.0257 -1.4898
 2399TIP3    H228613   5.634   2.061  11.523 -0.4727  1.2079  2.2234
 2400TIP3   OH228614   3.081   6.182   4.058 -0.5917  0.6901  0.7619
 2400TIP3    H128615   3.033   6.111   4.015 -0.0771  0.5467  0.4203
 2400TIP3    H228616   3.085   6.156   4.150  0.5639 -0.2796  0.4572
 2401TIP3   OH228617   0.945   5.698  13.165  0.1591  0.1208 -0.1172
 2401TIP3    H128618   0.949   5.778  13.218  1.5439  1.3353 -1.9486
 2401TIP3    H228619   1.018   5.645  13.198  0.1587  0.2677  0.1250
 2402TIP3   OH228620   3.834   0.883  16.433 -0.6516  0.4896 -0.1198
 2402TIP3    H128621   3.905   0.832  16.473 -1.4130 -0.6812 -0.2040
 2402TIP3    H228622   3.847   0.872  16.339 -0.1652  1.3913 -0.1630
 2403TIP3   OH228623   1.875   3.784   1.766  0.2215  0.8234 -0.0803
 2403TIP3    H128624   1.854   3.717   1.701  0.8416  1.6750 -1.1954
 2403TIP3    H228625   1.911   3.856   1.715  0.2490  1.7241  1.1702
 2404TIP3   OH228626   3.305   1.382  13.134 -0.1875  0.2769 -0.1605
 2404TIP3    H128627   3.302   1.477  13.143 -1.2489  0.2870 -0.5516
 2404TIP3    H228628   3.224   1.351  13.174  1.1861 -0.6826  2.1203
 2405TIP3   OH228629   1.388   6.070   4.067 -0.1977 -0.1334 -0.8979
 2405TIP3    H128630   1.386   6.130   4.141 -0.7082 -0.0415 -0.9802
 2405TIP3    H228631   1.475   6.032   4.069  0.0011  0.3269 -0.6149
 2406TIP3   OH228632   5.086   4.494   2.587 -0.0719 -0.0002  0.2562
 2406TIP3    H128633   5.085   4.561   2.655  0.4249  0.8739 -0.5771
 2406TIP3    H228634   5.106   4.541   2.506  1.2215 -1.2766 -0.2168
 2407TIP3   OH228635   0.376   3.897  16.970 -0.3259  0.8995 -0.2938
 2407TIP3    H128636   0.469   3.896  16.993 -0.3212  2.7645 -0.0438
 2407TIP3    H228637   0.331   3.908  17.054 -0.5133  3.7418 -0.6519
 2408TIP3   OH228638   4.794   0.300   4.915 -0.5187  0.0589 -0.2144
 2408TIP3    H128639   4.817   0.340   5.000  0.7621  0.0264 -0.5212
 2408TIP3    H228640   4.771   0.374   4.859 -2.0686  0.0310  0.3372
 2409TIP3   OH228641   0.222   5.762   2.645  0.5952  0.7785 -0.3559
 2409TIP3    H128642   0.199   5.757   2.738  2.7839  0.5709  0.2333
 2409TIP3    H228643   0.159   5.704   2.602  1.0072 -1.0383  1.3264
 2410TIP3   OH228644   6.142   3.951  16.975 -0.5672  0.7047  0.5640
 2410TIP3    H128645   6.172   4.023  17.029 -1.2952  0.5385  1.2101
 2410TIP3    H228646   6.072   3.910  17.026 -0.7593  0.0843 -0.1741
 2411TIP3   OH228647   5.751   6.792  14.461 -0.3802  0.1462  0.6306
 2411TIP3    H128648   5.843   6.783  14.437 -0.1842  2.8433  0.0939
 2411TIP3    H228649   5.753   6.826  14.551 -0.8282  0.5281  0.5020
 2412TIP3   OH228650   6.537   3.160  14.937  0.3067 -0.2564 -0.7859
 2412TIP3    H128651   6.476   3.190  15.005  0.7956 -1.3447  0.1718
 2412TIP3    H228652   6.552   3.237  14.882  0.5030  0.8874  0.8037
 2413TIP3   OH228653   4.959   4.645  15.153 -0.2300  0.0599  0.4517
 2413TIP3    H128654   5.045   4.670  15.186  0.0634 -0.6885  0.2722
 2413TIP3    H228655   4.975   4.566  15.101 -1.1980 -0.7551  1.3583
 2414TIP3   OH228656   4.920   5.449   5.486 -0.1815  0.2391  0.3385
 2414TIP3    H128657   4.938   5.486   5.399 -0.2184 -0.5108  0.0016
 2414TIP3    H228658   4.993   5.389   5.502 -2.4477 -3.3492 -1.3256
 2415TIP3   OH228659   5.980   3.816  11.673 -0.1218  0.0819  0.3945
 2415TIP3    H128660   5.892   3.814  11.636  0.2901 -0.2632 -0.5979
 2415TIP3    H228661   5.967   3.801  11.767 -0.9882 -2.0789  0.0043
 2416TIP3   OH228662   3.232   2.267  11.512 -0.7759  0.2605  0.3339
 2416TIP3    H128663   3.144   2.303  11.521 -0.1757  2.3599 -1.3044
 2416TIP3    H228664   3.218   2.176  11.486 -2.4198  0.2839  1.0103
 2417TIP3   OH228665   2.692   1.660  16.117  0.8792  0.3797  0.2927
 2417TIP3    H128666   2.785   1.670  16.097  1.0017 -2.1811 -0.8569
 2417TIP3    H228667   2.688   1.590  16.183 -0.1479  2.1364  2.2192
 2418TIP3   OH228668   4.415   4.802   2.186  0.0857 -0.4484  0.3957
 2418TIP3    H128669   4.394   4.807   2.280 -2.1567 -0.8316 -0.0339
 2418TIP3    H228670   4.398   4.891   2.153  0.3841 -0.4432  0.2548
 2419TIP3   OH228671   1.028   0.253  14.404 -0.0534  0.1866  0.5627
 2419TIP3    H128672   1.051   0.212  14.487 -2.1067  0.4708  1.3473
 2419TIP3    H228673   0.994   0.339  14.428 -0.6397  0.2953 -0.5732
 2420TIP3   OH228674   3.789   4.578  12.630 -0.2743 -0.1149 -0.6511
 2420TIP3    H128675   3.825   4.629  12.558 -0.4560  1.0943  0.0714
 2420TIP3    H228676   3.699   4.611  12.640 -0.2645 -0.2850  0.0801
 2421TIP3   OH228677   5.821   0.480   4.955  0.0631  0.2094  0.0142
 2421TIP3    H128678   5.860   0.400   4.990 -0.3967  0.7224  1.8116
 2421TIP3    H228679   5.887   0.548   4.971 -0.2943  0.5149  0.2037
 2422TIP3   OH228680   6.431   2.507  13.969 -0.0278  0.1687 -0.0644
 2422TIP3    H128681   6.434   2.539  13.879 -1.8570 -1.3789 -0.7288
 2422TIP3    H228682   6.475   2.422  13.966 -0.9554 -0.3378  0.2621
 2423TIP3   OH228683   1.621   5.959   2.367  0.5826 -0.1989 -0.4763
 2423TIP3    H128684   1.659   6.046   2.379  1.9167 -0.8220 -0.0592
 2423TIP3    H228685   1.552   5.953   2.434  2.2868 -0.4571  1.3312
 2424TIP3   OH228686   5.206   0.230  16.858  0.3026  0.8026  0.7557
 2424TIP3    H128687   5.271   0.159  16.857  0.1745  0.6864  0.6182
 2424TIP3    H228688   5.228   0.283  16.781 -0.6565 -0.0518 -0.1416
 2425TIP3   OH228689   4.733   3.052  11.676  0.4465 -0.0368 -0.1181
 2425TIP3    H128690   4.743   3.056  11.580 -0.7287  1.4973 -0.2072
 2425TIP3    H228691   4.817   3.019  11.707  1.4546  1.0123 -1.5821
 2426TIP3   OH228692   5.218   5.015  10.327  0.0899  0.0233  0.0008
 2426TIP3    H128693   5.283   4.948  10.347 -1.0865 -1.6331 -1.5051
 2426TIP3    H228694   5.154   4.972  10.272 -0.3566  2.5755 -1.6686
 2427TIP3   OH228695   0.034   3.812   6.132  0.2500  0.0630 -0.9536
 2427TIP3    H128696   0.104   3.804   6.196 -0.4596  0.4924 -0.1094
 2427TIP3    H228697  -0.000   3.901   6.143 -0.2466 -0.0427 -1.5417
 2428TIP3   OH228698   0.695   4.040  15.387  0.3495 -0.1432 -0.5662
 2428TIP3    H128699   0.638   4.109  15.354 -0.1506 -0.5854 -0.6448
 2428TIP3    H228700   0.777   4.085  15.409 -1.0305  1.1389  2.5939
 2429TIP3   OH228701   3.559   5.193  14.142  0.2488  0.2870  0.0347
 2429TIP3    H128702   3.566   5.154  14.230  0.6127 -0.3538 -0.2736
 2429TIP3    H228703   3.570   5.287  14.157  0.4405  0.1692  0.6673
 2430TIP3   OH228704   5.689   3.868  13.835 -0.3258  0.2849  0.4034
 2430TIP3    H128705   5.669   3.942  13.893 -1.1698 -0.3199  0.9058
 2430TIP3    H228706   5.784   3.871  13.826 -0.2127  0.6516  1.4876
 2431TIP3   OH228707   4.636   2.649   5.151  0.0234 -0.3046 -0.4042
 2431TIP3    H128708   4.574   2.711   5.113  0.3982  0.2569 -0.1101
 2431TIP3    H228709   4.637   2.575   5.090 -1.5394 -0.6908 -0.0043
 2432TIP3   OH228710   1.695   4.406  12.800  0.2638  0.3175  0.3896
 2432TIP3    H128711   1.709   4.357  12.881 -2.1036  0.5270  0.9997
 2432TIP3    H228712   1.739   4.490  12.815  0.4796  0.0773  1.1663
 2433TIP3   OH228713   1.101   2.467   2.711 -0.3954  0.0661 -0.5564
 2433TIP3    H128714   1.197   2.475   2.708 -0.2287 -1.2098  0.4159
 2433TIP3    H228715   1.074   2.533   2.775  0.2905 -2.1712  2.2812
 2434TIP3   OH228716   2.578   2.462   1.113 -0.1883  0.1333 -0.2534
 2434TIP3    H128717   2.577   2.391   1.177  1.8173  0.2210 -0.0696
 2434TIP3    H228718   2.492   2.457   1.071 -0.7750 -1.2281  1.0045
 2435TIP3   OH228719   4.419   1.167  15.663  0.0609  0.5467 -0.3284
 2435TIP3    H128720   4.499   1.205  15.699  0.6855  0.0402 -1.1280
 2435TIP3    H228721   4.353   1.180  15.731  0.7974  1.0541  0.3091
 2436TIP3   OH228722   0.799   3.818  14.532 -0.0805 -0.2629  0.0173
 2436TIP3    H128723   0.712   3.842  14.566 -0.4962 -1.4173 -0.1612
 2436TIP3    H228724   0.840   3.901  14.510 -0.8673  0.3547  0.7778
 2437TIP3   OH228725   2.940   0.243   2.349  0.2179 -0.1346  0.6981
 2437TIP3    H128726   2.859   0.200   2.377  0.0926 -0.7701 -0.5864
 2437TIP3    H228727   3.010   0.192   2.389  0.0933 -1.8690 -1.1422
 2438TIP3   OH228728   6.128   5.150  15.895 -0.2033  0.3619 -0.2128
 2438TIP3    H128729   6.186   5.145  15.971 -1.4356 -0.5358  0.7316
 2438TIP3    H228730   6.104   5.242  15.888 -1.1836  0.2675  1.4100
 2439TIP3   OH228731   5.361   4.590   5.188  0.6493  0.3251 -0.1408
 2439TIP3    H128732   5.407   4.525   5.242  0.3052 -1.0186 -1.4227
 2439TIP3    H228733   5.429   4.653   5.164  1.1803 -0.0367  0.3821
 2440TIP3   OH228734   1.877   6.591   6.281 -0.8918  0.3006  0.0499
 2440TIP3    H128735   1.916   6.510   6.246 -2.1687  0.2512 -1.3948
 2440TIP3    H228736   1.917   6.661   6.229 -1.8251  0.3363 -0.6534
 2441TIP3   OH228737   4.522   0.840  12.620 -0.3073  0.0277  0.1111
 2441TIP3    H128738   4.540   0.934  12.617  1.0649 -0.2345 -0.5518
 2441TIP3    H228739   4.598   0.802  12.663 -1.2697 -0.7092  1.2260
 2442TIP3   OH228740   4.591   3.565   2.278  0.1779 -0.3168 -0.3568
 2442TIP3    H128741   4.659   3.605   2.224 -1.4655  1.3743 -1.3185
 2442TIP3    H228742   4.511   3.610   2.251 -1.7981 -3.9239 -1.1519
 2443TIP3   OH228743   3.487   2.803  16.278 -0.7196  0.1037  0.7026
 2443TIP3    H128744   3.440   2.726  16.245  1.0831 -0.5535 -0.4970
 2443TIP3    H228745   3.420   2.871  16.285 -1.7947 -0.6760 -1.2729
 2444TIP3   OH228746   0.586   0.201  13.247 -0.1619  0.2364 -0.2382
 2444TIP3    H128747   0.660   0.153  13.210 -1.3365 -1.6438 -0.2159
 2444TIP3    H228748   0.519   0.199  13.180 -1.1075 -0.2939  0.6959
 2445TIP3   OH228749   5.628   0.220  14.958 -0.5073  0.0926  0.1282
 2445TIP3    H128750   5.609   0.136  14.999 -0.1525  0.9698  2.1890
 2445TIP3    H228751   5.711   0.248  14.997  0.2212  0.6988 -1.7028
 2446TIP3   OH228752   6.416   4.487  14.410 -0.1262 -0.2795  0.1593
 2446TIP3    H128753   6.426   4.424  14.339  0.3590  0.3496 -0.3532
 2446TIP3    H228754   6.342   4.455  14.461 -1.0485 -0.2952 -1.1272
 2447TIP3   OH228755   2.666   0.100  13.695 -0.6230  0.4106 -0.0847
 2447TIP3    H128756   2.731   0.037  13.665  1.5655  2.8334 -0.8310
 2447TIP3    H228757   2.587   0.079  13.645  0.1465 -1.3902 -0.6335
 2448TIP3   OH228758   3.021   1.757   1.777  0.4244 -0.0366 -0.8325
 2448TIP3    H128759   3.087   1.707   1.825  1.4669 -0.1013 -2.2423
 2448TIP3    H228760   2.994   1.826   1.837 -1.3375 -2.4180  1.3075
 2449TIP3   OH228761   3.636   4.850  13.013 -0.0001 -0.0042  0.2943
 2449TIP3    H128762   3.680   4.775  13.054 -0.3900 -0.5853 -0.3334
 2449TIP3    H228763   3.694   4.876  12.942  0.1379  0.2990  0.5163
 2450TIP3   OH228764   4.922   6.412  12.873 -0.1818 -0.2822 -0.4356
 2450TIP3    H128765   4.893   6.337  12.925 -1.5078 -0.1402 -0.9181
 2450TIP3    H228766   5.010   6.389  12.844  0.0303 -0.9697  0.6889
 2451TIP3   OH228767   6.616   5.596  14.608  0.1522  0.2241 -0.6097
 2451TIP3    H128768   6.679   5.609  14.679  1.0446 -0.1940 -1.3049
 2451TIP3    H228769   6.616   5.679  14.559  0.1621  0.2245 -0.6091
 2452TIP3   OH228770   2.288   1.113  10.085 -0.4748  0.1042  0.0182
 2452TIP3    H128771   2.350   1.180  10.113 -0.4184  0.4007 -0.7886
 2452TIP3    H228772   2.248   1.150  10.006  0.5355 -1.3665 -1.2335
 2453TIP3   OH228773   2.410   2.567   5.311  0.3786 -0.7938 -0.2947
 2453TIP3    H128774   2.408   2.539   5.219  0.0652  0.3282 -0.6420
 2453TIP3    H228775   2.333   2.622   5.321  0.6248 -0.5897  0.5484
 2454TIP3   OH228776   1.523   2.435   5.653  0.2762 -0.3244 -0.0711
 2454TIP3    H128777   1.599   2.388   5.617 -0.0835 -1.8933  1.0769
 2454TIP3    H228778   1.468   2.454   5.577  0.7272 -1.2534 -0.6511
 2455TIP3   OH228779   6.414   4.694  15.128 -0.3607  0.2821  0.0211
 2455TIP3    H128780   6.405   4.765  15.191 -0.7365 -0.3276  0.6724
 2455TIP3    H228781   6.506   4.697  15.102  0.1030 -0.1468  1.4702
 2456TIP3   OH228782   4.171   1.977  14.275 -0.0090 -0.2346 -0.2354
 2456TIP3    H128783   4.095   1.927  14.304  0.0998 -0.5989 -0.5857
 2456TIP3    H228784   4.197   1.937  14.193  0.0430  0.4343 -0.5509
 2457TIP3   OH228785   6.162   4.213  15.870  0.2039  0.1837 -0.0303
 2457TIP3    H128786   6.178   4.181  15.781 -0.8672  0.4435 -0.3317
 2457TIP3    H228787   6.069   4.235  15.872  0.2900  0.5506  1.0441
 2458TIP3   OH228788   1.919   3.561   5.130  0.2374  0.5461  0.6025
 2458TIP3    H128789   1.854   3.619   5.169  0.4603  0.8859  0.4732
 2458TIP3    H228790   1.999   3.578   5.180  0.2808  0.2873  0.6215
 2459TIP3   OH228791   5.619   2.817   4.890  0.9137  0.2740  0.1079
 2459TIP3    H128792   5.673   2.757   4.839 -0.8200 -0.5149 -0.9097
 2459TIP3    H228793   5.613   2.895   4.836  0.8867  0.2878  0.1309
 2460TIP3   OH228794   2.371   1.663  12.037 -0.3120 -0.2140  0.3631
 2460TIP3    H128795   2.431   1.609  11.987 -0.9006 -1.2350  0.7329
 2460TIP3    H228796   2.426   1.708  12.102  0.1687 -0.4180  0.0959
 2461TIP3   OH228797   6.142   3.454   1.541  0.6532 -0.4675 -0.5405
 2461TIP3    H128798   6.054   3.487   1.526  0.7952  0.1385 -0.0885
 2461TIP3    H228799   6.186   3.524   1.591  0.7408 -1.6709  1.1408
 2462TIP3   OH228800   4.049   5.763  16.571 -0.1523  0.0947 -0.6126
 2462TIP3    H128801   3.963   5.746  16.533  0.0096  1.6291 -1.7200
 2462TIP3    H228802   4.070   5.853  16.546  1.6589 -0.1519 -0.1346
 2463TIP3   OH228803   4.181   1.782  12.387  0.0542 -0.2909  0.0184
 2463TIP3    H128804   4.153   1.801  12.298  0.7266  0.8982  0.0471
 2463TIP3    H228805   4.206   1.867  12.424  0.4982 -0.8595  1.0887
 2464TIP3   OH228806   1.790   1.295   1.120  0.3099  0.1065 -0.3731
 2464TIP3    H128807   1.701   1.264   1.140 -0.1944  1.1115 -1.0084
 2464TIP3    H228808   1.832   1.303   1.205 -0.7786  1.2692  0.0901
 2465TIP3   OH228809   3.012   2.581  15.094 -0.1623  0.3947 -0.3532
 2465TIP3    H128810   2.965   2.630  15.162  1.4965  0.6822  0.6567
 2465TIP3    H228811   3.044   2.648  15.034  1.9959  0.6559  0.9584
 2466TIP3   OH228812   1.466   5.115   0.636  0.1293 -0.0939 -0.0790
 2466TIP3    H128813   1.555   5.140   0.610  0.3484 -0.9175 -0.1324
 2466TIP3    H228814   1.419   5.199   0.645  0.1812  0.2748 -2.6201
 2467TIP3   OH228815   0.256   2.755   0.211 -0.1990  0.2084 -0.0947
 2467TIP3    H128816   0.307   2.739   0.290  0.8482 -0.3934 -0.8770
 2467TIP3    H228817   0.243   2.850   0.210 -0.3101  0.2121  0.8396
 2468TIP3   OH228818   2.310   3.908  11.230 -0.1236  0.0823 -0.0429
 2468TIP3    H128819   2.332   3.986  11.179  2.7746 -0.4644  0.1709
 2468TIP3    H228820   2.236   3.935  11.285 -0.1392  2.2024 -1.0021
 2469TIP3   OH228821   5.411   1.141   5.347 -0.6880  0.0257  0.1881
 2469TIP3    H128822   5.380   1.231   5.360  0.1123  0.4036 -0.3900
 2469TIP3    H228823   5.367   1.112   5.268 -1.5101 -0.3623  0.7822
 2470TIP3   OH228824   4.572   0.911   3.452  0.9059  0.1757 -0.0574
 2470TIP3    H128825   4.581   0.876   3.363  1.0567 -0.9260  0.3767
 2470TIP3    H228826   4.495   0.968   3.447  1.0374  0.2970 -0.9442
 2471TIP3   OH228827   2.870   1.264  10.533 -0.3340  0.6213  0.0319
 2471TIP3    H128828   2.839   1.261  10.442  0.5745  0.5473 -0.2778
 2471TIP3    H228829   2.921   1.345  10.538  1.2960 -0.3543 -0.0851
 2472TIP3   OH228830   4.673   2.434   3.438  0.6232 -0.3108  0.6638
 2472TIP3    H128831   4.722   2.514   3.415  2.1422 -1.7288 -1.3952
 2472TIP3    H228832   4.581   2.461   3.434  1.0159  1.0048 -1.6131
 2473TIP3   OH228833   6.582   4.241   0.427  0.1382 -0.6652 -0.2760
 2473TIP3    H128834   6.559   4.264   0.517  0.3294 -0.4813 -0.2735
 2473TIP3    H228835   6.671   4.207   0.434 -0.2661 -1.7527 -0.2214
 2474TIP3   OH228836   5.307   6.621   5.079  0.7119  0.1209 -0.2826
 2474TIP3    H128837   5.385   6.593   5.032  0.6889 -2.2476  0.9557
 2474TIP3    H228838   5.236   6.616   5.015  1.1911  0.0288 -0.8086
 2475TIP3   OH228839   1.681   0.421  13.363  0.1393 -0.2433  0.1858
 2475TIP3    H128840   1.683   0.389  13.454  0.8491  0.0253  0.2728
 2475TIP3    H228841   1.589   0.435  13.345  0.1278  2.4657  1.8456
 2476TIP3   OH228842   1.801   4.064  13.564 -0.1057 -0.0083 -0.1866
 2476TIP3    H128843   1.771   3.983  13.607 -0.2144  0.9900  1.7581
 2476TIP3    H228844   1.886   4.042  13.526 -0.2639 -1.1077  0.0688
 2477TIP3   OH228845   1.073   6.040  10.985  0.8684 -0.6099 -0.0721
 2477TIP3    H128846   0.987   6.019  10.950  0.4508  0.3614  0.3542
 2477TIP3    H228847   1.134   6.012  10.916  0.1460 -0.1462 -0.9188
 2478TIP3   OH228848   1.992   3.378  15.856  0.2039  0.7291 -0.4183
 2478TIP3    H128849   2.036   3.317  15.796 -0.6771  0.2466 -0.5835
 2478TIP3    H228850   2.051   3.454  15.860  0.5648  0.5191 -1.4182
 2479TIP3   OH228851   5.343   1.838  14.461  0.0794  0.5317 -0.2070
 2479TIP3    H128852   5.430   1.832  14.500  0.3987 -0.1747 -0.9870
 2479TIP3    H228853   5.283   1.811  14.530  0.2096  3.3639  1.1581
 2480TIP3   OH228854   2.195   4.274   4.957 -0.2356 -0.2036  0.8407
 2480TIP3    H128855   2.120   4.236   5.003 -2.1091  1.2221 -0.8646
 2480TIP3    H228856   2.160   4.353   4.915  1.3687 -1.2344 -2.7946
 2481TIP3   OH228857   1.041   6.599   5.028  0.0287 -0.6406 -0.4874
 2481TIP3    H128858   0.991   6.518   5.033 -0.9534 -0.0263 -0.1646
 2481TIP3    H228859   0.993   6.661   5.083 -0.4209  0.7650 -2.3685
 2482TIP3   OH228860   2.492   4.388   5.505  0.2814  0.0601  0.5400
 2482TIP3    H128861   2.435   4.343   5.442  0.6287 -1.1392  1.0518
 2482TIP3    H228862   2.519   4.320   5.566  0.0143  1.1769  1.9734
 2483TIP3   OH228863   1.094   5.805  12.224 -0.2948  0.0297  0.1352
 2483TIP3    H128864   1.027   5.761  12.276  0.0908 -1.1764 -0.3351
 2483TIP3    H228865   1.072   5.783  12.134 -0.1495  0.9167 -0.1207
 2484TIP3   OH228866   0.225   3.048  12.498  0.1819  0.1685  0.5778
 2484TIP3    H128867   0.152   2.989  12.516  1.6524 -2.4091 -1.2834
 2484TIP3    H228868   0.186   3.117  12.443 -0.9191 -1.0429 -0.2213
 2485TIP3   OH228869   6.794   1.913   4.481 -0.0144 -0.2447 -0.2771
 2485TIP3    H128870   6.737   1.990   4.477  1.7327  1.2198  1.1142
 2485TIP3    H228871   6.752   1.856   4.546 -0.2325  0.5363  0.2871
 2486TIP3   OH228872   4.966   5.937   0.314 -0.2876 -0.2160  0.5289
 2486TIP3    H128873   4.927   5.867   0.366 -2.2402 -0.2290 -0.8376
 2486TIP3    H228874   4.934   6.018   0.355 -0.4131 -0.1942  0.3897
 2487TIP3   OH228875   4.074   0.375   3.950 -0.0584 -0.4092 -0.2520
 2487TIP3    H128876   4.145   0.346   3.893  0.8836  1.0867  0.1275
 2487TIP3    H228877   4.086   0.323   4.030  0.5278 -0.2559 -0.2377
 2488TIP3   OH228878   3.699   1.884   2.873 -0.1335 -0.2031  0.2153
 2488TIP3    H128879   3.720   1.978   2.874  1.8763 -0.5689  2.5808
 2488TIP3    H228880   3.656   1.871   2.789  0.8016  2.5857 -0.8488
 2489TIP3   OH228881   5.396   3.868   3.318 -0.4497 -0.1620 -0.1396
 2489TIP3    H128882   5.332   3.813   3.364  0.8930  0.8418  3.1803
 2489TIP3    H228883   5.481   3.835   3.346  0.4588  0.9902 -1.3981
 2490TIP3   OH228884   5.573   3.871  10.333 -0.2815  0.1200 -0.1757
 2490TIP3    H128885   5.667   3.851  10.326 -0.6162 -1.2203 -1.2555
 2490TIP3    H228886   5.549   3.839  10.420  0.0416 -0.5897 -0.3334
 2491TIP3   OH228887   4.822   3.012   0.488  0.2828 -0.4978  0.6757
 2491TIP3    H128888   4.917   3.006   0.480  0.1196 -0.4741 -2.3329
 2491TIP3    H228889   4.800   3.097   0.451 -0.9288 -0.4838  1.3779
 2492TIP3   OH228890   6.592   1.759   4.205  1.3171  0.6313  0.3581
 2492TIP3    H128891   6.685   1.738   4.213  1.3312  0.7441  0.5007
 2492TIP3    H228892   6.591   1.850   4.176  1.2622  0.3530 -0.5596
 2493TIP3   OH228893   5.871   1.394  10.450  0.4858  0.1476 -0.2713
 2493TIP3    H128894   5.794   1.450  10.441  0.2544 -0.1244 -0.0285
 2493TIP3    H228895   5.839   1.307  10.427  0.5913 -0.0526  0.3245
 2494TIP3   OH228896   6.606   6.235  14.005 -0.5853 -0.0271 -0.3370
 2494TIP3    H128897   6.600   6.139  14.001  1.3132 -0.1457 -2.4316
 2494TIP3    H228898   6.555   6.265  13.930 -1.7339  0.6702  0.7065
 2495TIP3   OH228899   6.101   6.037   2.151 -0.0833  0.1594  0.1224
 2495TIP3    H128900   6.081   6.119   2.195  1.2085  0.7686 -0.3661
 2495TIP3    H228901   6.086   6.054   2.058  1.7903  0.4217 -0.1850
 2496TIP3   OH228902   3.349   6.639  12.032 -0.0686  0.4090  0.5183
 2496TIP3    H128903   3.411   6.708  12.055  0.1449  0.2074  0.5507
 2496TIP3    H228904   3.381   6.604  11.949 -1.3070  1.7027 -0.5609
 2497TIP3   OH228905   2.633   5.468   3.754  0.4562  0.1746 -0.4167
 2497TIP3    H128906   2.553   5.427   3.785 -0.0369  1.4650  0.0479
 2497TIP3    H228907   2.679   5.494   3.833  0.6455  0.7487 -0.7120
 2498TIP3   OH228908   2.663   4.051  13.018 -0.3388  0.0905 -0.7586
 2498TIP3    H128909   2.756   4.066  13.002 -0.6658  1.9357 -1.1315
 2498TIP3    H228910   2.658   4.018  13.108  0.5719  1.1584 -0.3052
 2499TIP3   OH228911   0.765   6.279   4.372  0.1730 -0.7516 -0.7795
 2499TIP3    H128912   0.720   6.363   4.387 -1.4618 -1.7940  0.4646
 2499TIP3    H228913   0.842   6.283   4.428 -0.7493 -0.6980  0.5203
 2500TIP3   OH228914   5.351   4.882  12.721  0.4940 -0.1586 -0.4890
 2500TIP3    H128915   5.287   4.850  12.658  0.9917 -1.0714 -0.5411
 2500TIP3    H228916   5.366   4.808  12.780  1.3689  0.1042 -0.3743
 2501TIP3   OH228917   2.594   1.908   3.841  0.0649 -0.2460 -0.0460
 2501TIP3    H128918   2.546   1.869   3.913 -1.0123 -1.3267 -1.3127
 2501TIP3    H228919   2.552   1.993   3.827 -1.3271 -1.0531 -0.9426
 2502TIP3   OH228920   3.608   2.548   4.678  0.1436  0.0220 -0.2292
 2502TIP3    H128921   3.687   2.551   4.623  1.5250 -1.2242  1.5913
 2502TIP3    H228922   3.549   2.610   4.636  1.8602  0.5894 -2.0016
 2503TIP3   OH228923   0.499   1.189  11.993 -0.4889  0.2951  0.1214
 2503TIP3    H128924   0.570   1.178  11.930 -0.8810 -0.6411 -0.1763
 2503TIP3    H228925   0.469   1.100  12.012 -0.1736  0.5188  1.8928
 2504TIP3   OH228926   5.845   2.552  11.428  0.3608 -0.1441  0.4823
 2504TIP3    H128927   5.892   2.564  11.510  2.0261 -0.8588 -0.3132
 2504TIP3    H228928   5.893   2.607  11.365 -1.8131  1.6385  0.2641
 2505TIP3   OH228929   4.190   1.914  13.490  0.1228  0.6484 -0.1881
 2505TIP3    H128930   4.252   1.896  13.419  3.7858 -0.1919  2.9105
 2505TIP3    H228931   4.173   2.008  13.483  0.7969  0.6897 -1.8276
 2506TIP3   OH228932   2.832   1.767   2.974 -0.0632 -0.1906  0.0036
 2506TIP3    H128933   2.745   1.792   2.945  0.0088 -0.8217 -0.7894
 2506TIP3    H228934   2.847   1.681   2.936  1.2684  0.2951 -0.6438
 2507TIP3   OH228935   0.532   2.983   2.237 -0.2283  0.1228 -0.1908
 2507TIP3    H128936   0.620   3.021   2.241  0.5156 -1.4816 -0.4042
 2507TIP3    H228937   0.539   2.900   2.285 -1.8200  0.2973  0.3965
 2508TIP3   OH228938   1.194   3.683   4.157 -0.3249  0.2831 -0.4780
 2508TIP3    H128939   1.245   3.621   4.105  0.1005 -1.4325  1.8177
 2508TIP3    H228940   1.122   3.630   4.193  0.2114  0.9947  1.7900
 2509TIP3   OH228941   1.970   1.422  14.691 -0.2824 -0.6461  0.1971
 2509TIP3    H128942   2.024   1.356  14.733  1.1521  0.8088  0.7316
 2509TIP3    H228943   1.886   1.417  14.737  0.0375 -1.5684  0.7046
 2510TIP3   OH228944   0.011   5.949   0.520  0.1700 -0.4274 -0.4657
 2510TIP3    H128945   0.045   6.028   0.479  1.0560 -1.1364 -1.1434
 2510TIP3    H228946   0.089   5.899   0.544 -0.3374 -0.2655  1.6605
 2511TIP3   OH228947   0.467   0.003  15.586  0.3802 -0.0078 -0.6560
 2511TIP3    H128948   0.400  -0.054  15.623 -0.3634  0.8219 -0.6707
 2511TIP3    H228949   0.440   0.016  15.495 -1.0651  2.5616  0.0355
 2512TIP3   OH228950   0.494   6.132   5.648 -0.5332  0.3460  0.1644
 2512TIP3    H128951   0.567   6.101   5.594 -0.0244  0.4972  0.7580
 2512TIP3    H228952   0.465   6.054   5.696  0.2174  0.5931  1.0464
 2513TIP3   OH228953   0.487   4.558  14.191  0.0552  0.5779  0.3344
 2513TIP3    H128954   0.560   4.620  14.197  1.1955 -0.6321 -0.4061
 2513TIP3    H228955   0.520   4.479  14.234 -0.6893 -0.1042 -0.3290
 2514TIP3   OH228956   6.290   2.320  15.102  0.0698 -0.1148  0.0288
 2514TIP3    H128957   6.286   2.386  15.172  1.3800  0.1633 -0.1393
 2514TIP3    H228958   6.199   2.311  15.073 -0.2384  1.0767  0.5588
 2515TIP3   OH228959   5.032   6.435  16.614  0.6025 -0.0001  0.3817
 2515TIP3    H128960   4.939   6.434  16.635  0.7261 -1.0516  0.9324
 2515TIP3    H228961   5.043   6.365  16.549  1.0141  0.0928  0.3462
 2516TIP3   OH228962   0.746   5.763  10.431 -0.0870  0.1187 -0.0481
 2516TIP3    H128963   0.656   5.756  10.397  0.7870 -1.2083 -2.3287
 2516TIP3    H228964   0.748   5.705  10.507 -1.8140  2.2493  1.7475
 2517TIP3   OH228965   4.422   6.195  15.185 -0.4932 -0.3693 -0.1778
 2517TIP3    H128966   4.416   6.279  15.230 -1.1759 -0.3667 -0.2541
 2517TIP3    H228967   4.516   6.179  15.176 -0.3113 -0.6515  1.7468
 2518TIP3   OH228968   3.618   5.149   5.729 -0.0607  0.2352  0.3647
 2518TIP3    H128969   3.633   5.055   5.727 -0.8298  0.1121 -0.0906
 2518TIP3    H228970   3.650   5.177   5.814 -1.2158 -0.6882  1.1453
 2519TIP3   OH228971   0.114   4.641   2.713 -0.1222  0.3753  0.1301
 2519TIP3    H128972   0.048   4.572   2.707 -0.9050  1.1019  0.1774
 2519TIP3    H228973   0.064   4.721   2.729  0.7007  1.0901 -0.7339
 2520TIP3   OH228974   3.344   4.947  16.608  0.4968  0.4870  0.1136
 2520TIP3    H128975   3.320   4.917  16.696 -0.0643  2.3953  0.6590
 2520TIP3    H228976   3.261   4.955  16.562  0.7249  0.2544 -0.3487
 2521TIP3   OH228977   1.141   0.388   4.740 -0.6563 -0.1251  0.3716
 2521TIP3    H128978   1.051   0.369   4.765 -0.7680 -0.6504 -0.3826
 2521TIP3    H228979   1.144   0.482   4.728 -0.7044  0.0941  1.8842
 2522TIP3   OH228980   0.349   1.117  15.061 -0.3095  0.8228  0.2897
 2522TIP3    H128981   0.292   1.157  14.996 -0.0690  0.4954 -0.1244
 2522TIP3    H228982   0.392   1.045  15.015 -1.2049 -0.3322  1.1562
 2523TIP3   OH228983   5.505   3.094   1.111 -0.2524 -0.4963  0.7089
 2523TIP3    H128984   5.574   3.150   1.074 -0.6510 -0.6764 -0.3548
 2523TIP3    H228985   5.431   3.153   1.124 -0.3158 -0.5569  0.6242
 2524TIP3   OH228986   2.306   5.638  15.679 -0.0816  0.2010 -0.0698
 2524TIP3    H128987   2.247   5.713  15.670  0.7001  0.7227 -0.9645
 2524TIP3    H228988   2.382   5.659  15.625  0.1931 -1.2104 -0.2919
 2525TIP3   OH228989   3.530   1.314  13.403 -0.6362  0.1010 -0.2874
 2525TIP3    H128990   3.501   1.284  13.317 -1.8445  0.9606 -0.2067
 2525TIP3    H228991   3.554   1.406  13.390  1.0429 -0.2701 -0.0954
 2526TIP3   OH228992   0.892   2.918  11.890 -0.5491  0.0713 -0.6958
 2526TIP3    H128993   0.981   2.944  11.866 -0.0089  0.2775  1.3749
 2526TIP3    H228994   0.902   2.829  11.924 -0.8638  0.6316  0.9204
 2527TIP3   OH228995   3.362   4.866  16.888 -1.1858  0.2612 -0.3674
 2527TIP3    H128996   3.364   4.877  16.983 -1.2699 -1.4251 -0.1345
 2527TIP3    H228997   3.434   4.806  16.869 -1.9521 -0.4353 -1.1911
 2528TIP3   OH228998   6.455   6.121   1.775 -0.1530 -0.5759 -0.3387
 2528TIP3    H128999   6.363   6.121   1.801 -0.0437 -0.4362  0.0397
 2528TIP3    H229000   6.483   6.031   1.787 -0.7056 -1.0403 -2.1061
 2529TIP3   OH229001   5.519   6.304  11.162 -0.3427 -0.1718  0.3598
 2529TIP3    H129002   5.433   6.305  11.203 -0.0818 -1.1322  0.9813
 2529TIP3    H229003   5.514   6.369  11.092 -2.0413 -1.2302 -0.5783
 2530TIP3   OH229004   1.291   2.168  10.667 -0.4323 -0.0347 -0.6961
 2530TIP3    H129005   1.214   2.132  10.623 -1.2901  0.6045  0.2302
 2530TIP3    H229006   1.357   2.099  10.661 -1.2276 -0.7802 -1.1039
 2531TIP3   OH229007   6.054   1.990   0.018 -0.0075  0.6457  0.4170
 2531TIP3    H129008   6.054   1.929   0.091  4.5400  0.6916  0.7452
 2531TIP3    H229009   6.061   2.076   0.059 -0.3822  0.9089 -0.0660
 2532TIP3   OH229010   2.061   3.841  16.553  0.5763  0.6839  0.2002
 2532TIP3    H129011   2.087   3.870  16.466 -0.5735  0.4060 -0.2615
 2532TIP3    H229012   2.022   3.919  16.593 -0.1138  0.4723 -0.0470
 2533TIP3   OH229013   4.143   1.939  11.391  0.7663 -0.2073  0.6921
 2533TIP3    H129014   4.158   2.009  11.327 -0.0215 -0.1704  0.5393
 2533TIP3    H229015   4.101   1.983  11.465  0.6613 -0.4463  0.7752
 2534TIP3   OH229016   0.445   2.692   4.278  0.1917 -0.0436  0.3197
 2534TIP3    H129017   0.381   2.748   4.322  1.8875  2.3120 -0.0056
 2534TIP3    H229018   0.478   2.745   4.206  2.3130 -1.2404  0.3178
 2535TIP3   OH229019   1.027   3.313   6.004 -0.6454  0.4648  0.0365
 2535TIP3    H129020   1.069   3.280   6.083 -0.3293  1.1039  0.1395
 2535TIP3    H229021   0.995   3.400   6.028 -3.5812 -0.6192  0.5228
 2536TIP3   OH229022   0.914   6.002   0.083  0.3235  0.1116  0.5790
 2536TIP3    H129023   0.853   5.928   0.086  1.2239 -0.7233 -0.8161
 2536TIP3    H229024   0.892   6.053   0.161 -2.0030 -0.2615  0.2481
 2537TIP3   OH229025   4.393   0.011  16.301 -0.4554  0.1870 -0.0182
 2537TIP3    H129026   4.388  -0.082  16.322 -0.8003 -0.1250 -1.3699
 2537TIP3    H229027   4.487   0.029  16.291 -0.4458 -0.2655 -0.7683
 2538TIP3   OH229028   4.653   0.324  15.576 -0.2703  0.0664  0.3872
 2538TIP3    H129029   4.719   0.278  15.629 -0.6885 -1.6657 -0.4953
 2538TIP3    H229030   4.679   0.416  15.579  1.7661 -0.4630  0.6810
 2539TIP3   OH229031   3.311   0.403   1.995 -0.9427  0.0739  0.8475
 2539TIP3    H129032   3.342   0.478   1.944  0.3654 -0.5805  0.6535
 2539TIP3    H229033   3.220   0.424   2.015 -1.3419  0.5864 -1.3131
 2540TIP3   OH229034   2.382   6.062  15.170  0.4333  0.8493  0.0685
 2540TIP3    H129035   2.457   6.117  15.150  0.2154  1.3017  0.4617
 2540TIP3    H229036   2.308   6.106  15.128  0.1000  1.3972  1.1910
 2541TIP3   OH229037   6.288   1.559  15.337  0.6829  1.0781 -0.3161
 2541TIP3    H129038   6.317   1.546  15.247 -0.6068  1.3560 -0.7987
 2541TIP3    H229039   6.195   1.534  15.335  1.1624 -1.1153  1.4463
 2542TIP3   OH229040   4.518   1.837  13.834 -0.2570  0.4510  0.1134
 2542TIP3    H129041   4.446   1.900  13.826  0.5202  1.2030 -1.6321
 2542TIP3    H229042   4.477   1.752  13.822 -0.7851  0.9232 -1.8195
 2543TIP3   OH229043   3.093   2.607  11.277  0.2754 -0.0705  0.1725
 2543TIP3    H129044   3.012   2.652  11.253  0.2592  0.3642  0.9792
 2543TIP3    H229045   3.089   2.599  11.372  1.5823  0.7677  0.3313
 2544TIP3   OH229046   3.290   0.861  14.556 -0.0966 -0.4577  0.2342
 2544TIP3    H129047   3.298   0.860  14.461  4.6682 -0.7018  0.4251
 2544TIP3    H229048   3.309   0.771  14.583  0.0059 -0.0736  1.4975
 2545TIP3   OH229049   5.200   1.610  12.337  0.5256 -0.2562 -0.1029
 2545TIP3    H129050   5.229   1.701  12.344 -1.0494  0.2651  0.2199
 2545TIP3    H229051   5.273   1.558  12.371  0.6236  1.0368  1.8134
 2546TIP3   OH229052   5.473   5.341  15.767 -0.2539  1.3460 -0.1531
 2546TIP3    H129053   5.562   5.375  15.779 -0.7653  2.6802 -0.0232
 2546TIP3    H229054   5.421   5.385  15.833 -1.4071  2.1213 -1.5161
 2547TIP3   OH229055   2.948   4.648   6.223  0.2938  0.4027  0.1325
 2547TIP3    H129056   2.970   4.741   6.227  2.4898  0.0023 -1.1824
 2547TIP3    H229057   2.974   4.613   6.308  1.4758  0.6275 -0.1196
 2548TIP3   OH229058   6.152   3.906   5.611 -0.3469  0.0954  0.2564
 2548TIP3    H129059   6.124   3.919   5.521  2.5195 -3.3284 -1.3666
 2548TIP3    H229060   6.078   3.862   5.653 -0.7933 -0.6658 -1.2529
 2549TIP3   OH229061   1.691   1.580  11.063  0.3604  0.0619  0.3328
 2549TIP3    H129062   1.632   1.507  11.045  0.4322 -0.4312  1.9701
 2549TIP3    H229063   1.738   1.593  10.981  0.0407 -1.4555 -0.1240
 2550TIP3   OH229064   4.460   2.327  11.471 -0.0461 -0.0698  0.0902
 2550TIP3    H129065   4.520   2.298  11.540 -1.6313 -1.2622  1.0253
 2550TIP3    H229066   4.497   2.289  11.391 -1.6217 -4.5079  1.1516
 2551TIP3   OH229067   0.632   0.678  16.762 -0.5725  0.3852 -0.8563
 2551TIP3    H129068   0.672   0.616  16.700  0.5277  0.5959 -0.3839
 2551TIP3    H229069   0.565   0.627  16.807  1.1957 -0.9139  0.4786
 2552TIP3   OH229070   6.678   0.465  15.170 -0.5560  0.1631 -0.1382
 2552TIP3    H129071   6.741   0.537  15.166 -1.4654  1.0409  0.8055
 2552TIP3    H229072   6.593   0.507  15.161 -1.1515 -0.6734  1.2966
 2553TIP3   OH229073   4.162   5.072  13.062  0.2753  0.0761  0.1197
 2553TIP3    H129074   4.078   5.110  13.089  0.4603  0.5933 -0.0172
 2553TIP3    H229075   4.198   5.137  13.001  0.9557  0.0434  0.4857
 2554TIP3   OH229076   4.341   0.372   1.601 -0.1044  0.1184  0.3827
 2554TIP3    H129077   4.277   0.392   1.670  0.5716  0.2030  0.9863
 2554TIP3    H229078   4.424   0.359   1.647  0.5996  1.2983 -0.5172
 2555TIP3   OH229079   4.084   5.657   2.287 -0.1939 -0.2184 -0.3696
 2555TIP3    H129080   4.068   5.631   2.377  0.0266  0.4994 -0.1152
 2555TIP3    H229081   4.098   5.575   2.240  1.3889 -0.5415  0.5905
 2556TIP3   OH229082   5.080   5.734   5.370 -0.2288  0.5203 -0.5014
 2556TIP3    H129083   5.077   5.830   5.371  0.2057  0.5393 -0.7954
 2556TIP3    H229084   5.025   5.710   5.295  0.7495  0.5992 -1.2726
 2557TIP3   OH229085   1.809   1.747   2.150  0.7521  0.2117 -0.0823
 2557TIP3    H129086   1.853   1.670   2.115  1.9613  1.2394 -0.9438
 2557TIP3    H229087   1.719   1.720   2.163  1.2320 -1.4510  0.0073
 2558TIP3   OH229088   5.837   3.442  12.392 -0.1088 -0.5351  0.2844
 2558TIP3    H129089   5.801   3.444  12.303 -0.8155  1.2541  0.5577
 2558TIP3    H229090   5.768   3.401  12.445 -0.0711 -0.7717  0.1492
 2559TIP3   OH229091   5.961   3.754   3.525 -0.0902  0.1493 -0.0021
 2559TIP3    H129092   5.971   3.673   3.576  0.9706  0.7011  0.6983
 2559TIP3    H229093   5.945   3.822   3.590 -2.1962  0.3500 -0.6737
 2560TIP3   OH229094   1.654   1.014  10.742 -0.3308  0.4123 -0.0428
 2560TIP3    H129095   1.572   0.989  10.784  0.5330  1.9520  2.8367
 2560TIP3    H229096   1.719   0.953  10.776 -0.2540 -1.1320 -2.7096
 2561TIP3   OH229097   2.822   6.035   0.400 -0.1608  0.4410 -0.9291
 2561TIP3    H129098   2.803   6.001   0.313  0.0319  0.4420 -0.9716
 2561TIP3    H229099   2.788   5.968   0.459  1.7072 -0.6652 -1.0235
 2562TIP3   OH229100   3.767   0.217   2.317 -0.0509  0.2801  0.3924
 2562TIP3    H129101   3.800   0.282   2.255  0.0725  0.1888  0.3621
 2562TIP3    H229102   3.776   0.133   2.271  2.8830 -0.1943  1.6080
 2563TIP3   OH229103   0.852   1.717  16.549  0.6112 -0.2332  0.2247
 2563TIP3    H129104   0.831   1.775  16.622  1.3589  1.2828 -0.7286
 2563TIP3    H229105   0.833   1.629  16.582 -0.5368  0.5379  1.7024
 2564TIP3   OH229106   5.002   3.919  14.011 -0.0803  0.1328 -0.2075
 2564TIP3    H129107   4.928   3.911  14.071  1.5198  1.2556  2.0054
 2564TIP3    H229108   5.068   3.859  14.046  1.1234  1.2844 -0.4225
 2565TIP3   OH229109   5.779   4.594   6.117 -0.5522  0.0117  0.5669
 2565TIP3    H129110   5.795   4.517   6.172  0.0462 -0.3067 -0.0467
 2565TIP3    H229111   5.867   4.626   6.096 -0.7944  0.6268  0.4810
 2566TIP3   OH229112   3.353   1.095   4.480 -0.6684  0.1613  0.4125
 2566TIP3    H129113   3.448   1.090   4.491 -0.6216 -0.7678 -0.2289
 2566TIP3    H229114   3.325   1.167   4.536  0.4855  0.8092  0.1764
 2567TIP3   OH229115   6.234   4.295  16.597  0.2187  0.2031 -1.3561
 2567TIP3    H129116   6.175   4.369  16.606  0.0925  0.2872 -2.6585
 2567TIP3    H229117   6.201   4.229  16.658 -0.7055  0.5692 -1.4567
 2568TIP3   OH229118   5.912   4.771   5.232 -0.4709  0.4418 -0.0507
 2568TIP3    H129119   5.938   4.687   5.194  1.5904  1.1122 -0.2419
 2568TIP3    H229120   5.886   4.824   5.157 -1.4892  0.0896  0.0412
 2569TIP3   OH229121   3.983   3.573  11.609 -0.3853  0.2076  0.1611
 2569TIP3    H129122   4.035   3.597  11.533  2.0916 -5.2117 -0.3503
 2569TIP3    H229123   4.044   3.575  11.682 -1.3003  0.2127  0.9464
 2570TIP3   OH229124   6.752   1.225   5.255  0.1056 -0.3233 -0.2991
 2570TIP3    H129125   6.809   1.291   5.215 -0.7897  1.0958  0.6644
 2570TIP3    H229126   6.663   1.254   5.234 -0.3157 -1.3868 -0.0675
 2571TIP3   OH229127   1.393   5.655   0.230  0.4506  0.1220  0.1146
 2571TIP3    H129128   1.450   5.636   0.305 -1.0087 -1.6489  0.8487
 2571TIP3    H229129   1.344   5.574   0.217  0.0446  0.6994 -2.2351
 2572TIP3   OH229130   5.766   6.068   3.315  0.4192 -0.7361 -0.5964
 2572TIP3    H129131   5.823   6.033   3.246 -0.5652  2.5638 -3.3855
 2572TIP3    H229132   5.679   6.035   3.293  0.0082  0.7732 -1.3620
 2573TIP3   OH229133   1.599   6.811   0.965 -0.0652 -0.4925 -0.7690
 2573TIP3    H129134   1.524   6.759   0.935  0.1304 -1.7272  0.7602
 2573TIP3    H229135   1.559   6.891   1.001 -0.7299 -1.3023  0.3728
 2574TIP3   OH229136   0.037   4.212   0.433 -0.1774 -0.0054 -0.0994
 2574TIP3    H129137   0.049   4.184   0.343  0.4640 -0.1804  0.0341
 2574TIP3    H229138   0.108   4.274   0.450 -0.2649 -0.0047  0.2949
 2575TIP3   OH229139   0.831   6.684  14.877  0.2148 -0.2240 -0.1296
 2575TIP3    H129140   0.901   6.662  14.816 -0.6129 -0.6397 -0.9712
 2575TIP3    H229141   0.875   6.719  14.954  1.2891  0.4686 -1.0277
 2576TIP3   OH229142   5.262   1.167  15.298  0.6096 -0.0786  0.2405
 2576TIP3    H129143   5.267   1.139  15.389 -0.2715 -0.5883  0.1460
 2576TIP3    H229144   5.193   1.113  15.260  0.0696  1.0186 -0.4016
 2577TIP3   OH229145   0.465   6.446   0.016 -0.9457 -0.5269 -0.6340
 2577TIP3    H129146   0.551   6.408   0.034 -0.2090  0.7988 -1.2822
 2577TIP3    H229147   0.462   6.455  -0.079 -1.5378  0.0583 -0.5655
 2578TIP3   OH229148   6.121   6.012  15.212  0.3891 -0.1392 -0.2850
 2578TIP3    H129149   6.180   5.948  15.251 -0.0401  1.3152  3.1208
 2578TIP3    H229150   6.064   6.039  15.284 -0.3602  3.0462 -1.8803
 2579TIP3   OH229151   5.602   2.089  11.209 -0.1498  0.1959 -0.1840
 2579TIP3    H129152   5.689   2.051  11.211 -1.0802 -2.1115 -0.3527
 2579TIP3    H229153   5.611   2.168  11.155  2.1299  0.9865  1.2381
 2580TIP3   OH229154   6.707   6.559   0.124 -0.5364  0.4528  0.1836
 2580TIP3    H129155   6.636   6.559   0.060 -0.2347 -1.6932 -0.2289
 2580TIP3    H229156   6.772   6.618   0.089 -1.6006  1.5364 -0.0234
 2581TIP3   OH229157   5.349   4.745   3.935  0.1677  0.0586  0.1052
 2581TIP3    H129158   5.363   4.770   3.844  2.0187  1.9406  0.8337
 2581TIP3    H229159   5.425   4.692   3.958 -1.2668 -2.1390  0.0509
 2582TIP3   OH229160   2.944   1.907   5.662 -0.1948  0.2170  0.4865
 2582TIP3    H129161   2.956   1.985   5.716 -0.9610  1.5887 -1.2517
 2582TIP3    H229162   2.850   1.907   5.641 -0.2507 -1.3136  0.6238
 2583TIP3   OH229163   5.060   3.676   3.396 -0.4778  0.2134 -0.7787
 2583TIP3    H129164   4.998   3.747   3.379 -2.0176 -0.4786  1.4961
 2583TIP3    H229165   5.095   3.695   3.483 -0.2481 -1.3396 -0.5018
 2584TIP3   OH229166   2.041   1.723  12.731  0.2040  0.5497  0.5030
 2584TIP3    H129167   2.133   1.745  12.715 -0.3359  1.8194 -1.0759
 2584TIP3    H229168   1.992   1.782  12.674 -1.4948 -2.3326 -1.2731
 2585TIP3   OH229169   0.637   3.782  15.271  0.0227 -0.3125 -0.0780
 2585TIP3    H129170   0.693   3.826  15.207  0.8748 -1.7985 -0.3984
 2585TIP3    H229171   0.643   3.837  15.349 -0.8884  1.4331 -1.1561
 2586TIP3   OH229172   3.507   4.152  14.849 -0.6014  0.0405 -0.2544
 2586TIP3    H129173   3.419   4.168  14.814 -0.0605  0.9557 -1.2773
 2586TIP3    H229174   3.501   4.174  14.942 -1.4076  0.2786 -0.3562
 2587TIP3   OH229175   1.395   5.104   3.161 -0.2559 -0.6081  1.0024
 2587TIP3    H129176   1.490   5.113   3.172 -0.0370 -0.7202 -0.5758
 2587TIP3    H229177   1.384   5.074   3.071 -1.7638 -1.3110  1.3928
 2588TIP3   OH229178   4.733   6.482  16.897  0.2769  0.2078  0.0108
 2588TIP3    H129179   4.741   6.440  16.811  1.2050 -1.0091  0.6560
 2588TIP3    H229180   4.646   6.459  16.928  1.2928 -2.6531  1.0067
 2589TIP3   OH229181   0.555   3.300   2.396  0.0660  0.2841 -0.6692
 2589TIP3    H129182   0.601   3.236   2.341  1.4590 -0.3704  1.1104
 2589TIP3    H229183   0.566   3.265   2.485 -1.8079  1.4431  0.0571
 2590TIP3   OH229184   0.183   4.654   5.262  0.2515 -0.2127 -0.2188
 2590TIP3    H129185   0.214   4.580   5.314  0.8547  0.1363 -0.0681
 2590TIP3    H229186   0.142   4.713   5.325 -1.9979 -1.2800 -0.5842
 2591TIP3   OH229187   1.774   2.593  12.256  0.1491  0.0340 -0.0007
 2591TIP3    H129188   1.708   2.594  12.187 -1.1453 -0.5459  1.1932
 2591TIP3    H229189   1.849   2.549  12.215 -0.3532  0.2627 -1.2316
 2592TIP3   OH229190   2.024   2.985  16.363 -0.1656  0.3175  0.0391
 2592TIP3    H129191   2.103   3.037  16.352 -0.5378  0.4195 -2.8958
 2592TIP3    H229192   2.051   2.909  16.414  1.7412  0.5010 -0.6424
 2593TIP3   OH229193   0.278   2.098  14.613  0.0548  0.2656 -0.7813
 2593TIP3    H129194   0.280   2.151  14.533  0.4755  1.3332 -0.0783
 2593TIP3    H229195   0.310   2.012  14.585 -0.8467  0.2968 -1.9854
 2594TIP3   OH229196   4.659   1.910  13.603 -0.1725  0.1971 -0.4899
 2594TIP3    H129197   4.752   1.905  13.626 -0.1458  0.3073 -0.5727
 2594TIP3    H229198   4.616   1.847  13.661 -0.7405  3.3676  2.9102
 2595TIP3   OH229199   0.082   3.170  16.149 -0.0246 -0.3627  0.4899
 2595TIP3    H129200   0.151   3.112  16.182  0.9175  0.0612 -0.6432
 2595TIP3    H229201   0.126   3.255  16.138 -0.2328 -0.4923 -1.8382
 2596TIP3   OH229202   3.447   4.607   2.097 -0.0451  0.2193  0.7855
 2596TIP3    H129203   3.488   4.535   2.050  0.0454  0.7391  0.0376
 2596TIP3    H229204   3.385   4.645   2.034  1.6807  2.3357  0.2188
 2597TIP3   OH229205   0.735   5.846  14.451  0.2595  0.0791 -0.6661
 2597TIP3    H129206   0.780   5.860  14.368 -0.8939  0.0612 -1.3213
 2597TIP3    H229207   0.670   5.916  14.456  0.4083  0.1631  0.2901
 2598TIP3   OH229208   5.653   2.333   2.639 -0.1401 -0.0972  0.1240
 2598TIP3    H129209   5.717   2.380   2.586  0.6799 -1.1697  0.1119
 2598TIP3    H229210   5.620   2.398   2.701  0.2212  0.7221 -0.5284
 2599TIP3   OH229211   5.419   4.219   4.771  0.6234 -0.3977 -0.2366
 2599TIP3    H129212   5.430   4.267   4.689 -0.0799  0.3796  0.1090
 2599TIP3    H229213   5.506   4.184   4.789  0.9388 -0.0435 -0.9889
 2600TIP3   OH229214   2.659   1.819  15.229 -0.1891  0.1578  0.1648
 2600TIP3    H129215   2.644   1.808  15.135  0.7188 -0.3256  0.0600
 2600TIP3    H229216   2.574   1.803  15.269 -0.3397 -0.7552 -0.4969
 2601TIP3   OH229217   2.865   2.188   0.061  0.2628 -0.1956  0.2765
 2601TIP3    H129218   2.838   2.100   0.037  1.7596 -0.4323 -0.6457
 2601TIP3    H229219   2.916   2.176   0.141  0.6682 -0.2155  0.0206
 2602TIP3   OH229220   3.342   4.492  16.809  0.2553 -0.1267  0.3266
 2602TIP3    H129221   3.437   4.499  16.800  0.2657  1.3540  1.2499
 2602TIP3    H229222   3.307   4.540  16.734  0.1679 -2.1820 -1.0359
 2603TIP3   OH229223   4.774   5.211  15.450 -0.3736  0.1296  0.0626
 2603TIP3    H129224   4.721   5.237  15.375  2.3538  1.7187 -1.4686
 2603TIP3    H229225   4.780   5.289  15.505  1.1781  0.3342 -0.3440
 2604TIP3   OH229226   2.570   4.537  16.649  0.3248  0.2647  0.1282
 2604TIP3    H129227   2.617   4.519  16.730 -3.1405 -1.3448  1.9804
 2604TIP3    H229228   2.513   4.461  16.636 -1.1517  1.6417 -2.3902
 2605TIP3   OH229229   6.553   4.142   0.193 -0.2683  0.2184 -0.6640
 2605TIP3    H129230   6.471   4.092   0.183  0.1614 -0.8203  0.7090
 2605TIP3    H229231   6.542   4.188   0.276  0.0737  1.0511 -1.0683
 2606TIP3   OH229232   5.909   4.222  10.975  0.3059  0.1711 -0.1225
 2606TIP3    H129233   5.991   4.240  10.928  0.8690 -0.8446  0.4440
 2606TIP3    H229234   5.850   4.189  10.908  0.4309  0.6613 -0.4873
 2607TIP3   OH229235   5.567   6.223  14.418  0.4174  0.6322  0.3213
 2607TIP3    H129236   5.495   6.172  14.381  0.1999  1.1859 -0.0334
 2607TIP3    H229237   5.578   6.296  14.357  0.0012  1.6064  1.3690
 2608TIP3   OH229238   1.476   5.291  15.043  0.3702  0.1128 -0.2390
 2608TIP3    H129239   1.492   5.309  14.950  1.2690 -0.2518 -0.1691
 2608TIP3    H229240   1.531   5.215  15.062 -0.2352 -0.1585  0.4611
 2609TIP3   OH229241   4.400   0.530   0.559  0.1020 -0.0412 -0.5516
 2609TIP3    H129242   4.391   0.435   0.574  2.0763 -0.3817 -1.1564
 2609TIP3    H229243   4.398   0.568   0.647  0.1447 -0.7555 -0.2295
 2610TIP3   OH229244   0.270   0.891   4.185  0.4180 -0.0824 -0.6349
 2610TIP3    H129245   0.254   0.979   4.220  1.4397  0.1710 -0.7685
 2610TIP3    H229246   0.182   0.856   4.168 -0.0035  1.3319 -1.5961
 2611TIP3   OH229247   4.445   4.085  16.934  0.5176  0.1508  0.1486
 2611TIP3    H129248   4.460   4.158  16.994  2.0983 -0.0360  0.0125
 2611TIP3    H229249   4.484   4.010  16.978 -2.0608 -0.9291  0.8123
 2612TIP3   OH229250   0.926   2.145  15.943  0.0478 -0.6915  0.1566
 2612TIP3    H129251   0.870   2.152  15.866  0.0824  0.5836  0.2097
 2612TIP3    H229252   0.894   2.069  15.990  0.4313 -1.8948 -1.4323
 2613TIP3   OH229253   1.532   1.159   1.197 -0.0081 -0.2337 -0.1433
 2613TIP3    H129254   1.504   1.123   1.281 -0.3026 -0.7523 -0.4555
 2613TIP3    H229255   1.484   1.241   1.188  1.6495  0.9655  1.1841
 2614TIP3   OH229256   6.154   2.311  13.951  0.2287  1.1112 -0.0647
 2614TIP3    H129257   6.169   2.216  13.959 -3.9583  0.3767  1.6538
 2614TIP3    H229258   6.175   2.331  13.860  1.6573 -1.3548 -0.3670
 2615TIP3   OH229259   6.468   4.744   0.244  0.4126  0.2615  0.1481
 2615TIP3    H129260   6.409   4.719   0.314  1.7628  1.8377  1.9699
 2615TIP3    H229261   6.429   4.823   0.206 -0.6924 -0.9822 -1.4741
 2616TIP3   OH229262   2.554   3.498  15.473 -0.0125  0.8954  0.6661
 2616TIP3    H129263   2.544   3.403  15.465  1.2922  0.8921 -1.7392
 2616TIP3    H229264   2.464   3.532  15.467 -0.5364 -0.1381  1.9158
 2617TIP3   OH229265   3.744   3.631  13.643 -0.5100 -0.3444 -0.0161
 2617TIP3    H129266   3.687   3.691  13.595 -0.0177 -0.2970 -0.5586
 2617TIP3    H229267   3.707   3.544  13.627  0.2453 -0.4410 -1.3767
 2618TIP3   OH229268   0.725   4.989   4.779  0.0073 -0.1055 -0.2277
 2618TIP3    H129269   0.671   5.067   4.764 -0.2195 -0.1747  0.1956
 2618TIP3    H229270   0.714   4.936   4.700  0.0021  0.1991 -0.4328
 2619TIP3   OH229271   5.377   3.927   5.393  0.5856  0.0106  0.6327
 2619TIP3    H129272   5.408   3.951   5.306  0.8720 -0.1791  0.6846
 2619TIP3    H229273   5.456   3.917   5.445  0.4017  3.2299  1.7545
 2620TIP3   OH229274   2.597   4.254  13.576 -0.0080 -0.0476  0.0765
 2620TIP3    H129275   2.588   4.326  13.513  2.8803 -0.0240 -0.4479
 2620TIP3    H229276   2.612   4.297  13.660 -1.7366 -0.0920  0.4468
 2621TIP3   OH229277   6.009   0.052   1.765 -0.7807 -0.2031 -0.5937
 2621TIP3    H129278   5.995   0.126   1.825  1.5356 -0.1167 -0.0644
 2621TIP3    H229279   5.962   0.076   1.686  2.0244  3.2596 -1.4748
 2622TIP3   OH229280   4.911   5.152   1.974 -0.0051  0.2164  0.0614
 2622TIP3    H129281   4.880   5.240   1.951  0.7029  0.8892  1.5257
 2622TIP3    H229282   4.994   5.143   1.927 -0.4545  0.0068 -0.7050
 2623TIP3   OH229283   6.286   3.943  13.118  0.6213  0.2113 -0.0807
 2623TIP3    H129284   6.260   4.034  13.106  2.9797  0.9330 -0.3151
 2623TIP3    H229285   6.208   3.893  13.097 -0.7933  2.1662  0.2068
 2624TIP3   OH229286   0.024   1.559  14.386 -0.0299 -0.4983  0.2404
 2624TIP3    H129287  -0.017   1.640  14.354  1.2447  0.4244  0.8401
 2624TIP3    H229288  -0.040   1.523  14.448 -1.4382 -0.9885 -1.4137
 2625TIP3   OH229289   1.266   3.651  17.015  0.4689  0.1106  0.0505
 2625TIP3    H129290   1.356   3.639  16.984  0.3301 -0.3075 -0.1951
 2625TIP3    H229291   1.217   3.679  16.938  0.8022  2.4863  0.6325
 2626TIP3   OH229292   3.155   1.912   4.472  0.6284 -0.3089  0.3092
 2626TIP3    H129293   3.128   1.954   4.554  0.9620  1.5773 -0.4936
 2626TIP3    H229294   3.244   1.882   4.490  0.5630 -0.2518  0.7585
 2627TIP3   OH229295   1.624   0.187  12.593  0.0435 -0.5031  0.8714
 2627TIP3    H129296   1.550   0.246  12.605  1.3309  0.9454  2.0146
 2627TIP3    H229297   1.594   0.124  12.528 -2.4801 -0.4792  1.9057
 2628TIP3   OH229298   3.324   5.161  16.201 -0.0850 -0.0781 -0.1419
 2628TIP3    H129299   3.396   5.157  16.138  0.4176 -2.0471  0.4958
 2628TIP3    H229300   3.366   5.190  16.282 -0.1109 -0.6934  0.0926
 2629TIP3   OH229301   0.606   2.677  14.691 -0.4683  0.2465 -0.2848
 2629TIP3    H129302   0.642   2.664  14.779 -0.0740  1.1855 -0.3029
 2629TIP3    H229303   0.518   2.640  14.696 -0.9911  1.5806  0.9404
 2630TIP3   OH229304   1.824   2.298  11.592  0.0435 -0.1671  0.3841
 2630TIP3    H129305   1.919   2.307  11.597  0.0734 -0.6230  0.7029
 2630TIP3    H229306   1.793   2.336  11.675 -0.0832  0.3437  0.1083
 2631TIP3   OH229307   3.112   6.512   4.316  0.3391  0.6760  0.1934
 2631TIP3    H129308   3.155   6.596   4.309  0.1046  1.0019  2.1113
 2631TIP3    H229309   3.021   6.533   4.336  0.3114 -0.0194  0.8539
 2632TIP3   OH229310   3.142   0.365   0.382  0.4790  0.2098  0.3349
 2632TIP3    H129311   3.079   0.315   0.329 -0.6576  1.3210  0.5853
 2632TIP3    H229312   3.227   0.326   0.361 -0.1621 -0.6344 -0.8362
 2633TIP3   OH229313   6.452   2.294   3.898  0.8997  0.3549  0.0946
 2633TIP3    H129314   6.406   2.214   3.871  0.4307  0.5004  0.4398
 2633TIP3    H229315   6.451   2.350   3.821  1.0108  0.1264 -0.0739
 2634TIP3   OH229316   5.691   0.223   6.109 -0.8106 -0.4732 -0.1398
 2634TIP3    H129317   5.657   0.134   6.111  1.9213 -1.6089  0.2659
 2634TIP3    H229318   5.724   0.238   6.198  2.3854 -0.6785 -1.1608
 2635TIP3   OH229319   6.640   2.722  15.005 -0.4550 -0.1550  0.2574
 2635TIP3    H129320   6.682   2.808  14.994  0.0048 -0.3493  0.4882
 2635TIP3    H229321   6.707   2.667  15.046 -1.3240 -0.1155  1.8186
 2636TIP3   OH229322   0.153   0.228  14.461  0.0977  0.0659  0.3552
 2636TIP3    H129323   0.102   0.221  14.381  1.4410  0.3155 -0.5555
 2636TIP3    H229324   0.198   0.144  14.470  0.8520  0.4449  0.2031
 2637TIP3   OH229325   1.565   3.315  12.405  0.7323  0.1661  0.2063
 2637TIP3    H129326   1.485   3.368  12.410  0.3778 -0.2740 -0.5813
 2637TIP3    H229327   1.600   3.332  12.318  1.9481  0.9698  0.8305
 2638TIP3   OH229328   4.052   5.561   2.551 -0.2297  0.3673  0.3678
 2638TIP3    H129329   4.136   5.529   2.520 -1.8634 -3.1212 -1.0304
 2638TIP3    H229330   4.064   5.573   2.645  1.8313  0.1074  0.1763
 2639TIP3   OH229331   4.997   2.714   5.721  0.2880 -0.0360  1.1053
 2639TIP3    H129332   5.045   2.757   5.650 -2.3142  2.0488  0.4656
 2639TIP3    H229333   5.049   2.636   5.741  3.1888  1.3490 -0.3776
 2640TIP3   OH229334   5.600   5.693  12.260  0.9439 -0.1386  0.2612
 2640TIP3    H129335   5.630   5.784  12.264 -0.4184  0.3130  0.5735
 2640TIP3    H229336   5.608   5.670  12.167 -0.1995  0.8443 -0.1071
 2641TIP3   OH229337   4.143   1.805   0.353  0.2515 -0.3641  0.1247
 2641TIP3    H129338   4.207   1.773   0.418  0.9072  0.2083 -0.2316
 2641TIP3    H229339   4.174   1.768   0.270 -0.0986 -0.3851  0.0030
 2642TIP3   OH229340   6.276   0.690   5.451 -0.2418  0.1999  0.0754
 2642TIP3    H129341   6.323   0.770   5.475 -1.6393  1.0958 -0.0633
 2642TIP3    H229342   6.232   0.663   5.531 -1.4267  0.7561 -0.3598
 2643TIP3   OH229343   6.613   5.856  13.844  0.1128 -0.6008 -0.5716
 2643TIP3    H129344   6.697   5.836  13.885  0.7513  0.0921 -1.5078
 2643TIP3    H229345   6.552   5.865  13.918  0.9429 -0.6885  0.1392
 2644TIP3   OH229346   2.485   4.380   2.880  0.5626 -0.2051 -0.0162
 2644TIP3    H129347   2.519   4.437   2.949 -0.7109  0.3034  0.2152
 2644TIP3    H229348   2.504   4.427   2.799 -2.7928  1.9675  0.2640
 2645TIP3   OH229349   5.628   5.955  11.857 -0.1247 -0.2310 -0.0601
 2645TIP3    H129350   5.631   5.988  11.947 -2.4474 -0.2624  0.0784
 2645TIP3    H229351   5.562   6.010  11.814  1.4895  0.3046 -2.0052
 2646TIP3   OH229352   2.029   2.374  16.997  0.0244  0.2436  0.1860
 2646TIP3    H129353   2.066   2.287  17.010  0.7222  0.4214 -0.5462
 2646TIP3    H229354   1.936   2.363  17.018 -0.0206 -0.8231 -0.4701
 2647TIP3   OH229355   2.457   5.785   1.497  0.5791 -0.6886 -0.1741
 2647TIP3    H129356   2.494   5.873   1.508  0.7349 -0.9477  1.6704
 2647TIP3    H229357   2.369   5.800   1.462  1.2227  0.0797 -1.5822
 2648TIP3   OH229358   4.797   5.742  16.293  0.3255  0.4627 -0.3959
 2648TIP3    H129359   4.830   5.657  16.263  1.6792  0.3134  1.3697
 2648TIP3    H229360   4.870   5.802  16.282 -0.3932  1.2466 -0.9567
 2649TIP3   OH229361   0.224   6.132   1.309  0.0255  0.3223 -0.4440
 2649TIP3    H129362   0.248   6.122   1.217  1.8647  0.7460 -0.0536
 2649TIP3    H229363   0.280   6.069   1.355 -0.3340  0.6504  0.4616
 2650TIP3   OH229364   5.079   1.169   1.322 -0.2366  0.3589  0.1764
 2650TIP3    H129365   5.028   1.139   1.397 -1.4767  2.3162  0.1729
 2650TIP3    H229366   5.160   1.117   1.326 -1.0212 -0.8338  1.8066
 2651TIP3   OH229367   6.688   1.715  12.619 -0.2017 -0.0510 -0.1273
 2651TIP3    H129368   6.775   1.677  12.624 -0.2336 -0.1976 -0.5921
 2651TIP3    H229369   6.690   1.790  12.679  0.3100  0.0865 -0.3130
 2652TIP3   OH229370   2.506   0.254   0.921  0.3064 -0.1774 -0.0479
 2652TIP3    H129371   2.460   0.198   0.859 -0.5603  0.9896 -0.5060
 2652TIP3    H229372   2.438   0.311   0.957  0.7965 -0.8001  1.9761
 2653TIP3   OH229373   4.616   2.427   1.838  0.0496 -0.3661  0.3023
 2653TIP3    H129374   4.662   2.480   1.904 -0.6949 -0.8049  1.2020
 2653TIP3    H229375   4.572   2.359   1.889 -0.9951 -0.3951 -0.6114
 2654TIP3   OH229376   0.188   2.627   4.161  0.1462  0.2760 -0.6097
 2654TIP3    H129377   0.214   2.709   4.203  0.9994 -0.0845 -0.4056
 2654TIP3    H229378   0.186   2.563   4.233 -1.5147  0.3165 -0.5815
 2655TIP3   OH229379   0.931   5.875   0.410 -0.8453  0.2116  0.2290
 2655TIP3    H129380   1.003   5.838   0.359  0.2341  1.2537  0.9468
 2655TIP3    H229381   0.870   5.909   0.345 -0.6580 -0.5846 -0.3852
 2656TIP3   OH229382   0.492   3.670  14.923 -0.0885  0.2211  0.0198
 2656TIP3    H129383   0.575   3.713  14.900 -0.3899  1.9244  1.8600
 2656TIP3    H229384   0.424   3.733  14.898 -0.5373  0.9858  2.8612
 2657TIP3   OH229385   0.924   4.579   1.237 -0.2141  0.1451 -0.1997
 2657TIP3    H129386   0.889   4.636   1.168  1.6620  1.3788 -0.2170
 2657TIP3    H229387   0.849   4.528   1.266 -1.2029  0.0261 -2.7057
 2658TIP3   OH229388   3.628   2.071  12.315 -0.1796  0.3134  0.3024
 2658TIP3    H129389   3.646   2.161  12.342 -0.1029 -0.0143  1.4121
 2658TIP3    H229390   3.601   2.027  12.396  0.9788 -0.9627  0.0374
 2659TIP3   OH229391   4.913   0.990   2.259 -0.0799  0.1892 -0.3902
 2659TIP3    H129392   4.843   0.927   2.276 -0.1533  0.7003  1.3925
 2659TIP3    H229393   4.979   0.939   2.213 -0.8572 -0.7681 -0.4847
 2660TIP3   OH229394   6.280   2.228   2.875  0.3203 -0.0894 -0.0724
 2660TIP3    H129395   6.361   2.229   2.825  1.3385  0.9268  1.5116
 2660TIP3    H229396   6.276   2.140   2.913  0.4603 -0.2769 -0.4932
 2661TIP3   OH229397   4.752   6.260  15.398  0.6545 -0.2902 -0.1260
 2661TIP3    H129398   4.776   6.352  15.390  2.6253 -0.7141  0.3183
 2661TIP3    H229399   4.688   6.258  15.470 -1.6217  1.0096 -1.9886
 2662TIP3   OH229400   5.393   4.434   4.597 -0.6807  0.5700  0.0983
 2662TIP3    H129401   5.412   4.509   4.653 -0.9986  1.2971 -0.7563
 2662TIP3    H229402   5.451   4.444   4.522 -1.8215  0.8255 -0.7712
 2663TIP3   OH229403   4.177   3.980   0.636 -0.1609 -0.2716  0.3556
 2663TIP3    H129404   4.151   3.888   0.635 -0.0327 -0.3174  0.9517
 2663TIP3    H229405   4.272   3.978   0.629 -0.1178 -0.2065  0.8955
 2664TIP3   OH229406   0.166   1.977  12.014  0.0516 -0.2027  0.3928
 2664TIP3    H129407   0.134   1.955  11.927  0.8094  0.6303 -0.1139
 2664TIP3    H229408   0.089   2.010  12.061 -0.5388 -1.4549  0.3359
 2665TIP3   OH229409   5.695   2.914   0.474  0.8815  0.2028  0.3562
 2665TIP3    H129410   5.623   2.925   0.536  2.0600 -0.7362  1.9904
 2665TIP3    H229411   5.766   2.968   0.509  0.6673  2.1073 -1.8926
 2666TIP3   OH229412   6.334   0.819  12.627 -0.0063 -0.4342 -0.2095
 2666TIP3    H129413   6.395   0.837  12.699  1.0752  0.6552 -1.3357
 2666TIP3    H229414   6.391   0.799  12.552 -0.9780  0.9466 -1.3976
 2667TIP3   OH229415   6.289   0.934   0.134 -0.3638 -0.0454 -0.2196
 2667TIP3    H129416   6.324   0.848   0.112 -0.3379  0.0780 -0.6821
 2667TIP3    H229417   6.321   0.952   0.222 -0.4980 -0.5759 -0.0596
 2668TIP3   OH229418   4.483   6.101  13.913 -0.3696  0.2604 -0.0174
 2668TIP3    H129419   4.400   6.144  13.891 -1.3101 -1.2299  0.5172
 2668TIP3    H229420   4.510   6.058  13.832 -1.2853 -1.0999  0.3731
 2669TIP3   OH229421   5.388   2.842  11.998 -0.3840 -0.0053 -0.1594
 2669TIP3    H129422   5.463   2.789  11.971 -0.2458  0.4231 -0.6310
 2669TIP3    H229423   5.321   2.823  11.933 -1.5196 -2.1505  1.5148
 2670TIP3   OH229424   6.041   4.553  13.852  0.2946  0.0091  0.5703
 2670TIP3    H129425   6.026   4.476  13.797  0.6453 -0.2387  0.8171
 2670TIP3    H229426   6.004   4.529  13.937  2.2806 -0.7308  1.2823
 2671TIP3   OH229427   4.240   3.790   5.541 -1.1194 -0.2971 -0.5827
 2671TIP3    H129428   4.316   3.836   5.506  0.4416 -1.7662  0.6956
 2671TIP3    H229429   4.231   3.712   5.486 -0.7294 -0.8978  0.1852
 2672TIP3   OH229430   1.931   5.589   4.716  0.1785  0.0009 -0.0517
 2672TIP3    H129431   1.847   5.607   4.758 -0.6812  0.4242 -1.8277
 2672TIP3    H229432   1.992   5.652   4.754 -0.9957  1.6031 -0.7099
 2673TIP3   OH229433   1.769   3.486   2.468 -0.2477  0.1929  0.0261
 2673TIP3    H129434   1.675   3.503   2.471 -0.5399 -1.3778  0.4329
 2673TIP3    H229435   1.808   3.571   2.449 -1.6716  1.0635  0.8576
 2674TIP3   OH229436   3.283   5.093   2.942 -0.6204 -0.0355  0.3967
 2674TIP3    H129437   3.240   5.074   2.859 -0.2279  1.3937 -0.1700
 2674TIP3    H229438   3.354   5.029   2.948  1.5116  1.8651 -2.0839
 2675TIP3   OH229439   4.424   2.373  16.548 -0.7788  0.6661 -0.0495
 2675TIP3    H129440   4.426   2.278  16.541  2.8058  0.6140 -0.1209
 2675TIP3    H229441   4.428   2.404  16.457  0.3274  0.8232  0.0460
 2676TIP3   OH229442   2.593   1.199   6.516 -0.1468  0.2183 -0.3729
 2676TIP3    H129443   2.610   1.292   6.535 -0.5950  0.2258  0.0243
 2676TIP3    H229444   2.669   1.170   6.466  0.0613  0.7670 -0.3806
 2677TIP3   OH229445   0.151   6.387   1.955  0.2773  0.2364 -0.8426
 2677TIP3    H129446   0.129   6.307   1.907 -1.1219 -0.1500  0.3423
 2677TIP3    H229447   0.076   6.445   1.939 -0.1332  0.1683  0.6529
 2678TIP3   OH229448   5.245   1.704   0.609  0.4856  0.8978 -0.1361
 2678TIP3    H129449   5.249   1.782   0.665  1.6289  1.3833 -0.8654
 2678TIP3    H229450   5.334   1.694   0.575  0.0624 -0.0088 -1.0309
 2679TIP3   OH229451   0.594   6.322   3.850  0.3732  0.1120 -0.2585
 2679TIP3    H129452   0.655   6.395   3.855  0.4749 -0.0070  0.3422
 2679TIP3    H229453   0.640   6.256   3.798  0.8704 -0.0757  0.3990
 2680TIP3   OH229454   3.915   0.022  15.458 -0.4501  0.2625 -0.0844
 2680TIP3    H129455   3.953  -0.005  15.541  0.2927  0.1268 -0.4621
 2680TIP3    H229456   3.869   0.103  15.478  0.3701  0.6432  0.3032
 2681TIP3   OH229457   3.187   5.442  10.801  0.4980 -0.3162 -0.1637
 2681TIP3    H129458   3.192   5.524  10.850 -0.8708  0.0232 -0.5549
 2681TIP3    H229459   3.190   5.470  10.709 -2.5080 -0.4083 -0.3937
 2682TIP3   OH229460   3.724   2.924  16.874  0.8100 -0.7883 -0.3244
 2682TIP3    H129461   3.813   2.893  16.887  0.8811 -0.2260  0.6436
 2682TIP3    H229462   3.727   2.974  16.792  1.5874 -0.0857  0.1169
 2683TIP3   OH229463   2.689   4.080   3.382 -0.1374  0.0928 -0.3177
 2683TIP3    H129464   2.596   4.105   3.389  0.0076  0.3222  1.0719
 2683TIP3    H229465   2.736   4.150   3.426  0.6716 -0.2335 -0.6492
 2684TIP3   OH229466   0.231   2.567  12.882 -0.2443  0.6121  0.2979
 2684TIP3    H129467   0.232   2.473  12.863  1.1196  0.9048 -1.3399
 2684TIP3    H229468   0.150   2.599  12.841  0.2651  0.4398 -0.8913
 2685TIP3   OH229469   3.030   0.512   5.983 -0.0142 -0.0057 -0.0061
 2685TIP3    H129470   2.957   0.458   5.953  0.3121 -0.0199 -0.8151
 2685TIP3    H229471   2.989   0.595   6.008 -0.4936 -0.5496  1.0818
 2686TIP3   OH229472   3.650   3.722   4.511  0.4036 -0.2895 -0.2416
 2686TIP3    H129473   3.617   3.811   4.527 -1.0490 -1.0670  1.3920
 2686TIP3    H229474   3.585   3.683   4.453 -0.1407 -0.9580  0.7945
 2687TIP3   OH229475   2.650   2.373  16.198 -0.3178 -0.0625 -0.3824
 2687TIP3    H129476   2.653   2.298  16.139  1.9421  0.7899 -1.4739
 2687TIP3    H229477   2.595   2.437  16.153  0.0699 -0.0185 -0.7926
 2688TIP3   OH229478   3.804   5.958   0.518  0.2969  0.5090 -0.1166
 2688TIP3    H129479   3.890   5.937   0.554  0.9445  1.2081 -1.2020
 2688TIP3    H229480   3.762   5.874   0.505  0.3799  0.1942  1.4030
 2689TIP3   OH229481   3.840   3.724  12.051  0.0674  0.3638 -0.1258
 2689TIP3    H129482   3.815   3.684  11.967 -1.5747  1.0609 -0.0194
 2689TIP3    H229483   3.911   3.785  12.029  0.3558 -0.2174 -0.8283
 2690TIP3   OH229484   2.852   4.878  15.391 -0.3877  0.6238  0.3662
 2690TIP3    H129485   2.774   4.884  15.446 -0.3663  1.5717  0.3134
 2690TIP3    H229486   2.862   4.966  15.354  0.7879  0.5606  0.4808
 2691TIP3   OH229487   1.572   3.577   3.568 -0.1725 -0.2613  0.3010
 2691TIP3    H129488   1.559   3.652   3.626  0.7567 -0.2509  0.5171
 2691TIP3    H229489   1.522   3.599   3.489 -1.7289 -0.4344  1.2114
 2692TIP3   OH229490   4.625   4.683   2.346 -0.0568  0.3367 -0.1768
 2692TIP3    H129491   4.702   4.740   2.352  0.6409 -0.6230  0.1897
 2692TIP3    H229492   4.562   4.734   2.294  1.5286  0.3503 -2.2085
 2693TIP3   OH229493   1.944   2.654   5.121 -0.3465 -0.2369 -0.5052
 2693TIP3    H129494   1.926   2.656   5.027 -3.1025  1.0388 -0.0542
 2693TIP3    H229495   1.904   2.573   5.151 -0.8020  0.0913 -0.2209
 2694TIP3   OH229496   6.551   0.050  14.896  0.0765 -0.0885 -0.8316
 2694TIP3    H129497   6.551   0.081  14.987  1.0561 -0.6286 -0.6397
 2694TIP3    H229498   6.583   0.125  14.845  2.1806 -0.6241 -0.3993
 2695TIP3   OH229499   3.317   1.738  14.580  0.2716 -1.0621 -0.6136
 2695TIP3    H129500   3.254   1.701  14.518  0.1545  0.2594 -1.3179
 2695TIP3    H229501   3.395   1.754  14.527  0.2407 -0.0999 -0.3746
 2696TIP3   OH229502   4.419   3.404   2.492  0.0978  0.0119  0.1209
 2696TIP3    H129503   4.479   3.477   2.475  0.0589  0.5041  1.9511
 2696TIP3    H229504   4.332   3.444   2.492 -0.0476 -0.2990 -0.2909
 2697TIP3   OH229505   2.421   3.815   1.232  0.0339 -0.2925  0.4884
 2697TIP3    H129506   2.424   3.895   1.284 -1.9426 -0.1279  0.4021
 2697TIP3    H229507   2.425   3.845   1.141  0.5558 -0.3858  0.4778
 2698TIP3   OH229508   5.074   3.566  14.674  0.2889 -0.3660 -0.3592
 2698TIP3    H129509   5.017   3.581  14.599 -1.1072  0.2971  0.7929
 2698TIP3    H229510   5.142   3.634  14.666  0.2875 -0.4389 -1.1163
 2699TIP3   OH229511   1.542   5.597   0.479  0.0949 -0.4382  0.6043
 2699TIP3    H129512   1.591   5.522   0.512 -0.8789 -0.3872  2.3137
 2699TIP3    H229513   1.497   5.632   0.557 -0.2576  1.3086 -0.3302
 2700TIP3   OH229514   5.501   6.337   4.001 -0.5732  0.1419 -0.1242
 2700TIP3    H129515   5.564   6.268   4.022 -0.8874  0.1932  1.0099
 2700TIP3    H229516   5.506   6.398   4.075 -1.4412  0.5199 -0.3660
 2701TIP3   OH229517   1.479   5.188   5.006  0.4941 -0.3621 -0.0614
 2701TIP3    H129518   1.524   5.188   5.091 -1.0336 -0.8506  0.7795
 2701TIP3    H229519   1.481   5.279   4.978  2.9722 -0.5084 -0.6248
 2702TIP3   OH229520   6.148   6.586   5.438 -0.1903 -0.0406 -0.4827
 2702TIP3    H129521   6.124   6.594   5.530  1.1848  0.2390 -0.1197
 2702TIP3    H229522   6.239   6.556   5.440 -0.1785 -0.1369 -1.7565
 2703TIP3   OH229523   1.637   4.375   3.534  0.4649  0.0550  1.0645
 2703TIP3    H129524   1.633   4.465   3.499 -0.5607  0.1884  1.4911
 2703TIP3    H229525   1.694   4.329   3.473 -1.4897  0.2042 -1.0360
 2704TIP3   OH229526   3.348   5.691  11.654 -0.1407 -0.0306 -0.2091
 2704TIP3    H129527   3.358   5.680  11.560 -0.4955 -0.1903 -0.2305
 2704TIP3    H229528   3.390   5.613  11.692  0.6633  0.3954 -0.1958
 2705TIP3   OH229529   6.430   3.102   1.836 -0.3002 -0.5353 -0.2982
 2705TIP3    H129530   6.409   3.159   1.762  0.7241 -1.0844 -1.0402
 2705TIP3    H229531   6.479   3.159   1.896 -0.8862 -0.1617 -0.1673
 2706TIP3   OH229532   1.843   3.378   0.467 -0.0516  0.7050  0.4873
 2706TIP3    H129533   1.826   3.286   0.448 -1.4789  0.6293  1.9197
 2706TIP3    H229534   1.864   3.417   0.382  2.4426 -1.2692  0.0840
 2707TIP3   OH229535   0.723   3.870  13.828  0.1033 -0.7091 -0.7805
 2707TIP3    H129536   0.720   3.828  13.914 -0.0802  2.1300  0.7332
 2707TIP3    H229537   0.817   3.879  13.810  0.1980  0.4733  0.1453
 2708TIP3   OH229538   1.593   2.080   5.353 -0.8741 -0.2682  0.6919
 2708TIP3    H129539   1.640   2.149   5.307  0.2701 -1.2161  0.3906
 2708TIP3    H229540   1.562   2.122   5.433  0.5425  0.3978  0.9306
 2709TIP3   OH229541   5.279   1.989  15.032 -0.0570 -0.1208 -0.2225
 2709TIP3    H129542   5.242   1.911  15.071  3.5541 -2.0962 -0.2808
 2709TIP3    H229543   5.328   1.957  14.956  1.9200  2.0713  0.0006
 2710TIP3   OH229544   4.038   0.379   3.331  0.1861 -0.2696 -0.1074
 2710TIP3    H129545   4.107   0.354   3.392  0.5093 -1.2420 -0.8395
 2710TIP3    H229546   4.085   0.407   3.253 -0.2360 -0.1153 -0.3064
 2711TIP3   OH229547   5.302   5.166  12.983  0.0402 -0.3483 -0.7610
 2711TIP3    H129548   5.219   5.169  12.936  0.0259 -1.5731 -0.8675
 2711TIP3    H229549   5.294   5.232  13.052 -0.3836  0.6559 -1.7464
 2712TIP3   OH229550   4.186   2.239  13.141  0.4906  0.1387  0.3313
 2712TIP3    H129551   4.159   2.243  13.049 -0.9901  0.4762  0.7656
 2712TIP3    H229552   4.249   2.310  13.150 -0.7095  1.2833 -0.0024
 2713TIP3   OH229553   3.899   0.203   3.483 -0.3833 -0.2429 -0.2020
 2713TIP3    H129554   3.939   0.282   3.445  0.4766 -0.8388 -0.5503
 2713TIP3    H229555   3.891   0.224   3.576 -0.2383  0.2929 -0.3006
 2714TIP3   OH229556   6.488   4.921  14.325  0.2470  0.6164 -0.7914
 2714TIP3    H129557   6.457   4.923  14.235 -0.6276  0.5551 -0.5084
 2714TIP3    H229558   6.579   4.893  14.320  0.5595  1.7319 -1.7453
 2715TIP3   OH229559   3.970   0.004   1.851 -0.0627  0.1821  0.3025
 2715TIP3    H129560   4.061   0.019   1.878  0.2382  0.3492 -0.7575
 2715TIP3    H229561   3.918   0.031   1.927  0.7946 -0.7164  1.2559
 2716TIP3   OH229562   2.442   1.239  15.475  0.7543 -0.2040  0.6046
 2716TIP3    H129563   2.433   1.180  15.400  1.6581  1.3005 -0.7413
 2716TIP3    H229564   2.535   1.238  15.497  0.7732  0.6606  0.6050
 2717TIP3   OH229565   0.996   6.485  12.657  0.0137 -0.3553 -0.3758
 2717TIP3    H129566   0.975   6.510  12.747  1.3191  0.9654 -0.3966
 2717TIP3    H229567   0.912   6.479  12.613 -0.5083  1.6506  0.2674
 2718TIP3   OH229568   4.211   2.249  14.358  0.2699  0.1826 -0.1862
 2718TIP3    H129569   4.240   2.296  14.280 -0.6661 -0.8444 -1.1946
 2718TIP3    H229570   4.190   2.161  14.327  0.9462 -0.6084  1.4358
 2719TIP3   OH229571   4.672   5.086   6.416  0.2790  0.1235  0.2814
 2719TIP3    H129572   4.731   5.015   6.442 -0.9801 -1.0834  0.0071
 2719TIP3    H229573   4.590   5.067   6.463 -0.5089  0.6011 -0.8522
 2720TIP3   OH229574   6.462   0.489   5.397 -0.0392 -0.1757 -0.1160
 2720TIP3    H129575   6.393   0.555   5.383  0.0021 -0.2030 -0.4715
 2720TIP3    H229576   6.468   0.480   5.492 -0.5125 -0.1583 -0.0816
 2721TIP3   OH229577   4.270   5.033   2.690 -0.2564 -0.0382  0.5228
 2721TIP3    H129578   4.224   5.113   2.665 -2.5220 -1.8416 -1.5907
 2721TIP3    H229579   4.304   5.052   2.778  1.1102  3.8743 -0.6237
 2722TIP3   OH229580   0.561   0.707  13.712 -0.1144 -0.5909  0.0636
 2722TIP3    H129581   0.566   0.800  13.692 -2.6479 -0.0503  1.5764
 2722TIP3    H229582   0.518   0.668  13.636 -0.5357 -0.2571  0.1308
 2723TIP3   OH229583   1.999   3.571   4.338 -0.2316 -0.0905  0.2479
 2723TIP3    H129584   1.934   3.582   4.268  1.0140 -0.4819 -0.9974
 2723TIP3    H229585   2.010   3.659   4.374  0.9673  0.6438 -1.7678
 2724TIP3   OH229586   6.165   2.031  13.923  0.0803 -0.4365  1.2871
 2724TIP3    H129587   6.071   2.015  13.917  0.0323  0.0280  0.5812
 2724TIP3    H229588   6.206   1.945  13.915 -0.1869 -0.4164 -1.5217
 2725TIP3   OH229589   3.346   3.523   5.700 -0.3662 -0.6408 -0.2916
 2725TIP3    H129590   3.330   3.607   5.656 -1.7836 -0.6268  0.2052
 2725TIP3    H229591   3.442   3.520   5.710 -0.3720  1.8528  1.4338
 2726TIP3   OH229592   1.375   2.418  11.898 -0.0651  0.0633 -0.2736
 2726TIP3    H129593   1.290   2.461  11.886  0.3469  0.7824 -0.6629
 2726TIP3    H229594   1.422   2.434  11.817 -0.2752 -2.0591 -0.8731
 2727TIP3   OH229595   4.122   2.865  15.432 -0.4235  0.7045 -0.2631
 2727TIP3    H129596   4.174   2.929  15.481  0.4236 -1.2347  1.5171
 2727TIP3    H229597   4.182   2.831  15.366  0.5191 -1.0796  1.3918
 2728TIP3   OH229598   6.277   2.322  10.240 -0.2874 -0.3564  0.0419
 2728TIP3    H129599   6.360   2.347  10.279 -0.2475 -0.2411 -0.1179
 2728TIP3    H229600   6.259   2.235  10.276 -0.0987 -0.3811  0.0746
 2729TIP3   OH229601   6.784   1.583  11.331  0.0142 -0.3949  0.5663
 2729TIP3    H129602   6.759   1.493  11.310 -1.5042  0.1458 -0.0732
 2729TIP3    H229603   6.760   1.594  11.422  1.9339 -1.1720  1.2277
 2730TIP3   OH229604   6.450   2.199  13.573 -0.8115 -0.1177  0.5118
 2730TIP3    H129605   6.418   2.139  13.505  0.5517 -0.3730  0.0580
 2730TIP3    H229606   6.424   2.157  13.655 -3.9362  0.9991  0.2358
 2731TIP3   OH229607   0.520   2.442   4.222 -0.3659 -0.4584 -0.0088
 2731TIP3    H129608   0.610   2.462   4.197 -0.4261 -0.1844 -0.0141
 2731TIP3    H229609   0.487   2.524   4.260 -0.1145 -0.9856  1.4262
 2732TIP3   OH229610   1.239   5.895  14.001  0.5720 -0.7723  0.1780
 2732TIP3    H129611   1.189   5.822  14.036 -0.8918 -0.8099 -1.8267
 2732TIP3    H229612   1.214   5.970  14.056 -2.3550 -0.6288 -1.1664
 2733TIP3   OH229613   3.346   6.306  13.717 -0.2014  0.0613  0.1307
 2733TIP3    H129614   3.279   6.326  13.651  0.1556  1.6489  0.2276
 2733TIP3    H229615   3.311   6.230  13.764 -2.6896  1.6984  1.1421
 2734TIP3   OH229616   3.626   6.154   2.620 -0.1921 -0.3816  0.4853
 2734TIP3    H129617   3.667   6.179   2.703 -0.3596  0.9237  0.1952
 2734TIP3    H229618   3.647   6.061   2.610  0.3760 -0.3992  1.6713
 2735TIP3   OH229619   4.013   0.130  14.524 -0.1980 -0.1053  0.0921
 2735TIP3    H129620   4.086   0.093  14.473  2.0578  2.1108  1.4979
 2735TIP3    H229621   3.975   0.197  14.468  1.0928  1.0592  0.5593
 2736TIP3   OH229622   4.729   2.724  15.231 -0.1149  0.0868  0.3268
 2736TIP3    H129623   4.788   2.745  15.302  0.6184 -1.6221  0.2653
 2736TIP3    H229624   4.757   2.637  15.201  0.1005  1.0334 -2.5354
 2737TIP3   OH229625   2.914   2.757  16.794 -0.1115  0.4582 -0.3791
 2737TIP3    H129626   3.001   2.794  16.780 -0.8155  1.4188 -2.6781
 2737TIP3    H229627   2.853   2.823  16.761 -1.6593 -0.6850  0.0404
 2738TIP3   OH229628   2.352   2.511   3.828 -0.1169  0.1684  0.3343
 2738TIP3    H129629   2.357   2.597   3.785 -0.9389 -0.2652 -0.6684
 2738TIP3    H229630   2.442   2.478   3.825  0.2210  0.9926  0.7709
 2739TIP3   OH229631   3.779   3.506  16.192 -0.3917  0.5055  0.0869
 2739TIP3    H129632   3.808   3.597  16.195 -1.8072  0.9596  1.4922
 2739TIP3    H229633   3.686   3.510  16.215 -1.1307 -1.0603 -2.2460
 2740TIP3   OH229634   3.332   2.677   1.622 -0.1008 -0.3124  0.4815
 2740TIP3    H129635   3.274   2.626   1.564 -1.4619 -0.0243  1.5366
 2740TIP3    H229636   3.329   2.766   1.587 -0.1443 -0.3350  0.4277
 2741TIP3   OH229637   3.595   0.835  10.923 -0.1820 -0.5698 -0.0097
 2741TIP3    H129638   3.635   0.748  10.916  1.0734 -0.0158 -0.0660
 2741TIP3    H229639   3.631   0.884  10.849 -1.1019 -0.0790 -0.1467
 2742TIP3   OH229640   4.584   1.938   1.837 -0.2823 -0.5532 -0.0292
 2742TIP3    H129641   4.510   1.972   1.788 -0.7311 -0.1648  0.9041
 2742TIP3    H229642   4.655   1.934   1.773 -0.5562  0.9643 -0.4708
 2743TIP3   OH229643   1.417   0.049  12.961 -0.6941 -0.5630 -0.0326
 2743TIP3    H129644   1.361   0.107  12.910 -1.6344 -0.5549  0.9737
 2743TIP3    H229645   1.404   0.077  13.052 -0.2610 -1.5852  0.3592
 2744TIP3   OH229646   3.324   3.481   2.134  0.1305  0.2118  0.6454
 2744TIP3    H129647   3.238   3.473   2.174 -0.5897 -0.4086 -0.9635
 2744TIP3    H229648   3.307   3.487   2.041  1.7964  0.9498  0.3465
 2745TIP3   OH229649   3.452   5.931  11.326  0.0002 -0.3858 -0.0518
 2745TIP3    H129650   3.413   5.854  11.285 -0.1611  0.3268 -1.2757
 2745TIP3    H229651   3.524   5.955  11.267 -2.1540  2.5250 -1.7219
 2746TIP3   OH229652   2.774   3.777  13.410 -0.5276  0.6001 -1.0580
 2746TIP3    H129653   2.778   3.776  13.314 -0.0733 -1.4670 -1.0516
 2746TIP3    H229654   2.723   3.855  13.431 -1.9544  0.2560 -3.0286
 2747TIP3   OH229655   1.256   6.268  15.061  0.0675 -0.0970  0.0405
 2747TIP3    H129656   1.266   6.303  15.149 -1.0544  0.8314 -0.1737
 2747TIP3    H229657   1.345   6.260  15.027  0.5133 -0.6086  1.3000
 2748TIP3   OH229658   0.715   3.939   1.905 -0.2585  0.5930 -0.1183
 2748TIP3    H129659   0.749   3.990   1.831 -3.4633  1.5894 -1.0490
 2748TIP3    H229660   0.724   3.848   1.877 -2.6698  0.9619 -2.5184
 2749TIP3   OH229661   4.228   3.128  10.605  0.3004 -0.4411 -0.0546
 2749TIP3    H129662   4.240   3.163  10.517 -1.5713  0.0795 -0.1383
 2749TIP3    H229663   4.166   3.056  10.594  0.2918 -0.5691  0.8009
 2750TIP3   OH229664   0.756   4.415  12.375 -0.4488  0.1298  0.5697
 2750TIP3    H129665   0.809   4.354  12.427 -3.2622 -0.9820  2.3570
 2750TIP3    H229666   0.771   4.388  12.284 -0.3242 -2.1849  1.1980
 2751TIP3   OH229667   4.548   5.334   2.921  0.4168  0.3175 -0.0988
 2751TIP3    H129668   4.495   5.408   2.949 -0.8181  0.0887 -1.7133
 2751TIP3    H229669   4.634   5.371   2.903  0.7707  0.7626  2.1941
 2752TIP3   OH229670   1.702   0.501   5.572  0.0545 -0.0375 -0.0651
 2752TIP3    H129671   1.722   0.566   5.638  1.1396 -2.6790  2.4077
 2752TIP3    H229672   1.772   0.436   5.579 -0.6734 -1.2702 -2.7102
 2753TIP3   OH229673   3.523   6.527  16.459  0.0979  0.1114 -0.0878
 2753TIP3    H129674   3.527   6.622  16.448  1.4227  0.2177  1.0269
 2753TIP3    H229675   3.514   6.493  16.370  3.3701  1.1459 -0.9331
 2754TIP3   OH229676   1.467   1.502  13.809 -0.0605  0.2683  0.0766
 2754TIP3    H129677   1.496   1.577  13.758  0.1402 -1.0375 -1.8558
 2754TIP3    H229678   1.391   1.534  13.858  0.7794  2.0307  0.3193
 2755TIP3   OH229679   4.517   5.189  11.982  0.0814  0.2288  0.2460
 2755TIP3    H129680   4.552   5.259  12.037  2.2756 -1.0066  0.5231
 2755TIP3    H229681   4.587   5.169  11.921 -1.1804 -0.5350 -1.0193
 2756TIP3   OH229682   5.994   1.498   1.550  0.2813  0.2792  0.4570
 2756TIP3    H129683   5.990   1.467   1.459  0.0525  0.5589  0.3702
 2756TIP3    H229684   6.034   1.585   1.544 -0.6371  0.7125  0.5184
 2757TIP3   OH229685   4.356   1.503   0.799 -0.4081  0.7663 -0.3163
 2757TIP3    H129686   4.355   1.594   0.770  0.5869 -0.2026 -3.9658
 2757TIP3    H229687   4.274   1.467   0.766  0.3071 -0.1784 -1.1262
 2758TIP3   OH229688   3.409   0.791   1.503  0.3484 -0.0939 -0.3359
 2758TIP3    H129689   3.467   0.750   1.438  1.7328  0.2026  0.6619
 2758TIP3    H229690   3.437   0.754   1.587  1.5654  2.6747  0.6045
 2759TIP3   OH229691   0.917   0.750   3.602 -0.1733 -0.0116  0.5146
 2759TIP3    H129692   1.002   0.715   3.573 -0.6898 -1.4385  0.6534
 2759TIP3    H229693   0.869   0.674   3.634 -1.7961  0.6496 -0.2323
 2760TIP3   OH229694   2.301   5.134  12.061 -0.1925 -0.2923 -0.0342
 2760TIP3    H129695   2.339   5.094  12.138 -0.3236  2.7087  1.7362
 2760TIP3    H229696   2.357   5.209  12.042 -1.1708  0.0556 -1.7833
 2761TIP3   OH229697   5.873   4.861   0.756  0.1695 -0.3723 -0.3194
 2761TIP3    H129698   5.808   4.811   0.707 -0.6897 -1.1685  1.5503
 2761TIP3    H229699   5.847   4.852   0.847  0.2102  3.1766  0.1862
 2762TIP3   OH229700   3.771   1.634  11.963 -0.2674  0.1975  0.2646
 2762TIP3    H129701   3.821   1.559  11.997 -1.3383 -0.9586 -0.5920
 2762TIP3    H229702   3.779   1.701  12.031 -0.6115 -1.2768  1.8386
 2763TIP3   OH229703   1.064   2.819   4.388 -0.0285  0.3445  0.1442
 2763TIP3    H129704   1.051   2.725   4.405 -0.1728  0.3272 -0.0523
 2763TIP3    H229705   1.053   2.827   4.293  1.6356  0.2889 -0.0806
 2764TIP3   OH229706   2.982   2.840   0.421  0.3486  0.2514 -0.3141
 2764TIP3    H129707   3.058   2.786   0.399  1.3302  1.8850 -1.1363
 2764TIP3    H229708   2.979   2.837   0.517  2.2095  1.0945 -0.1788
 2765TIP3   OH229709   6.534   1.092   1.087  0.0506 -0.1532  0.0493
 2765TIP3    H129710   6.612   1.037   1.095 -0.5835 -1.3971 -1.6980
 2765TIP3    H229711   6.536   1.122   0.996 -0.8558  0.8160  0.3395
 2766TIP3   OH229712   3.398   4.712  12.975 -0.1689 -0.0409  1.0619
 2766TIP3    H129713   3.455   4.789  12.974 -1.6306  1.1025  0.8875
 2766TIP3    H229714   3.448   4.643  12.933  0.5697  1.3017 -0.3474
 2767TIP3   OH229715   5.472   1.837   3.478  0.5026 -0.0085  0.2049
 2767TIP3    H129716   5.458   1.922   3.437  0.5823  0.3584  0.9286
 2767TIP3    H229717   5.511   1.857   3.563  0.9234 -0.7863  0.2103
 2768TIP3   OH229718   5.542   3.574   0.537  0.0841 -1.0206 -0.0861
 2768TIP3    H129719   5.546   3.670   0.536 -0.9805 -0.9393  1.4638
 2768TIP3    H229720   5.627   3.547   0.502  0.8522  0.4793  0.5299
 2769TIP3   OH229721   5.921   5.007  15.443 -0.0740  0.3612  0.0187
 2769TIP3    H129722   5.903   5.080  15.503 -0.8748 -0.5160  0.8822
 2769TIP3    H229723   5.974   5.045  15.374 -1.0085  1.9056  0.1168
 2770TIP3   OH229724   3.977   1.993   3.238 -0.9692  0.2035 -0.2779
 2770TIP3    H129725   3.909   2.028   3.295 -0.1531  1.6546 -0.1665
 2770TIP3    H229726   4.057   2.040   3.263  0.1697 -1.6647 -0.2042
 2771TIP3   OH229727   0.781   6.198   0.599  0.5358 -0.0520 -0.1257
 2771TIP3    H129728   0.823   6.131   0.654 -1.7754 -0.6965  0.9591
 2771TIP3    H229729   0.792   6.280   0.648  0.8336 -0.1497 -0.0275
 2772TIP3   OH229730   4.312   0.303   6.390  0.6522  0.3436 -0.2158
 2772TIP3    H129731   4.279   0.389   6.415  0.0293  0.0921 -0.1550
 2772TIP3    H229732   4.397   0.320   6.350 -0.3333  1.2033 -2.0585
 2773TIP3   OH229733   6.703   4.565  14.607 -0.1162  0.2576  0.2142
 2773TIP3    H129734   6.623   4.617  14.611  0.3483  0.9340  0.9594
 2773TIP3    H229735   6.774   4.629  14.597  0.4307 -0.2397  0.7963
 2774TIP3   OH229736   3.854   1.915  13.228  0.1848  0.2977 -0.1305
 2774TIP3    H129737   3.857   2.007  13.205  0.6077  0.3288  0.0419
 2774TIP3    H229738   3.935   1.878  13.192  0.8428  0.3357  1.2509
 2775TIP3   OH229739   6.031   1.387  13.572 -0.4630 -1.0040 -0.1982
 2775TIP3    H129740   6.017   1.459  13.634 -0.3680 -0.8551 -0.3472
 2775TIP3    H229741   5.945   1.375  13.530 -0.4491 -0.8955 -0.2587
 2776TIP3   OH229742   1.014   0.276   0.475 -0.3710 -0.5061 -0.4098
 2776TIP3    H129743   1.070   0.271   0.553  0.2703  0.2256 -0.8068
 2776TIP3    H229744   0.955   0.349   0.492  0.4242  0.3042 -0.9985
 2777TIP3   OH229745   6.743   6.058  13.680 -0.1964  0.4854 -0.2285
 2777TIP3    H129746   6.827   6.100  13.700 -1.6913  3.0608  1.2280
 2777TIP3    H229747   6.724   6.004  13.756  0.4687 -0.7871 -0.9295
 2778TIP3   OH229748   1.221   2.378  12.473  0.1560  0.0930 -0.2823
 2778TIP3    H129749   1.155   2.424  12.524  0.8769  0.1195  0.6388
 2778TIP3    H229750   1.304   2.396  12.518  0.9035  0.6095 -1.7777
 2779TIP3   OH229751   3.111   1.195   1.988  0.0888  0.8512  0.1742
 2779TIP3    H129752   3.085   1.231   1.904 -0.6377  0.4282  0.2109
 2779TIP3    H229753   3.206   1.182   1.980 -0.1514 -0.4384 -1.0792
 2780TIP3   OH229754   4.690   1.803  14.057  0.2680 -0.0609 -0.7015
 2780TIP3    H129755   4.769   1.749  14.043  1.9528  2.6708 -2.9518
 2780TIP3    H229756   4.649   1.807  13.971 -0.8108  0.7623 -0.1668
 2781TIP3   OH229757   6.327   4.435   3.892  0.4592 -0.1713  0.4937
 2781TIP3    H129758   6.336   4.522   3.852  0.5623 -0.3343  0.1525
 2781TIP3    H229759   6.233   4.416   3.889  0.5766 -0.7073 -0.8408
 2782TIP3   OH229760   5.059   3.775   4.379  0.0749 -0.0653  1.0299
 2782TIP3    H129761   5.076   3.849   4.320  0.9257 -1.9514 -1.2418
 2782TIP3    H229762   5.145   3.735   4.392 -0.4625 -1.0499  1.6680
 2783TIP3   OH229763   2.160   0.289   2.424  0.0649  0.0364  0.1325
 2783TIP3    H129764   2.251   0.304   2.449 -0.5255 -0.3744  2.8210
 2783TIP3    H229765   2.163   0.212   2.367  1.3659 -0.0102  0.2378
 2784TIP3   OH229766   0.305   4.238  12.336 -0.0797 -0.4487 -0.6581
 2784TIP3    H129767   0.380   4.276  12.382 -0.3261  0.8230 -1.2729
 2784TIP3    H229768   0.282   4.303  12.270 -1.3739 -1.0838 -0.8561
 2785TIP3   OH229769   2.221   3.024  15.950 -0.5049 -0.2128 -0.1535
 2785TIP3    H129770   2.193   2.976  15.871 -1.4514 -0.1743  0.1405
 2785TIP3    H229771   2.209   2.961  16.021  0.1912 -0.1923 -0.0096
 2786TIP3   OH229772   4.522   6.100   4.356  0.3437 -0.2170  0.4077
 2786TIP3    H129773   4.455   6.110   4.424  1.8612 -2.6622  2.4681
 2786TIP3    H229774   4.576   6.179   4.363 -0.0467 -0.0306  1.4654
 2787TIP3   OH229775   4.494   5.646  16.118  0.2775  0.2738 -0.1239
 2787TIP3    H129776   4.529   5.581  16.178  0.8586  1.0443  0.3912
 2787TIP3    H229777   4.544   5.635  16.038 -1.5150 -1.7922 -1.0731
 2788TIP3   OH229778   1.953   3.176  16.157 -0.3038  0.5725  0.0045
 2788TIP3    H129779   1.907   3.173  16.073 -2.1248 -0.3550  0.9680
 2788TIP3    H229780   2.001   3.093  16.160 -1.9835 -0.4255  0.7528
 2789TIP3   OH229781   3.081   0.886   5.805  0.1699 -0.1259  0.1057
 2789TIP3    H129782   3.095   0.810   5.749 -0.6887 -1.0094  1.0352
 2789TIP3    H229783   3.049   0.849   5.888  0.7780  1.1775  0.9581
 2790TIP3   OH229784   6.092   0.970  14.897 -0.1177  0.1047 -0.3438
 2790TIP3    H129785   6.001   0.999  14.904 -0.5857 -1.5598  1.1315
 2790TIP3    H229786   6.088   0.892  14.842  0.4501  0.1463 -0.4476
 2791TIP3   OH229787   4.697   6.529   6.032  0.3901 -0.2270  0.6016
 2791TIP3    H129788   4.738   6.443   6.043 -0.9853 -0.6553  3.0841
 2791TIP3    H229789   4.613   6.521   6.077  0.2012  2.4055  0.8452
 2792TIP3   OH229790   5.134   6.569  14.119  0.3734  0.3275 -0.1873
 2792TIP3    H129791   5.134   6.626  14.042 -0.5122 -0.3209 -0.6925
 2792TIP3    H229792   5.097   6.622  14.189  2.8332  1.5320  0.3115
 2793TIP3   OH229793   2.901   0.956  14.336  0.3415 -0.3720 -0.1129
 2793TIP3    H129794   2.954   0.983  14.262 -0.3624 -0.0881 -0.5278
 2793TIP3    H229795   2.834   0.898  14.298  1.0340 -1.6626  0.5649
 2794TIP3   OH229796   4.921   5.400   4.159  0.3331 -0.4680  0.1022
 2794TIP3    H129797   4.884   5.479   4.119  1.2944  0.7733  1.5770
 2794TIP3    H229798   4.865   5.383   4.235  1.7320  0.4833  1.4121
 2795TIP3   OH229799   3.486   5.271   0.382 -0.7457 -0.9138  0.2384
 2795TIP3    H129800   3.570   5.317   0.381  0.0531 -2.3227  0.6902
 2795TIP3    H229801   3.423   5.337   0.351  0.4270  0.3182  0.3590
 2796TIP3   OH229802   3.219   4.287   1.943 -0.4787 -0.0337 -0.3460
 2796TIP3    H129803   3.147   4.240   1.901 -0.0406 -0.9692 -0.0641
 2796TIP3    H229804   3.277   4.312   1.872 -0.8072  0.2469 -0.5168
 2797TIP3   OH229805   3.553   2.837   2.734  0.5617  0.2332  0.1731
 2797TIP3    H129806   3.621   2.785   2.777  0.3517 -0.4473 -0.3037
 2797TIP3    H229807   3.473   2.786   2.743  0.0696  1.1032  0.8589
 2798TIP3   OH229808   5.235   3.850   7.000  0.4169 -0.0357 -0.2049
 2798TIP3    H129809   5.199   3.761   7.005  0.4527 -0.1050 -0.9886
 2798TIP3    H229810   5.188   3.890   6.927  1.6711 -0.0168 -1.0287
 2799TIP3   OH229811   0.171   5.836  16.672 -0.1393  0.5138  0.3660
 2799TIP3    H129812   0.103   5.788  16.718  0.9258 -1.0653  0.3826
 2799TIP3    H229813   0.204   5.899  16.736 -0.6534  0.3490  0.8004
 2800TIP3   OH229814   3.733   4.298  14.902  0.0091 -0.4179 -0.1136
 2800TIP3    H129815   3.781   4.236  14.958 -1.4901  0.0312  1.7965
 2800TIP3    H229816   3.663   4.247  14.863 -0.2738 -0.2852  0.2079
 2801TIP3   OH229817   5.675   4.035  11.480  0.1808 -0.0014  0.1605
 2801TIP3    H129818   5.686   4.099  11.550 -0.1164 -0.2030  0.3937
 2801TIP3    H229819   5.735   4.064  11.411  1.1387 -0.2976  0.8466
 2802TIP3   OH229820   5.026   6.302  15.456 -0.2048  0.1443 -0.2569
 2802TIP3    H129821   4.980   6.224  15.484 -2.0421  1.9610  2.2097
 2802TIP3    H229822   4.974   6.337  15.384  0.3502 -0.5988 -1.0349
 2803TIP3   OH229823   6.648   0.973  10.088 -0.2717 -0.3932  0.2568
 2803TIP3    H129824   6.728   1.026  10.094  0.7994 -1.6058 -1.8330
 2803TIP3    H229825   6.679   0.883  10.089 -2.0068 -1.0954  3.2149
 2804TIP3   OH229826   1.797   0.404  11.256  0.1423 -0.2729 -0.5576
 2804TIP3    H129827   1.893   0.406  11.247  0.0872 -0.4248 -1.2384
 2804TIP3    H229828   1.777   0.477  11.314  0.5650  0.6305 -1.5280
 2805TIP3   OH229829   1.491   1.646  15.884 -0.4462 -0.0788  0.6617
 2805TIP3    H129830   1.584   1.668  15.888 -0.2810 -0.8057  1.0592
 2805TIP3    H229831   1.474   1.628  15.792  0.1117 -1.1547  0.7465
 2806TIP3   OH229832   1.877   3.845  12.215  0.3151  1.0234  0.4676
 2806TIP3    H129833   1.862   3.753  12.239  0.1862  0.8143 -0.4032
 2806TIP3    H229834   1.941   3.876  12.279  2.9321 -0.6052 -1.1649
 2807TIP3   OH229835   3.885   4.189  12.488  0.0658 -0.6557  0.4217
 2807TIP3    H129836   3.927   4.245  12.554  1.0567 -0.5480 -0.2820
 2807TIP3    H229837   3.953   4.174  12.423 -1.2475  0.2134 -1.2002
 2808TIP3   OH229838   0.929   4.638   3.896  0.3055  0.7416 -0.2394
 2808TIP3    H129839   0.872   4.695   3.947 -0.0291 -0.6165  0.9560
 2808TIP3    H229840   0.954   4.568   3.956  1.6993  0.2717 -1.2978
 2809TIP3   OH229841   0.171   4.107   3.788  0.3270 -0.0723 -0.3377
 2809TIP3    H129842   0.240   4.087   3.724 -0.4399 -1.2131 -0.8486
 2809TIP3    H229843   0.193   4.053   3.864  0.0848 -0.3263 -0.4469
 2810TIP3   OH229844   1.352   6.440   4.169  0.4614 -0.1352  0.1908
 2810TIP3    H129845   1.331   6.454   4.261  1.4398 -0.2327  0.4411
 2810TIP3    H229846   1.436   6.394   4.170  0.8798  0.5728 -0.7592
 2811TIP3   OH229847   2.068   0.897  11.561 -0.1424 -0.0479  0.1250
 2811TIP3    H129848   1.997   0.876  11.622 -0.7170  0.5505 -0.3306
 2811TIP3    H229849   2.070   0.992  11.557 -1.1807 -0.0548 -1.9842
 2812TIP3   OH229850   3.462   3.643   4.881 -0.6254 -0.4243  0.3867
 2812TIP3    H129851   3.483   3.734   4.904  0.4259 -1.4692  4.2837
 2812TIP3    H229852   3.370   3.633   4.905 -0.6374 -0.4857  0.3138
 2813TIP3   OH229853   6.101   5.962   0.221 -0.3838  0.0357  0.6207
 2813TIP3    H129854   6.162   6.035   0.230  0.4040 -0.5309 -0.0472
 2813TIP3    H229855   6.099   5.922   0.308 -0.9271  0.9042  1.0337
 2814TIP3   OH229856   1.831   3.882   6.338 -0.6294 -0.1113 -0.0441
 2814TIP3    H129857   1.905   3.824   6.352 -0.1689  0.3960 -0.3227
 2814TIP3    H229858   1.757   3.824   6.321 -0.2050 -0.6150 -0.1933
 2815TIP3   OH229859   3.863   1.577   0.118 -0.0805  0.1495  0.0397
 2815TIP3    H129860   3.775   1.542   0.102  0.2260  0.0043 -1.5191
 2815TIP3    H229861   3.860   1.666   0.082  0.7735 -0.3256 -1.2831
 2816TIP3   OH229862   2.105   6.594   4.438  0.0531  0.0269 -0.4262
 2816TIP3    H129863   2.122   6.504   4.411  0.3016 -0.2794  0.6939
 2816TIP3    H229864   2.084   6.588   4.531  0.6237  1.1887 -0.1986
 2817TIP3   OH229865   0.938   2.681   1.102  0.3551 -0.6638  0.1778
 2817TIP3    H129866   0.929   2.673   1.197 -0.2325 -0.1602  0.1715
 2817TIP3    H229867   0.848   2.687   1.069  0.5685  0.7901 -0.2390
 2818TIP3   OH229868   2.423   3.334   4.684  0.0751  0.2747 -0.0202
 2818TIP3    H129869   2.455   3.244   4.677  1.3977  0.6425  1.0036
 2818TIP3    H229870   2.499   3.385   4.710 -0.6168  1.7411 -0.7601
 2819TIP3   OH229871   3.543   3.051  12.104 -0.0268 -0.4939  0.1992
 2819TIP3    H129872   3.472   3.110  12.078  0.5822  0.4949  0.7087
 2819TIP3    H229873   3.566   3.005  12.023 -0.3183  0.1804 -0.2798
 2820TIP3   OH229874   4.947   0.291  12.992 -0.0680  0.1084 -0.5788
 2820TIP3    H129875   4.878   0.331  12.940  0.2583  1.3730 -0.0667
 2820TIP3    H229876   5.026   0.338  12.969  0.0317  0.9241  1.2561
 2821TIP3   OH229877   3.746   6.370  16.760 -0.0938  0.0296 -0.4365
 2821TIP3    H129878   3.810   6.358  16.831  0.7735  0.4813 -1.1265
 2821TIP3    H229879   3.792   6.341  16.681 -0.3955  1.2977 -1.0974
 2822TIP3   OH229880   4.284   0.275  16.401 -0.4128 -0.5089  0.0838
 2822TIP3    H129881   4.291   0.195  16.348 -0.1033  0.5638 -1.5695
 2822TIP3    H229882   4.332   0.254  16.481  0.0310 -1.8449 -0.4916
 2823TIP3   OH229883   5.048   6.455  14.374  0.6502 -0.2026  0.3056
 2823TIP3    H129884   5.031   6.546  14.350 -1.0713 -0.4041  0.6497
 2823TIP3    H229885   4.992   6.440  14.450 -0.8974 -2.1939 -1.1101
 2824TIP3   OH229886   1.724   4.914  15.760 -0.0778 -0.2986  0.5691
 2824TIP3    H129887   1.779   4.872  15.693  1.5030  1.4091  0.7177
 2824TIP3    H229888   1.656   4.959  15.710  2.2739  2.7189 -0.2077
 2825TIP3   OH229889   3.195   0.213  11.926  0.5438  0.7663  0.8593
 2825TIP3    H129890   3.265   0.211  11.861  1.0918 -1.1498  1.4452
 2825TIP3    H229891   3.189   0.305  11.953  2.2198  1.1080  0.1570
 2826TIP3   OH229892   4.913   6.211   1.591 -0.0044 -0.5477 -0.0966
 2826TIP3    H129893   4.983   6.272   1.613 -0.6155 -0.3211  1.2784
 2826TIP3    H229894   4.840   6.236   1.647 -0.6708 -1.7816 -0.3659
 2827TIP3   OH229895   6.308   0.583  16.840  0.3578 -0.1374 -0.0581
 2827TIP3    H129896   6.303   0.506  16.897 -0.7187  0.3248  0.4952
 2827TIP3    H229897   6.342   0.653  16.896 -0.2323  0.1945 -0.1060
 2828TIP3   OH229898   3.713   3.074  16.639 -0.4052 -0.4819  0.0859
 2828TIP3    H129899   3.680   3.004  16.583 -2.4718 -0.6147  1.3627
 2828TIP3    H229900   3.742   3.142  16.578  0.1823 -1.8058 -1.1556
 2829TIP3   OH229901   4.427   4.049  13.909 -0.3144 -0.1901 -0.2917
 2829TIP3    H129902   4.358   4.060  13.975  0.8198  2.6019  0.5675
 2829TIP3    H229903   4.408   4.114  13.842  1.2418  0.3599 -0.2414
 2830TIP3   OH229904   5.060   5.257  13.242  0.3241  0.2723  0.1556
 2830TIP3    H129905   5.018   5.176  13.269  3.9081 -1.5282  1.0189
 2830TIP3    H229906   5.038   5.320  13.311 -0.5327 -0.6914  0.7851
 2831TIP3   OH229907   3.265   0.131   4.655  0.2143  0.3212  0.1898
 2831TIP3    H129908   3.283   0.188   4.580 -1.0813  0.4442 -0.0542
 2831TIP3    H229909   3.191   0.173   4.699 -0.6595 -1.0649  0.0931
 2832TIP3   OH229910   0.206   5.480   0.695 -0.0172  0.8058  0.1450
 2832TIP3    H129911   0.227   5.560   0.743 -0.8577  0.6873  0.7423
 2832TIP3    H229912   0.283   5.425   0.705  0.1091  1.0818  0.7250
 2833TIP3   OH229913   5.157   3.027   4.002  0.7713 -0.0487 -0.4416
 2833TIP3    H129914   5.090   2.996   4.063  0.9222  1.8071  0.7426
 2833TIP3    H229915   5.213   2.950   3.987  0.1529 -0.8119  0.9837
 2834TIP3   OH229916   0.908   4.744  14.372 -0.1863 -0.1374 -0.2879
 2834TIP3    H129917   0.853   4.694  14.433  0.0881 -0.7822 -0.5606
 2834TIP3    H229918   0.848   4.768  14.301 -0.3359 -0.0181 -0.1231
 2835TIP3   OH229919   4.630   5.665   1.062 -0.6263  0.2725  0.5904
 2835TIP3    H129920   4.578   5.607   1.118 -1.4359 -1.4146 -1.7254
 2835TIP3    H229921   4.567   5.731   1.031 -0.7001 -0.0132  0.1123
 2836TIP3   OH229922   1.395   6.498   4.474 -0.3287  0.0226  0.3301
 2836TIP3    H129923   1.393   6.437   4.548 -1.5622  0.1546  0.4236
 2836TIP3    H229924   1.481   6.539   4.479 -0.1974 -0.3518  1.3853
 2837TIP3   OH229925   5.300   1.031   1.686 -0.3190  0.0932  0.4144
 2837TIP3    H129926   5.378   1.085   1.679  0.2189 -0.6727  0.3868
 2837TIP3    H229927   5.283   1.001   1.597  1.1320 -2.1655  0.8167
 2838TIP3   OH229928   6.669   3.595   3.277  0.2076 -0.4514 -0.2133
 2838TIP3    H129929   6.651   3.688   3.296  0.3852  0.0452 -2.2757
 2838TIP3    H229930   6.753   3.597   3.231  0.4505 -1.7093  0.1580
 2839TIP3   OH229931   6.049   6.793   4.428 -0.4948  0.1740 -0.2608
 2839TIP3    H129932   6.031   6.814   4.520  0.7939 -0.5619  0.1884
 2839TIP3    H229933   5.999   6.713   4.411 -2.7100  1.6105 -0.9790
 2840TIP3   OH229934   5.396   4.608   5.597  0.0925 -0.6287 -0.6534
 2840TIP3    H129935   5.458   4.535   5.605 -1.8594 -2.3397 -0.2894
 2840TIP3    H229936   5.310   4.566   5.595 -1.1517  1.7141  0.0663
 2841TIP3   OH229937   0.208   4.098  13.751  0.1959  0.2609 -0.2860
 2841TIP3    H129938   0.245   4.161  13.690 -1.8862  0.0411 -1.8857
 2841TIP3    H229939   0.232   4.012  13.715 -1.8852  0.1130 -1.4638
 2842TIP3   OH229940   6.413   0.100   3.139 -0.2999 -0.1891  0.4058
 2842TIP3    H129941   6.365   0.178   3.167  0.0965  0.1257  0.2165
 2842TIP3    H229942   6.365   0.068   3.063  0.7064  1.0799 -0.8136
 2843TIP3   OH229943   4.289   5.779   2.138 -0.2175  0.0200 -0.7065
 2843TIP3    H129944   4.231   5.758   2.212  1.6564  0.3835  0.9465
 2843TIP3    H229945   4.294   5.874   2.138  1.4780 -0.0255  0.1402
 2844TIP3   OH229946   6.424   5.545  11.677  0.3501 -0.2588 -0.0011
 2844TIP3    H129947   6.458   5.477  11.619 -0.4045 -1.4828  0.9410
 2844TIP3    H229948   6.333   5.557  11.650  0.5202  0.5031 -0.2583
 2845TIP3   OH229949   0.405   2.947  14.266  0.2029  0.1926 -0.6398
 2845TIP3    H129950   0.354   2.963  14.346  0.2023  0.9155 -0.7782
 2845TIP3    H229951   0.482   2.899  14.296 -0.7098 -1.2560 -0.4764
 2846TIP3   OH229952   5.760   0.901  16.648 -0.4926 -0.2168  0.2125
 2846TIP3    H129953   5.757   0.981  16.595  1.8688 -0.1740  0.0426
 2846TIP3    H229954   5.799   0.835  16.591  0.8903 -0.5155  1.4332
 2847TIP3   OH229955   4.736   0.793  16.687  0.6888 -0.1952  0.2570
 2847TIP3    H129956   4.719   0.817  16.596  3.3770  0.9146 -0.0672
 2847TIP3    H229957   4.780   0.708  16.681  2.6517  0.7545  0.2569
 2848TIP3   OH229958   2.662   1.093   0.633 -0.3212  0.0107 -0.1126
 2848TIP3    H129959   2.610   1.092   0.713 -0.9218 -1.3228 -0.4899
 2848TIP3    H229960   2.687   1.001   0.619  0.2763  0.3032 -1.1349
 2849TIP3   OH229961   0.105   6.036  12.918  0.3616  0.5110 -0.5516
 2849TIP3    H129962   0.027   6.039  12.973  0.6509 -1.2388  0.0079
 2849TIP3    H229963   0.133   5.944  12.920  1.7037  0.8518 -1.7719
 2850TIP3   OH229964   0.444   3.610   0.686 -0.7012  0.2304  0.6538
 2850TIP3    H129965   0.499   3.580   0.759  0.9889  2.5725  0.4942
 2850TIP3    H229966   0.473   3.700   0.671 -0.4068 -0.3546 -3.4135
 2851TIP3   OH229967   4.629   2.273  16.389 -0.4900  0.2641 -0.2734
 2851TIP3    H129968   4.637   2.254  16.483 -1.2329 -1.0328 -0.4598
 2851TIP3    H229969   4.675   2.201  16.346 -0.3288  0.7501 -0.9297
 2852TIP3   OH229970   6.529   2.399  14.621  0.4841  0.0656  0.3856
 2852TIP3    H129971   6.458   2.367  14.678  0.4926 -1.5232 -0.4417
 2852TIP3    H229972   6.596   2.431  14.682 -0.2918  0.1837  1.2090
 2853TIP3   OH229973   2.963   0.470   4.792 -0.4188  0.2417  0.4883
 2853TIP3    H129974   2.982   0.464   4.886  1.0305  0.4467  0.2379
 2853TIP3    H229975   2.976   0.381   4.760 -1.5644  0.0318  0.5797
 2854TIP3   OH229976   3.065   0.109  16.193 -0.6486  0.4020 -0.4241
 2854TIP3    H129977   3.153   0.109  16.231 -1.0297  0.7338  0.4909
 2854TIP3    H229978   3.038   0.200  16.194 -0.8430  0.3580 -1.1036
 2855TIP3   OH229979   4.683   1.072  14.661 -0.1332 -0.1117  0.0028
 2855TIP3    H129980   4.686   1.083  14.756  1.4388  0.9323 -0.1124
 2855TIP3    H229981   4.770   1.039  14.638 -0.6317 -0.7498 -1.0343
 2856TIP3   OH229982   3.464   1.422   6.339 -0.7030  0.2353 -1.0043
 2856TIP3    H129983   3.502   1.438   6.425 -0.0326 -0.1742 -1.2203
 2856TIP3    H229984   3.515   1.350   6.303 -2.3616 -1.0586 -0.8697
 2857TIP3   OH229985   4.633   1.513   3.631 -0.0499 -0.3645 -0.5600
 2857TIP3    H129986   4.626   1.432   3.580 -0.3474 -0.6457 -0.0781
 2857TIP3    H229987   4.727   1.533   3.630  0.0159 -0.6747 -0.7452
 2858TIP3   OH229988   1.220   0.302  14.908 -0.7952  0.9025 -0.1806
 2858TIP3    H129989   1.203   0.356  14.985  0.6185  0.2715  0.6183
 2858TIP3    H229990   1.293   0.345  14.864 -0.7045  0.5141 -0.4132
 2859TIP3   OH229991   2.288   2.104   0.182  0.4498 -0.4592  0.0537
 2859TIP3    H129992   2.296   2.185   0.232  1.7403 -0.6153  0.1440
 2859TIP3    H229993   2.344   2.118   0.106  1.0298 -1.4204  0.2909
 2860TIP3   OH229994   2.913   1.869   1.545  0.3443  0.4875 -0.1640
 2860TIP3    H129995   2.965   1.820   1.482 -1.1452 -0.9928 -0.3148
 2860TIP3    H229996   2.943   1.836   1.631  1.1544  1.2380 -0.1454
 2861TIP3   OH229997   4.345   5.218   5.945  0.2990  0.0439  0.2465
 2861TIP3    H129998   4.303   5.278   5.883  0.8639 -1.2869 -1.4853
 2861TIP3    H229999   4.415   5.177   5.895  0.5354 -1.3576  1.6654
 2862TIP3   OH230000   6.428   0.905  12.044  0.1461 -0.0372  0.8986
 2862TIP3    H130001   6.466   0.910  12.131  0.6512 -0.5655  0.7198
 2862TIP3    H230002   6.352   0.848  12.053 -2.0128  2.7267  1.7099
 2863TIP3   OH230003   0.241   6.571   5.440 -0.3872  0.1576  0.8286
 2863TIP3    H130004   0.218   6.662   5.456  0.8077  0.6673 -0.2078
 2863TIP3    H230005   0.325   6.575   5.394 -0.8457 -1.4214 -0.2371
 2864TIP3   OH230006   1.367   5.377  12.217  0.3482 -0.8870  0.5370
 2864TIP3    H130007   1.417   5.446  12.260 -0.5784  1.7902 -2.3109
 2864TIP3    H230008   1.343   5.317  12.287 -0.7839  2.8709  3.6873
 2865TIP3   OH230009   6.160   4.856   0.709  0.2370  0.1177  0.1750
 2865TIP3    H130010   6.142   4.762   0.714  0.2280  0.1090  0.0110
 2865TIP3    H230011   6.244   4.867   0.752 -0.9122  0.3984  2.4714
 2866TIP3   OH230012   0.541   4.874  14.519  0.3611 -0.2869 -0.0898
 2866TIP3    H130013   0.487   4.796  14.535 -1.1635  0.8823  0.7971
 2866TIP3    H230014   0.551   4.878  14.424  0.2990 -1.4709 -0.1538
 2867TIP3   OH230015   5.260   4.866   6.408 -0.0143 -0.2270 -0.5440
 2867TIP3    H130016   5.201   4.791   6.397  0.5676 -0.7156 -0.4040
 2867TIP3    H230017   5.208   4.941   6.381 -1.3958 -0.3720  1.5024
 2868TIP3   OH230018   5.665   5.322  14.858 -0.1990 -0.0529 -0.1297
 2868TIP3    H130019   5.608   5.395  14.884 -1.4565 -1.1612  0.3100
 2868TIP3    H230020   5.623   5.285  14.781  0.3882 -0.3873 -0.2951
 2869TIP3   OH230021   0.828   5.654   3.204 -0.6020  0.0171 -0.5052
 2869TIP3    H130022   0.875   5.683   3.283  2.0294  1.9618 -2.6039
 2869TIP3    H230023   0.813   5.735   3.155 -1.2459 -1.2401 -2.4829
 2870TIP3   OH230024   4.501   4.123  10.622  0.4734 -0.5853  0.4343
 2870TIP3    H130025   4.527   4.127  10.530  0.4984 -1.7160  0.3855
 2870TIP3    H230026   4.415   4.081  10.621  0.7511 -1.1781  0.9745
 2871TIP3   OH230027   2.351   5.069  12.510 -0.2616  0.2049 -0.2001
 2871TIP3    H130028   2.326   5.133  12.575  0.9535  2.8311 -2.1437
 2871TIP3    H230029   2.268   5.031  12.480 -0.9526  0.3188  1.4412
 2872TIP3   OH230030   2.674   2.799   0.862 -0.0865  0.2787  0.2628
 2872TIP3    H130031   2.584   2.787   0.892 -0.8950  0.6749 -1.8892
 2872TIP3    H230032   2.679   2.753   0.779  1.2973  1.4448 -0.3454
 2873TIP3   OH230033   3.454   0.338  12.145 -0.3586 -0.0156  0.5210
 2873TIP3    H130034   3.465   0.403  12.214 -3.6158  0.0405  1.1477
 2873TIP3    H230035   3.499   0.376  12.069 -1.2537  2.5317  1.1545
 2874TIP3   OH230036   6.591   3.390  16.877  0.2227  0.0733  0.3198
 2874TIP3    H130037   6.583   3.297  16.896  0.2300 -0.2577 -1.1882
 2874TIP3    H230038   6.629   3.394  16.790  0.4542  1.5003  0.4564
 2875TIP3   OH230039   6.115   0.077  12.096 -0.0674 -0.0421 -0.0573
 2875TIP3    H130040   6.172   0.057  12.021  0.2028  2.4491 -0.6123
 2875TIP3    H230041   6.175   0.085  12.170  0.0877  0.5843 -0.2393
 2876TIP3   OH230042   6.159   4.713  15.031  0.1501  0.5141  0.2624
 2876TIP3    H130043   6.240   4.676  15.064 -0.2787  0.3720  1.2051
 2876TIP3    H230044   6.162   4.805  15.056 -0.5255  0.2369  1.4386
 2877TIP3   OH230045   6.559   2.166  11.368 -0.3551  0.0067 -0.6298
 2877TIP3    H130046   6.629   2.148  11.430  0.9884  0.7045 -1.8915
 2877TIP3    H230047   6.494   2.214  11.419 -1.0969 -2.6727  1.1699
 2878TIP3   OH230048   2.398   4.216   2.386  0.7204  0.1060  0.3997
 2878TIP3    H130049   2.387   4.216   2.481  0.1525  0.4905  0.3390
 2878TIP3    H230050   2.414   4.307   2.363 -3.3326  0.8300 -0.2935
 2879TIP3   OH230051   0.915   2.288  15.269  0.1037  0.2380  0.4674
 2879TIP3    H130052   0.847   2.221  15.270  1.0537 -0.7394  0.8589
 2879TIP3    H230053   0.936   2.301  15.177 -0.3877  0.3317  0.3645
 2880TIP3   OH230054   0.726   1.793  12.688 -0.3688 -0.4561  0.4726
 2880TIP3    H130055   0.686   1.830  12.767 -0.7210 -0.6621  0.3923
 2880TIP3    H230056   0.777   1.865  12.651 -0.9512 -0.0871  0.3824
 2881TIP3   OH230057   3.840   2.615   0.334  0.2633  0.6014  0.1212
 2881TIP3    H130058   3.871   2.572   0.254  0.7642  0.2142  0.5179
 2881TIP3    H230059   3.772   2.556   0.368 -0.7455  1.3147 -0.6022
 2882TIP3   OH230060   4.312   5.390   2.453  0.4329 -0.2215 -0.0700
 2882TIP3    H130061   4.385   5.428   2.405 -0.6194  0.6964 -0.9872
 2882TIP3    H230062   4.347   5.371   2.540  1.7748  0.1104 -0.5262
 2883TIP3   OH230063   2.625   0.558   3.428  0.2993  0.0513 -0.1561
 2883TIP3    H130064   2.561   0.610   3.478  1.5447  0.2780  1.2728
 2883TIP3    H230065   2.675   0.623   3.379  1.1548  0.1321  0.7987
 2884TIP3   OH230066   5.372   6.409  14.006  0.5772 -0.3984  0.1620
 2884TIP3    H130067   5.360   6.504  14.002 -1.0101 -0.6064 -1.3299
 2884TIP3    H230068   5.406   6.386  13.919  0.1321 -1.2911  0.2175
 2885TIP3   OH230069   0.031   5.809  15.549  0.0038  0.5963  0.0676
 2885TIP3    H130070  -0.052   5.803  15.596 -0.7898 -0.3264 -1.3636
 2885TIP3    H230071   0.095   5.835  15.615 -1.6536  2.7573  0.9175
 2886TIP3   OH230072   2.165   0.277   0.278  0.1837 -0.3889 -0.0808
 2886TIP3    H130073   2.182   0.341   0.347 -0.2796  1.5908 -1.6950
 2886TIP3    H230074   2.088   0.229   0.309 -0.2660  0.7292  0.6328
 2887TIP3   OH230075   0.916   3.578  14.588  0.1228  0.2184 -0.2319
 2887TIP3    H130076   0.890   3.660  14.547  0.4028 -0.7163 -2.4148
 2887TIP3    H230077   1.011   3.573  14.574 -0.0028 -0.8139 -0.7747
 2888TIP3   OH230078   0.420   6.093  12.836  0.1766 -0.2854 -0.5106
 2888TIP3    H130079   0.501   6.145  12.834 -0.7578  1.2012 -0.7274
 2888TIP3    H230080   0.376   6.120  12.917 -0.0619 -1.1762 -0.3335
 2889TIP3   OH230081   2.993   5.408   5.164 -0.0204  0.0440 -0.3074
 2889TIP3    H130082   3.085   5.387   5.150  0.7973  1.0728  2.6250
 2889TIP3    H230083   2.946   5.326   5.149  1.2290 -0.3395 -2.4808
 2890TIP3   OH230084   4.224   6.234  12.477 -0.2965 -0.2203  0.0796
 2890TIP3    H130085   4.242   6.155  12.427  1.4621 -0.0479  0.3817
 2890TIP3    H230086   4.167   6.286  12.420  0.3547 -0.7280 -1.0571
 2891TIP3   OH230087   2.447   2.153  17.042  0.1782 -0.0627 -0.3827
 2891TIP3    H130088   2.533   2.117  17.021 -0.1092  0.3034 -2.4353
 2891TIP3    H230089   2.391   2.126  16.969 -1.1313  0.7535  0.2746
 2892TIP3   OH230090   1.349   4.414  15.277  0.5359 -0.2895  0.0571
 2892TIP3    H130091   1.425   4.410  15.219  0.2298 -0.7218 -0.3203
 2892TIP3    H230092   1.336   4.507  15.294  1.5216 -0.2353  0.6226
 2893TIP3   OH230093   5.373   2.674  16.588  0.2692  0.0290  0.0483
 2893TIP3    H130094   5.411   2.649  16.672  0.9210  0.6200 -0.0553
 2893TIP3    H230095   5.282   2.645  16.592  0.9703 -2.3996 -0.0928
 2894TIP3   OH230096   4.139   5.797  14.273 -0.5285  0.0214 -0.3006
 2894TIP3    H130097   4.141   5.714  14.224 -1.1278  0.1197 -0.4980
 2894TIP3    H230098   4.174   5.862  14.212 -0.1015 -0.0761 -0.1616
 2895TIP3   OH230099   3.085   5.827  16.182 -0.5226 -0.1165  0.1614
 2895TIP3    H130100   3.019   5.874  16.132  1.1090  3.6436  1.1515
 2895TIP3    H230101   3.156   5.812  16.119 -0.3710  0.2832  0.2377
 2896TIP3   OH230102   2.606   5.674  14.312 -0.4141  0.0538 -0.1773
 2896TIP3    H130103   2.623   5.754  14.263 -0.4149  0.5138  0.5493
 2896TIP3    H230104   2.546   5.701  14.382  0.1282 -0.4328  0.4957
 2897TIP3   OH230105   0.797   3.041  13.275  0.3441 -0.3007 -0.6267
 2897TIP3    H130106   0.867   3.105  13.264  0.0834  0.5500  2.0534
 2897TIP3    H230107   0.758   3.033  13.188  2.3904  0.8024 -1.7060
 2898TIP3   OH230108   6.790   1.996  14.779 -0.0602 -0.4924  0.0695
 2898TIP3    H130109   6.798   1.991  14.874  1.2286 -1.9033 -0.0810
 2898TIP3    H230110   6.718   1.937  14.758 -0.3350 -0.1931  0.1549
 2899TIP3   OH230111   3.157   1.441   0.428 -0.0356 -0.5013 -0.5172
 2899TIP3    H130112   3.103   1.482   0.495  0.9388 -1.5942  0.9916
 2899TIP3    H230113   3.246   1.467   0.449  0.4327 -1.9817 -0.5164
 2900TIP3   OH230114   6.444   1.520  16.553  1.2099 -0.1266  0.0481
 2900TIP3    H130115   6.462   1.501  16.645  1.5137 -0.6460 -0.1172
 2900TIP3    H230116   6.500   1.461  16.504  2.8117  1.7426 -0.5062
 2901TIP3   OH230117   5.855   4.773   4.539  0.4929 -0.0210 -0.7256
 2901TIP3    H130118   5.852   4.711   4.467 -0.4211  0.5798 -1.2338
 2901TIP3    H230119   5.944   4.809   4.537  0.8314 -0.8454 -0.8050
 2902TIP3   OH230120   1.833   4.532   2.780  0.2488  0.0385  0.4100
 2902TIP3    H130121   1.739   4.548   2.772  0.1907  0.7939  2.1435
 2902TIP3    H230122   1.868   4.548   2.692 -1.0829  0.9081  0.0084
 2903TIP3   OH230123   6.236   1.933  12.190 -0.6218  0.2684  0.3154
 2903TIP3    H130124   6.234   1.838  12.180  2.3564 -0.0681  1.6544
 2903TIP3    H230125   6.200   1.949  12.277 -2.2337  0.5315 -0.3736
 2904TIP3   OH230126   4.895   5.612   0.667  0.4041 -0.5529  0.1634
 2904TIP3    H130127   4.906   5.616   0.762 -0.0421 -1.8080  0.2950
 2904TIP3    H230128   4.828   5.545   0.654 -0.4492  0.4833 -0.9908
 2905TIP3   OH230129   6.644   4.608   2.027  0.2193 -0.0811 -0.2786
 2905TIP3    H130130   6.695   4.684   2.053  2.2059 -0.3609 -2.9110
 2905TIP3    H230131   6.704   4.534   2.038 -1.0590 -1.0554  0.4764
 2906TIP3   OH230132   4.853   2.813  16.929  0.1261  0.0945  0.1642
 2906TIP3    H130133   4.880   2.782  16.843  0.9283 -3.2977  1.4994
 2906TIP3    H230134   4.923   2.786  16.988 -2.0093 -0.9692  2.4060
 2907TIP3   OH230135   6.555   0.250   2.919  0.1622 -0.2690  0.1212
 2907TIP3    H130136   6.557   0.209   3.005 -0.1581 -1.1986 -0.3041
 2907TIP3    H230137   6.556   0.177   2.857  0.6643  0.3902 -0.6721
 2908TIP3   OH230138   6.814   3.020   0.035  0.3952  0.0382  0.2010
 2908TIP3    H130139   6.841   3.109   0.012  1.7585 -0.2685  0.4964
 2908TIP3    H230140   6.800   3.024   0.130 -2.1707  0.5481 -0.1285
 2909TIP3   OH230141   6.550   0.852  14.907 -0.1956  0.6273 -0.0933
 2909TIP3    H130142   6.504   0.896  14.836  2.1153  1.1138 -1.3944
 2909TIP3    H230143   6.623   0.806  14.864  2.1678  2.1165  2.0470
 2910TIP3   OH230144   2.217   1.696   4.480  0.0757 -0.0965 -0.2847
 2910TIP3    H130145   2.169   1.768   4.521 -0.6943 -0.4880 -0.4910
 2910TIP3    H230146   2.248   1.731   4.397 -1.5343 -0.4251 -1.0546
 2911TIP3   OH230147   1.449   0.133  16.101 -0.3293 -0.1032  0.1813
 2911TIP3    H130148   1.376   0.097  16.151  0.4432 -2.8830 -0.4828
 2911TIP3    H230149   1.512   0.161  16.168 -0.1235 -1.9568  0.8208
 2912TIP3   OH230150   2.778   4.388   1.894 -0.7563 -0.0732 -0.0418
 2912TIP3    H130151   2.758   4.304   1.854 -0.6479 -0.1807  0.1251
 2912TIP3    H230152   2.815   4.441   1.824  0.2124 -0.5391  0.1096
 2913TIP3   OH230153   0.642   1.161  11.774 -0.3346 -0.0908 -0.0662
 2913TIP3    H130154   0.628   1.093  11.709  0.1092  1.0646 -1.4256
 2913TIP3    H230155   0.642   1.243  11.724 -0.0627  0.8466  1.3946
 2914TIP3   OH230156   6.181   1.213  12.480  0.3464  0.2824  0.1955
 2914TIP3    H130157   6.129   1.211  12.560  0.4286 -2.5978  0.2720
 2914TIP3    H230158   6.272   1.209  12.511  0.4646  1.0178 -0.0330
 2915TIP3   OH230159   4.018   6.346  11.998 -0.3562 -0.1407 -0.3516
 2915TIP3    H130160   3.975   6.420  12.041  0.3846  0.2055 -0.1867
 2915TIP3    H230161   4.059   6.384  11.920  1.6811  0.0586  0.7308
 2916TIP3   OH230162   2.995   0.369  13.453 -0.2147  0.3828  0.6563
 2916TIP3    H130163   3.025   0.441  13.397  1.0272 -1.3349 -1.0062
 2916TIP3    H230164   2.968   0.301  13.392 -0.3160 -0.9918  2.1622
 2917TIP3   OH230165   1.256   1.966  13.553  0.2049 -0.9188 -0.0709
 2917TIP3    H130166   1.182   2.021  13.580 -0.0299 -1.4640  0.4102
 2917TIP3    H230167   1.274   1.911  13.629  1.2978 -0.5943 -0.0703
 2918TIP3   OH230168   0.901   1.804  11.021 -0.3170  0.3027 -0.0053
 2918TIP3    H130169   0.924   1.878  11.078  0.1879 -0.4138  0.7363
 2918TIP3    H230170   0.942   1.824  10.937  0.9475  0.2373  0.5767
 2919TIP3   OH230171   1.269   6.455   2.733 -0.2041 -0.4976  0.0890
 2919TIP3    H130172   1.279   6.454   2.828  1.6848 -1.2351 -0.0821
 2919TIP3    H230173   1.209   6.383   2.714 -0.6986 -0.2624  0.7093
 2920TIP3   OH230174   6.442   1.622  10.901 -0.4614  0.4892  0.4863
 2920TIP3    H130175   6.492   1.588  10.975  1.4570 -1.8624 -1.6841
 2920TIP3    H230176   6.355   1.585  10.912 -0.3818  0.6407  1.8343
 2921TIP3   OH230177   5.562   4.474  14.638 -0.2302  0.0260 -0.0652
 2921TIP3    H130178   5.511   4.398  14.611  1.8822 -0.8616 -1.8254
 2921TIP3    H230179   5.630   4.439  14.694  0.2631  0.7300 -0.2039
 2922TIP3   OH230180   5.617   3.544   1.648 -0.2381  0.6237 -0.0558
 2922TIP3    H130181   5.606   3.488   1.726 -0.0394 -0.6381 -0.9062
 2922TIP3    H230182   5.536   3.532   1.598 -0.5309  1.7314  0.1135
 2923TIP3   OH230183   1.213   6.294  16.946 -0.0948  0.5023 -0.2219
 2923TIP3    H130184   1.307   6.274  16.942  0.0406  0.6142  1.4424
 2923TIP3    H230185   1.197   6.352  16.872  0.8390 -0.6451 -1.3754
 2924TIP3   OH230186   6.783   1.926   1.241  0.3286 -0.9796 -0.1556
 2924TIP3    H130187   6.777   1.842   1.196 -1.0347 -0.9197 -0.1107
 2924TIP3    H230188   6.711   1.978   1.205  0.4225 -0.2474  0.6816
 2925TIP3   OH230189   2.952   0.368  13.706  0.8295 -0.7133 -0.3864
 2925TIP3    H130190   2.979   0.365  13.614  0.9961  2.9402 -0.5974
 2925TIP3    H230191   2.856   0.367  13.702  0.7834 -3.4021 -0.3120
 2926TIP3   OH230192   6.535   4.291   0.696 -0.1062 -0.0337  0.0178
 2926TIP3    H130193   6.614   4.343   0.681  0.2156 -0.2055  1.0524
 2926TIP3    H230194   6.478   4.349   0.745 -0.8623  0.2740 -1.1740
 2927TIP3   OH230195   1.156   3.022  11.863 -0.3553 -0.1075 -0.5219
 2927TIP3    H130196   1.201   2.942  11.836 -0.8687 -0.6586  0.2261
 2927TIP3    H230197   1.214   3.063  11.927 -0.3585 -0.1785 -0.4744
 2928TIP3   OH230198   6.246   5.045   2.857 -0.7280  0.2528 -0.1468
 2928TIP3    H130199   6.282   5.114   2.801  0.5200  1.2665  1.7977
 2928TIP3    H230200   6.304   4.970   2.843  0.2341  0.8442  0.5367
 2929TIP3   OH230201   1.856   3.219  16.408  0.3585 -0.0818  0.4877
 2929TIP3    H130202   1.900   3.190  16.328 -0.2112  0.3184  0.0157
 2929TIP3    H230203   1.789   3.153  16.424 -0.2907  0.4444 -0.0277
 2930TIP3   OH230204   3.174   4.469   5.754 -0.3615 -0.6617  0.1793
 2930TIP3    H130205   3.190   4.378   5.778 -0.9302 -1.2724 -1.6067
 2930TIP3    H230206   3.128   4.506   5.830 -1.8516 -2.4042  0.1902
 2931TIP3   OH230207   4.944   0.903  14.646  0.0999 -1.0041  0.0126
 2931TIP3    H130208   5.027   0.937  14.679 -0.0532 -0.6022 -0.0219
 2931TIP3    H230209   4.904   0.862  14.723  0.0124 -0.5862  0.1905
 2932TIP3   OH230210   0.030   4.267  10.861  0.0199  0.7073 -0.1113
 2932TIP3    H130211  -0.040   4.222  10.814 -1.0420  1.4418  0.7371
 2932TIP3    H230212   0.010   4.253  10.953  1.8749 -0.4097  0.1812
 2933TIP3   OH230213   0.030   6.467   2.302 -1.0275 -0.1181 -0.6204
 2933TIP3    H130214  -0.059   6.496   2.322 -0.5374  0.2581  1.2390
 2933TIP3    H230215   0.083   6.546   2.312 -0.1911 -0.8089  0.5748
 2934TIP3   OH230216   4.451   4.939   6.239  0.4899  0.0504 -0.0569
 2934TIP3    H130217   4.439   4.887   6.319 -0.2196  0.4410  0.0968
 2934TIP3    H230218   4.510   5.010   6.265 -0.1662  0.4839  0.2623
 2935TIP3   OH230219   0.688   6.460  14.182  0.2979 -0.3475  0.6649
 2935TIP3    H130220   0.767   6.493  14.139  0.1107 -0.6332  0.0975
 2935TIP3    H230221   0.621   6.460  14.114 -0.9447  2.4138  1.7541
 2936TIP3   OH230222   1.974   0.413   4.599 -0.8189  0.1987 -0.3261
 2936TIP3    H130223   1.977   0.335   4.542 -1.8287 -1.4745  1.7631
 2936TIP3    H230224   1.890   0.407   4.643  0.5757  0.3894  2.6033
 2937TIP3   OH230225   3.675   6.722  13.648  0.0676 -0.2997 -0.8799
 2937TIP3    H130226   3.756   6.694  13.691  0.3403  0.9962 -0.5161
 2937TIP3    H230227   3.649   6.646  13.596  1.0958 -1.0111 -0.4034
 2938TIP3   OH230228   6.184   2.520   5.293  0.0823  0.4913  0.2549
 2938TIP3    H130229   6.209   2.468   5.369  0.1204 -0.1744 -0.1987
 2938TIP3    H230230   6.124   2.586   5.327 -0.9911 -0.6601  0.6486
 2939TIP3   OH230231   0.961   4.722   3.625  0.5669  0.0957  0.4674
 2939TIP3    H130232   0.947   4.707   3.719  1.5244  1.5058  0.8577
 2939TIP3    H230233   0.917   4.647   3.583  0.2066 -0.6228  2.0234
 2940TIP3   OH230234   4.521   4.124   0.630  0.3262  0.5721 -0.1535
 2940TIP3    H130235   4.460   4.158   0.565  0.7090  0.9452 -0.3219
 2940TIP3    H230236   4.530   4.031   0.608  1.4778  0.9533 -1.4874
 2941TIP3   OH230237   5.740   6.567   0.042  1.0622 -0.9383 -0.1107
 2941TIP3    H130238   5.705   6.644  -0.004  2.4779 -0.6623 -0.7853
 2941TIP3    H230239   5.783   6.603   0.120  2.2246 -0.9596 -0.7217
 2942TIP3   OH230240   3.755   0.311  12.631  0.6626  0.0471  0.8129
 2942TIP3    H130241   3.735   0.248  12.701  1.5290  1.2029  2.1532
 2942TIP3    H230242   3.673   0.360  12.620  0.7054  0.2790  1.4743
 2943TIP3   OH230243   6.773   6.109   3.736  0.1438 -0.0140 -0.1374
 2943TIP3    H130244   6.692   6.157   3.747  0.5506  0.4706  0.8491
 2943TIP3    H230245   6.828   6.136   3.810  0.4697 -1.8338  0.3449
 2944TIP3   OH230246   5.106   4.782  10.171  0.0749  0.2573 -1.0336
 2944TIP3    H130247   5.051   4.746  10.241 -0.3070  0.7177 -1.0996
 2944TIP3    H230248   5.045   4.828  10.114  0.5651  1.0436 -0.9335
 2945TIP3   OH230249   5.160   4.072  14.343  0.1299  0.2780 -0.3210
 2945TIP3    H130250   5.137   4.141  14.280 -2.3475  0.2840  0.4721
 2945TIP3    H230251   5.080   4.059  14.394  0.3997 -3.3784 -0.5924
 2946TIP3   OH230252   2.848   0.639   0.926  0.1544 -0.4230 -0.2115
 2946TIP3    H130253   2.808   0.561   0.889 -0.4115  0.3405 -1.2529
 2946TIP3    H230254   2.774   0.691   0.958  0.6430 -1.5496  3.1344
 2947TIP3   OH230255   0.167   1.032  16.072  0.1261  0.3130 -0.1037
 2947TIP3    H130256   0.177   0.938  16.052  0.5365  0.7166 -1.9915
 2947TIP3    H230257   0.140   1.071  15.989 -1.3936  1.6888  0.9950
 2948TIP3   OH230258   3.868   2.065  14.544  0.3776 -0.5539  0.1199
 2948TIP3    H130259   3.789   2.066  14.599  0.9678  0.6473  0.9737
 2948TIP3    H230260   3.834   2.065  14.454 -0.5926 -1.1716  0.4709
 2949TIP3   OH230261   2.256   3.429   2.063  0.1869 -0.7811 -0.0858
 2949TIP3    H130262   2.307   3.435   1.982 -2.4768  1.7664 -1.8199
 2949TIP3    H230263   2.243   3.336   2.077  3.5066 -1.4535 -0.6145
 2950TIP3   OH230264   0.110   0.251  11.382  0.0419  0.6625  0.2428
 2950TIP3    H130265   0.145   0.340  11.375  0.6598  0.4349  0.3776
 2950TIP3    H230266   0.074   0.233  11.295 -0.1586  1.0710  0.2368
 2951TIP3   OH230267   2.273   1.451   3.719  0.5160 -0.2799  0.5949
 2951TIP3    H130268   2.220   1.490   3.788  0.4281  1.5994 -0.4746
 2951TIP3    H230269   2.352   1.505   3.716  1.5530 -1.7295  0.7142
 2952TIP3   OH230270   2.832   5.987   1.163 -0.7369 -0.6824  0.1779
 2952TIP3    H130271   2.882   5.905   1.169 -0.3438 -0.4682 -0.1015
 2952TIP3    H230272   2.815   6.011   1.254 -0.9719 -1.1449  0.2606
 2953TIP3   OH230273   3.965   4.936   5.278 -0.2099  0.5978 -0.1198
 2953TIP3    H130274   3.932   4.968   5.361  2.3167  0.3369  1.0926
 2953TIP3    H230275   3.990   5.015   5.229 -2.1373  0.7747 -0.8911
 2954TIP3   OH230276   1.416   5.668   3.104 -0.2819 -0.6493  0.2663
 2954TIP3    H130277   1.392   5.584   3.142  1.6167 -1.1526  0.4516
 2954TIP3    H230278   1.512   5.668   3.104 -0.2269  1.4840  0.2019
 2955TIP3   OH230279   0.854   0.775   4.669 -0.2194 -0.5051 -0.4235
 2955TIP3    H130280   0.874   0.776   4.762 -1.0110  2.0429 -0.2086
 2955TIP3    H230281   0.776   0.830   4.660  0.6687  0.5288 -2.7369
 2956TIP3   OH230282   2.874   6.448  11.123 -0.0163  0.0826  0.3213
 2956TIP3    H130283   2.907   6.502  11.051 -2.4286 -1.9123 -2.5663
 2956TIP3    H230284   2.782   6.473  11.132 -0.0456 -0.5177  1.9407
 2957TIP3   OH230285   0.559   1.817   3.178 -0.3370  0.4625 -0.1866
 2957TIP3    H130286   0.615   1.811   3.256  2.1870  0.7112 -1.8406
 2957TIP3    H230287   0.592   1.893   3.130 -1.5597  0.1163 -1.6791
 2958TIP3   OH230288   3.974   6.368  14.410  0.3407  0.1005  0.4721
 2958TIP3    H130289   3.882   6.346  14.396  0.5465 -1.1765  1.0269
 2958TIP3    H230290   3.972   6.432  14.482 -0.0158 -1.3911  1.8311
 2959TIP3   OH230291   5.634   4.278  10.142  0.0897  0.1939  0.0307
 2959TIP3    H130292   5.671   4.245  10.224 -1.2382  0.6654  0.8380
 2959TIP3    H230293   5.710   4.315  10.096  0.8896 -0.2281  0.9530
 2960TIP3   OH230294   3.624   6.070   5.520 -0.3620  0.0602 -0.5570
 2960TIP3    H130295   3.701   6.029   5.559 -1.4027 -1.5232 -0.0705
 2960TIP3    H230296   3.659   6.140   5.465  1.3469  0.0829  0.4856
 2961TIP3   OH230297   2.218   5.232  15.111 -0.0194  0.6288  0.1015
 2961TIP3    H130298   2.194   5.321  15.085 -1.7781 -0.3649 -1.9587
 2961TIP3    H230299   2.182   5.222  15.199 -1.7203  1.2875 -0.4732
 2962TIP3   OH230300   0.572   6.808  12.157 -0.2097  0.1204  0.2777
 2962TIP3    H130301   0.568   6.904  12.151 -0.0928  0.1173  0.1625
 2962TIP3    H230302   0.664   6.787  12.144 -0.5967 -0.2039 -2.6229
 2963TIP3   OH230303   6.279   2.711  14.222 -0.3753 -0.1586 -0.0863
 2963TIP3    H130304   6.308   2.694  14.311 -1.4461 -1.4074  0.0528
 2963TIP3    H230305   6.341   2.776  14.188 -0.7678  1.3935  2.0066
 2964TIP3   OH230306   5.073   1.141  15.610  0.0288  0.0435  0.4249
 2964TIP3    H130307   5.010   1.132  15.539 -0.6307 -1.2965  1.1452
 2964TIP3    H230308   5.021   1.172  15.684 -0.0045 -1.9068  1.2689
 2965TIP3   OH230309   6.663   3.062   4.744  0.1636  0.4704 -0.0050
 2965TIP3    H130310   6.643   3.152   4.719  0.8778  1.7083  3.3196
 2965TIP3    H230311   6.638   3.009   4.668 -0.8645  3.3823 -1.8397
 2966TIP3   OH230312   5.418   1.439   1.833  0.2370 -0.0971 -0.7060
 2966TIP3    H130313   5.334   1.473   1.801 -0.8226 -2.1186 -0.1884
 2966TIP3    H230314   5.442   1.498   1.904 -1.0416  0.1607 -0.4683
 2967TIP3   OH230315   5.373   0.698  13.234  0.0634 -0.1214 -0.3428
 2967TIP3    H130316   5.310   0.679  13.165 -1.0256 -0.6864  0.7587
 2967TIP3    H230317   5.413   0.614  13.254 -0.1543 -0.1026  0.1906
 2968TIP3   OH230318   2.554   1.851  12.186 -0.3163  0.1041  0.0161
 2968TIP3    H130319   2.625   1.909  12.213 -0.4559 -0.9854  3.0478
 2968TIP3    H230320   2.476   1.887  12.228 -0.3713 -2.2467  2.1884
 2969TIP3   OH230321   5.711   2.260  11.496  0.1518  0.1588 -0.2697
 2969TIP3    H130322   5.671   2.277  11.411 -1.9423 -2.0413  0.1474
 2969TIP3    H230323   5.724   2.347  11.534 -1.9075  1.1191 -1.5588
 2970TIP3   OH230324   0.665   6.558  16.923 -0.4391  0.3817 -0.5486
 2970TIP3    H130325   0.635   6.634  16.972 -0.1516 -0.8738  1.7435
 2970TIP3    H230326   0.639   6.575  16.833 -2.9139  1.8815  0.3616
 2971TIP3   OH230327   3.247   3.489   2.402 -0.0194 -0.2918 -0.5807
 2971TIP3    H130328   3.248   3.547   2.478 -0.6693  1.9749 -2.1812
 2971TIP3    H230329   3.174   3.430   2.417  0.5269 -0.5953  1.0156
 2972TIP3   OH230330   6.600   2.540  12.393  0.0550  0.4282 -0.9602
 2972TIP3    H130331   6.558   2.473  12.339 -1.6270  0.1630  0.5811
 2972TIP3    H230332   6.583   2.512  12.483 -0.3564  2.7111 -0.2646
 2973TIP3   OH230333   3.821   1.503  15.625  0.6433 -0.4032  0.4738
 2973TIP3    H130334   3.753   1.564  15.596  0.1365 -0.4591  1.4945
 2973TIP3    H230335   3.774   1.426  15.655  1.1024 -0.2555  1.6554
 2974TIP3   OH230336   2.103   6.367   3.990 -0.2966  0.0987  0.6049
 2974TIP3    H130337   2.038   6.435   3.975 -0.6181 -0.6485 -1.7895
 2974TIP3    H230338   2.063   6.310   4.055 -0.8507  1.1075  1.1743
 2975TIP3   OH230339   6.700   5.291   2.393 -0.1663  0.0491 -0.7752
 2975TIP3    H130340   6.615   5.335   2.403  0.1676  0.6264 -0.4431
 2975TIP3    H230341   6.718   5.296   2.299 -0.1273  0.6409 -0.7395
 2976TIP3   OH230342   6.385   4.202  12.875 -0.2430 -0.9072  0.2845
 2976TIP3    H130343   6.423   4.289  12.892  0.6736 -1.1312 -0.5179
 2976TIP3    H230344   6.443   4.142  12.921  1.1133 -1.3533 -1.8632
 2977TIP3   OH230345   6.293   4.511  15.984  0.0723 -0.4019  0.3259
 2977TIP3    H130346   6.340   4.429  15.998  1.4064 -0.1546 -2.0952
 2977TIP3    H230347   6.359   4.579  16.000 -1.0237  0.2440  2.3427
 2978TIP3   OH230348   6.220   2.463   2.502  0.7454 -0.6293 -0.0708
 2978TIP3    H130349   6.302   2.475   2.551 -0.1459  1.9061  0.9595
 2978TIP3    H230350   6.163   2.534   2.533 -1.1702 -1.1606 -2.1535
 2979TIP3   OH230351   5.327   2.495   2.147 -0.5425 -0.3459  0.4547
 2979TIP3    H130352   5.267   2.420   2.147  0.0932 -0.8724  0.8565
 2979TIP3    H230353   5.407   2.460   2.186 -0.5150  0.7702  1.4507
 2980TIP3   OH230354   6.793   2.921   2.444 -0.5415  0.4249  0.2087
 2980TIP3    H130355   6.857   2.857   2.478  0.8984  1.6964  0.0139
 2980TIP3    H230356   6.845   2.977   2.387 -2.1039  0.8170 -0.8750
 2981TIP3   OH230357   5.635   5.868  12.981  0.0491 -0.2597  0.4753
 2981TIP3    H130358   5.726   5.839  12.981  0.1900  0.1717  0.7047
 2981TIP3    H230359   5.637   5.954  12.939  0.0079  0.4984  1.9570
 2982TIP3   OH230360   5.611   4.613   3.979 -0.1244  0.1040  0.2543
 2982TIP3    H130361   5.682   4.644   4.036 -0.9389  1.2806  0.6717
 2982TIP3    H230362   5.629   4.520   3.966  1.8131  0.4884 -0.1295
 2983TIP3   OH230363   4.704   4.349  10.723 -0.1358 -0.6001  0.1085
 2983TIP3    H130364   4.754   4.353  10.642 -1.5934  1.2014 -0.7910
 2983TIP3    H230365   4.668   4.260  10.725 -1.0317 -0.3341 -1.8702
 2984TIP3   OH230366   3.190   2.443   1.027 -0.7940 -0.1456 -0.3444
 2984TIP3    H130367   3.206   2.446   0.932  0.3399  0.7118 -0.1482
 2984TIP3    H230368   3.259   2.497   1.064 -1.6400  0.0940  0.9333
 2985TIP3   OH230369   5.701   0.180   4.844 -0.3186 -0.4785 -0.1676
 2985TIP3    H130370   5.791   0.210   4.861 -0.0552 -1.4674  0.3015
 2985TIP3    H230371   5.681   0.123   4.919 -0.6979 -1.6388 -1.1229
 2986TIP3   OH230372   2.478   5.462   2.575 -0.3147 -0.5897  0.5456
 2986TIP3    H130373   2.554   5.436   2.627  0.4773  1.0962  0.2955
 2986TIP3    H230374   2.471   5.395   2.507  0.8629 -0.8507  0.6631
 2987TIP3   OH230375   3.757   0.722   3.333  0.0579 -0.0368 -0.5427
 2987TIP3    H130376   3.799   0.808   3.323 -0.1345 -0.0842 -1.8598
 2987TIP3    H230377   3.804   0.681   3.406 -0.1608  1.3640  0.4245
 2988TIP3   OH230378   2.021   5.851  17.054  0.4886 -0.0773  0.1038
 2988TIP3    H130379   2.101   5.880  17.009  1.7360 -0.7109  1.7946
 2988TIP3    H230380   2.031   5.756  17.061 -1.1345 -0.3630 -0.8980
 2989TIP3   OH230381   5.266   2.862   6.136  0.3934  0.1248  0.2492
 2989TIP3    H130382   5.272   2.855   6.041 -0.4507 -0.0798  0.2036
 2989TIP3    H230383   5.174   2.847   6.155  0.4471  0.7365  1.0532
 2990TIP3   OH230384   1.302   3.086  15.578 -0.1506 -0.0750 -0.2004
 2990TIP3    H130385   1.299   3.002  15.624  0.1859 -1.6612 -2.8691
 2990TIP3    H230386   1.393   3.114  15.585 -0.5744  1.0300  2.1053
 2991TIP3   OH230387   6.056   0.976  13.176  0.2566  0.2190  0.2831
 2991TIP3    H130388   6.087   0.901  13.228  1.4749  0.5757  0.1109
 2991TIP3    H230389   6.032   1.041  13.242  0.7061  0.2513  0.4211
 2992TIP3   OH230390   1.646   6.201   3.645  0.2082 -0.4085  0.3680
 2992TIP3    H130391   1.667   6.249   3.726  1.2906  1.5217 -0.9647
 2992TIP3    H230392   1.588   6.131   3.673 -1.2647  1.5291  2.5192
 2993TIP3   OH230393   5.185   6.184  11.746 -0.0511  0.1684 -0.1526
 2993TIP3    H130394   5.163   6.226  11.663 -0.1608 -2.1258 -1.3718
 2993TIP3    H230395   5.187   6.255  11.809 -2.0405  1.7215 -1.7003
 2994TIP3   OH230396   3.691   0.812  12.315 -0.0819 -0.1817 -0.1805
 2994TIP3    H130397   3.720   0.901  12.291  0.2433 -0.4630 -0.8517
 2994TIP3    H230398   3.772   0.762  12.322 -0.2779 -0.4651  0.0597
 2995TIP3   OH230399   2.450   2.588   4.662 -0.2404  0.0555  0.0040
 2995TIP3    H130400   2.379   2.597   4.598 -1.1111  0.3973  0.9883
 2995TIP3    H230401   2.476   2.678   4.682  0.2460 -0.0599 -0.1075
 2996TIP3   OH230402   3.569   6.019  14.332  0.3561 -0.0273 -0.4928
 2996TIP3    H130403   3.524   6.103  14.331 -0.1784 -0.2743  1.0708
 2996TIP3    H230404   3.637   6.029  14.399 -0.3330 -1.1352  0.4069
 2997TIP3   OH230405   1.573   3.368   3.933  0.2773  0.4492 -0.3321
 2997TIP3    H130406   1.534   3.338   3.851 -2.1854  1.3769  0.4003
 2997TIP3    H230407   1.578   3.290   3.988 -1.5839  0.4713 -0.0946
 2998TIP3   OH230408   3.954   2.681  14.136  0.0162  0.0366 -0.7359
 2998TIP3    H130409   3.907   2.624  14.196 -1.7358  0.7658 -1.3582
 2998TIP3    H230410   4.005   2.621  14.081 -0.1725 -0.7811 -0.0315
 2999TIP3   OH230411   3.950   1.447   4.805 -0.0183 -0.1534 -0.0723
 2999TIP3    H130412   3.966   1.509   4.875 -1.3019 -0.4451  0.4994
 2999TIP3    H230413   3.936   1.501   4.727  2.3499  0.1496 -0.3607
 3000TIP3   OH230414   2.558   3.664   1.603 -0.3073 -0.4812 -0.9872
 3000TIP3    H130415   2.623   3.597   1.623 -0.1558 -0.5505 -1.6899
 3000TIP3    H230416   2.581   3.694   1.515 -2.0210 -1.4362 -1.8029
 3001TIP3   OH230417   2.464   5.435   4.720 -0.5139 -0.6769 -0.2258
 3001TIP3    H130418   2.488   5.371   4.788 -0.5892 -0.9478 -0.4516
 3001TIP3    H230419   2.548   5.462   4.683 -0.4291 -0.0690  0.3821
 3002TIP3   OH230420   4.603   0.610   5.902 -0.7159 -0.0322 -0.2379
 3002TIP3    H130421   4.548   0.660   5.841 -0.2819 -0.7225 -1.2302
 3002TIP3    H230422   4.628   0.673   5.970 -1.4359  0.6894 -0.6346
 3003TIP3   OH230423   4.668   5.042  16.916 -0.1377  0.1918  0.0120
 3003TIP3    H130424   4.625   5.077  16.995 -0.8930  0.7939 -0.6477
 3003TIP3    H230425   4.682   5.119  16.861 -0.3192 -0.3321 -0.7641
 3004TIP3   OH230426   0.945   3.577   2.774  0.1051  0.3143  0.5830
 3004TIP3    H130427   0.935   3.481   2.772 -0.7541  0.2958  2.7470
 3004TIP3    H230428   0.936   3.599   2.866  1.1443  2.4345  0.2269
 3005TIP3   OH230429   0.850   4.184  11.361 -0.2147  0.4752 -0.2840
 3005TIP3    H130430   0.842   4.101  11.314  0.4738  0.0634  0.3029
 3005TIP3    H230431   0.802   4.247  11.307 -0.4940 -0.2405 -0.8890
 3006TIP3   OH230432   3.810   1.127  15.253 -0.2076  0.2979  0.2214
 3006TIP3    H130433   3.902   1.155  15.245  0.0592 -0.4273  0.5943
 3006TIP3    H230434   3.762   1.208  15.268  0.2425  0.8000 -0.9234
 3007TIP3   OH230435   0.065   2.292   3.014 -0.6706  0.3609 -0.1742
 3007TIP3    H130436   0.161   2.285   3.013 -0.7726 -2.5854 -2.6518
 3007TIP3    H230437   0.038   2.226   3.079 -0.9932 -2.0170 -2.5528
 3008TIP3   OH230438   3.720   3.561   6.166 -0.1057  0.2305  0.1237
 3008TIP3    H130439   3.798   3.532   6.213  0.1395  0.6980  0.0190
 3008TIP3    H230440   3.675   3.480   6.141 -0.6309 -0.0170  1.7820
 3009TIP3   OH230441   6.410   5.901   2.757  0.1374 -0.1759  0.1211
 3009TIP3    H130442   6.461   5.960   2.701 -2.0347  2.7247  0.9862
 3009TIP3    H230443   6.476   5.852   2.806  2.0869  1.1925 -0.9905
 3010TIP3   OH230444   2.079   5.203  15.333  0.5227 -0.1263  0.2082
 3010TIP3    H130445   2.073   5.188  15.427  1.2543  0.4567  0.3602
 3010TIP3    H230446   2.009   5.266  15.314 -0.0972 -0.7959  0.2258
 3011TIP3   OH230447   0.193   2.185   0.019 -0.2747  0.8103 -0.0362
 3011TIP3    H130448   0.097   2.188   0.010 -0.2937  1.6625  0.3891
 3011TIP3    H230449   0.213   2.092   0.021 -1.3477  0.5555  2.4740
 3012TIP3   OH230450   6.246   4.577  13.147 -0.0278  0.3365 -0.6872
 3012TIP3    H130451   6.264   4.570  13.053  0.9786  0.4132 -0.5151
 3012TIP3    H230452   6.238   4.487  13.177  1.1105  0.2467 -0.5979
 3013TIP3   OH230453   0.640   6.064   4.525  0.7512  0.1502 -0.4162
 3013TIP3    H130454   0.572   6.124   4.554 -0.5070  0.1349 -3.0307
 3013TIP3    H230455   0.682   6.109   4.452  1.1995 -1.2594 -1.0696
 3014TIP3   OH230456   4.560   4.189  15.930  0.1530 -0.1056  0.6071
 3014TIP3    H130457   4.649   4.186  15.894 -0.4443 -2.2225 -0.9051
 3014TIP3    H230458   4.519   4.263  15.887  0.7445 -0.0423  0.1401
 3015TIP3   OH230459   4.546   0.422   6.199 -0.3426 -0.2416 -0.4490
 3015TIP3    H130460   4.639   0.412   6.219  0.0688  0.0446 -2.0701
 3015TIP3    H230461   4.531   0.517   6.202 -0.2664 -0.1890 -1.4121
 3016TIP3   OH230462   6.655   5.038   0.463  0.5552 -0.1097  0.2929
 3016TIP3    H130463   6.745   5.061   0.490  0.0894  2.1211  0.1373
 3016TIP3    H230464   6.599   5.094   0.517 -0.7355 -1.0171 -0.0567
 3017TIP3   OH230465   2.511   6.381   4.216 -0.2217  0.1597  0.0593
 3017TIP3    H130466   2.465   6.370   4.299  2.7593  0.3536  1.8574
 3017TIP3    H230467   2.457   6.443   4.166 -2.6147 -0.7530  1.3490
 3018TIP3   OH230468   6.086   1.840   2.280  0.3288  0.4216  0.3637
 3018TIP3    H130469   6.009   1.896   2.292  0.0257 -0.4057  2.8718
 3018TIP3    H230470   6.056   1.771   2.221 -0.1107  1.3795 -0.5616
 3019TIP3   OH230471   6.161   3.980   3.433 -0.2763 -0.0970 -0.1724
 3019TIP3    H130472   6.112   4.044   3.381 -2.3238 -0.4701  1.2084
 3019TIP3    H230473   6.110   3.900   3.427  0.8634 -0.8860  0.2926
 3020TIP3   OH230474   6.614   0.884   2.867 -0.2937 -0.5331 -0.0358
 3020TIP3    H130475   6.707   0.859   2.873 -0.0007  0.5054 -0.1012
 3020TIP3    H230476   6.577   0.822   2.804  0.7404  0.0776 -1.2966
 3021TIP3   OH230477   2.963   4.263   6.001 -0.2122  0.2523  0.4249
 3021TIP3    H130478   2.952   4.210   6.080  2.4039 -1.5403 -0.2566
 3021TIP3    H230479   3.046   4.309   6.015 -0.1211  0.5340 -0.9162
 3022TIP3   OH230480   5.026   2.459  13.241 -0.6664 -0.2966  0.1283
 3022TIP3    H130481   5.107   2.502  13.214 -1.6958  1.2382 -0.6556
 3022TIP3    H230482   4.982   2.437  13.159 -1.8190  0.4536  0.5181
 3023TIP3   OH230483   2.875   3.104  12.473 -0.2903 -0.6677 -0.2023
 3023TIP3    H130484   2.826   3.176  12.432  0.6948  0.2387  0.1493
 3023TIP3    H230485   2.807   3.046  12.508 -1.1460 -0.8584 -2.0335
 3024TIP3   OH230486   0.415   5.046   0.853 -0.5883 -0.4517  0.2736
 3024TIP3    H130487   0.389   4.955   0.865 -1.5663 -0.1826  0.2181
 3024TIP3    H230488   0.391   5.066   0.763  0.6291 -0.4532 -0.0762
 3025TIP3   OH230489   0.522   3.259   1.806 -0.8214 -0.4965  0.0379
 3025TIP3    H130490   0.506   3.193   1.874 -1.8636 -0.7274 -0.4060
 3025TIP3    H230491   0.545   3.338   1.855 -2.2740 -0.4591  0.7400
 3026TIP3   OH230492   1.877   3.790   0.268  0.2198  0.3300  0.6511
 3026TIP3    H130493   1.895   3.798   0.362  0.9819 -0.3779  0.5766
 3026TIP3    H230494   1.820   3.864   0.248 -0.7001 -0.0264  1.8576
 3027TIP3   OH230495   4.988   2.758  12.924  0.3977 -0.2250 -0.2783
 3027TIP3    H130496   4.995   2.782  12.831 -1.5796 -1.2424 -0.7326
 3027TIP3    H230497   5.053   2.689  12.935 -0.3600 -1.1489 -1.3187
 3028TIP3   OH230498   0.340   5.876  11.733  0.1428 -0.3631 -0.1250
 3028TIP3    H130499   0.283   5.926  11.792 -1.0575  0.5305 -1.9547
 3028TIP3    H230500   0.425   5.873  11.779 -1.0678 -0.9409  2.2572
 3029TIP3   OH230501   5.996   3.307   5.264  0.1740  1.1705  0.3250
 3029TIP3    H130502   5.990   3.249   5.188 -0.8130 -0.6935  1.7493
 3029TIP3    H230503   6.042   3.385   5.231  1.3706 -0.3073 -1.7175
 3030TIP3   OH230504   1.601   4.553  15.281  0.3910  0.0131 -0.3056
 3030TIP3    H130505   1.678   4.609  15.270  0.0654  0.3932 -0.6949
 3030TIP3    H230506   1.539   4.606  15.331  1.2956 -1.1716  2.2664
 3031TIP3   OH230507   4.570   3.089   2.170 -0.3228  0.0094 -0.3946
 3031TIP3    H130508   4.559   3.152   2.099 -1.6821 -0.3680 -0.5462
 3031TIP3    H230509   4.611   3.139   2.241 -1.3924  1.0773 -0.5045
 3032TIP3   OH230510   4.973   1.384  15.145  0.6197 -0.3887 -0.1608
 3032TIP3    H130511   4.961   1.409  15.237  0.5626 -2.3290  0.4036
 3032TIP3    H230512   4.944   1.461  15.096  1.2025  0.9352  1.4222
 3033TIP3   OH230513   0.981   0.466   3.880 -0.3703  0.0773  0.5219
 3033TIP3    H130514   0.912   0.529   3.903 -0.9910 -0.9043  1.4769
 3033TIP3    H230515   0.944   0.416   3.807  0.4799  1.3637 -0.8373
 3034TIP3   OH230516   2.175   6.777   3.719 -0.0485  0.5228  0.2757
 3034TIP3    H130517   2.153   6.721   3.645  0.4015 -1.3278  1.4628
 3034TIP3    H230518   2.208   6.858   3.680 -0.6870 -0.0405 -1.5107
 3035TIP3   OH230519   1.183   2.010  11.925 -0.1724  0.5150 -0.1772
 3035TIP3    H130520   1.224   2.055  11.851  1.6586  0.9621  1.0384
 3035TIP3    H230521   1.090   2.036  11.919  0.4887  3.1459 -0.5083
 3036TIP3   OH230522   4.662   3.264   2.676  0.1163  0.1397  0.2442
 3036TIP3    H130523   4.643   3.357   2.690 -0.3780 -0.0100  0.6052
 3036TIP3    H230524   4.747   3.250   2.717  0.0333  0.3541  0.4892
 3037TIP3   OH230525   4.878   5.326   0.657 -0.0374  0.3707 -0.1070
 3037TIP3    H130526   4.919   5.314   0.743  1.3867 -1.2566 -0.9510
 3037TIP3    H230527   4.951   5.343   0.598 -1.0021  1.5132 -1.0344
 3038TIP3   OH230528   3.915   4.097  11.411  0.0484  0.6707 -0.4569
 3038TIP3    H130529   3.826   4.127  11.390 -0.3404 -0.4858 -0.5574
 3038TIP3    H230530   3.972   4.164  11.373 -0.7812  2.1255  0.7186
 3039TIP3   OH230531   6.100   6.136   3.467  0.5780 -0.3505 -0.0797
 3039TIP3    H130532   6.026   6.155   3.524  0.9983 -0.8424  0.6448
 3039TIP3    H230533   6.161   6.208   3.482  1.0419 -0.8973  0.7161
 3040TIP3   OH230534   0.529   4.890   3.830 -0.0909 -0.1158  0.2069
 3040TIP3    H130535   0.574   4.965   3.867 -0.4027 -0.0681  0.4938
 3040TIP3    H230536   0.444   4.924   3.801 -0.2855 -0.3783  0.4580
 3041TIP3   OH230537   5.921   0.505  15.369 -0.2845 -0.0045 -0.3684
 3041TIP3    H130538   5.909   0.597  15.389  0.0839 -0.3756  1.8420
 3041TIP3    H230539   5.894   0.459  15.449  1.8734 -1.6510 -0.4821
 3042TIP3   OH230540   5.794   1.335  17.067  0.0125 -0.1241  0.4092
 3042TIP3    H130541   5.881   1.296  17.057 -0.5317 -1.7801  1.6732
 3042TIP3    H230542   5.764   1.306  17.153 -1.2089  1.6609  0.6430
 3043TIP3   OH230543   5.733   2.046   1.191  0.8865 -0.0909  1.1078
 3043TIP3    H130544   5.643   2.074   1.172  0.7722 -1.7152 -1.0884
 3043TIP3    H230545   5.723   1.976   1.256  0.5311 -0.4720  0.6471
 3044TIP3   OH230546   3.458   2.292  15.462  0.0759  0.2737 -0.0832
 3044TIP3    H130547   3.452   2.382  15.430 -0.6377  0.1473 -0.3265
 3044TIP3    H230548   3.368   2.270  15.486 -0.0366 -0.9182 -1.4927
 3045TIP3   OH230549   4.605   0.889   1.886  0.0851  0.4779 -0.3068
 3045TIP3    H130550   4.688   0.932   1.910  0.4864 -1.1849  1.5004
 3045TIP3    H230551   4.539   0.937   1.935  0.5854 -1.1281  2.0811
 3046TIP3   OH230552   1.311   0.126   5.931  0.0963  0.0665  0.6022
 3046TIP3    H130553   1.339   0.192   5.868  0.0544 -1.0542 -0.6367
 3046TIP3    H230554   1.220   0.146   5.950 -0.5818 -0.8701 -1.4476
 3047TIP3   OH230555   5.849   2.623  12.854  0.2321  0.2418 -0.2332
 3047TIP3    H130556   5.789   2.656  12.922 -1.0311 -1.2526 -0.5488
 3047TIP3    H230557   5.904   2.698  12.832 -0.4611  1.2364  1.2324
 3048TIP3   OH230558   3.968   4.483  16.694 -0.7952  0.2344  0.2779
 3048TIP3    H130559   3.879   4.513  16.674  0.0204  3.4510  0.8697
 3048TIP3    H230560   3.976   4.493  16.789  0.5580  1.2133  0.0898
 3049TIP3   OH230561   4.521   0.214  11.156  0.0893  1.1288  0.0596
 3049TIP3    H130562   4.566   0.130  11.143 -1.0187  0.3021  1.2894
 3049TIP3    H230563   4.553   0.270  11.085  0.1458 -0.6318 -1.3710
 3050TIP3   OH230564   5.010   4.825   1.972  0.4160  0.0012  0.2848
 3050TIP3    H130565   4.937   4.763   1.966  1.2078 -0.8306 -2.0125
 3050TIP3    H230566   5.008   4.856   2.063 -2.6448 -0.1117  0.3654
 3051TIP3   OH230567   6.743   5.920   4.016 -0.0211 -0.2174  0.0633
 3051TIP3    H130568   6.684   5.982   3.974 -0.9455 -1.0979  0.0183
 3051TIP3    H230569   6.825   5.969   4.028 -0.0620  0.4004 -1.7778
 3052TIP3   OH230570   0.118   1.632   3.870 -0.4688  0.2018  0.0752
 3052TIP3    H130571   0.049   1.639   3.804 -0.5112  1.2113  0.2138
 3052TIP3    H230572   0.134   1.538   3.877 -1.6817 -0.0436 -0.1120
 3053TIP3   OH230573   1.098   2.357  13.776 -0.1278 -0.1197  0.1116
 3053TIP3    H130574   1.054   2.420  13.720  1.0037  1.2123  0.6624
 3053TIP3    H230575   1.068   2.271  13.745 -1.3477  0.6654 -0.9445
 3054TIP3   OH230576   1.854   5.423  14.195  0.8844  0.8616 -0.0736
 3054TIP3    H130577   1.819   5.368  14.265  1.7016  1.3223  0.7340
 3054TIP3    H230578   1.920   5.369  14.153  0.2408  0.5070 -0.6409
 3055TIP3   OH230579   2.022   1.161   1.050  0.0331  0.1430 -0.1510
 3055TIP3    H130580   2.033   1.236   0.991 -1.2269 -0.3997 -1.1358
 3055TIP3    H230581   1.933   1.168   1.082  0.2397 -0.3743  0.5639
 3056TIP3   OH230582   3.471   5.431  16.690  0.4304  0.3579 -0.0333
 3056TIP3    H130583   3.449   5.509  16.639  0.8037  1.0221  0.7968
 3056TIP3    H230584   3.455   5.457  16.781  1.9948 -0.0176  0.3777
 3057TIP3   OH230585   2.595   4.305   6.281 -0.0346 -0.1635  0.1581
 3057TIP3    H130586   2.597   4.332   6.373  1.9389  0.0783  0.0848
 3057TIP3    H230587   2.518   4.351   6.245 -0.6255  0.0269  1.5796
 3058TIP3   OH230588   2.161   2.768  13.310 -0.6434  0.7441 -0.5662
 3058TIP3    H130589   2.160   2.795  13.219 -0.7078 -0.1129 -0.8292
 3058TIP3    H230590   2.169   2.673  13.307  2.2648  0.8625  0.3420
 3059TIP3   OH230591   0.644   2.405  11.402 -0.0217 -0.4108 -0.6720
 3059TIP3    H130592   0.638   2.310  11.397  2.1383 -0.6399  0.1859
 3059TIP3    H230593   0.672   2.432  11.315  1.1375 -0.7574 -0.4200
 3060TIP3   OH230594   0.417   5.513  14.193 -0.6264 -0.0425  0.3084
 3060TIP3    H130595   0.370   5.548  14.268 -0.2436 -0.1654  0.6103
 3060TIP3    H230596   0.459   5.433  14.226 -1.1249 -0.5462 -0.2546
 3061TIP3   OH230597   5.188   2.836   2.795 -0.2890 -0.1978 -0.0507
 3061TIP3    H130598   5.120   2.846   2.862  0.2841 -0.5407  0.5916
 3061TIP3    H230599   5.208   2.925   2.767 -2.0444 -0.1531 -1.3236
 3062TIP3   OH230600   0.986   2.914   3.120  0.5873 -0.2674 -0.4170
 3062TIP3    H130601   1.071   2.950   3.145  1.3120 -0.6974 -2.1317
 3062TIP3    H230602   0.984   2.920   3.025 -1.5927  0.3258 -0.3875
 3063TIP3   OH230603   0.501   3.694  11.369  0.3675  0.7271  0.2903
 3063TIP3    H130604   0.449   3.644  11.433  1.4872  1.4763  1.8649
 3063TIP3    H230605   0.436   3.739  11.315 -0.6441  0.6102  1.3585
 3064TIP3   OH230606   0.180   0.138  10.649 -0.0441 -0.0312 -0.2259
 3064TIP3    H130607   0.236   0.148  10.726 -0.6928 -2.6898  0.6926
 3064TIP3    H230608   0.214   0.060  10.605 -1.6880 -0.4329 -0.8474
 3065TIP3   OH230609   3.560   4.271  13.050 -0.2260 -0.0301 -0.2147
 3065TIP3    H130610   3.589   4.224  13.128  0.2617 -0.5618 -0.6988
 3065TIP3    H230611   3.484   4.221  13.019 -0.2305 -0.0029 -0.2483
 3066TIP3   OH230612   5.922   0.584   1.904 -0.2783 -0.0101 -0.3087
 3066TIP3    H130613   5.961   0.665   1.937  0.2346  0.3361 -1.6740
 3066TIP3    H230614   5.993   0.542   1.854 -1.1767 -0.1676 -1.5099
 3067TIP3   OH230615   6.067   4.972  16.415 -0.4820 -0.3865 -0.7699
 3067TIP3    H130616   6.080   4.916  16.338 -0.0046 -0.6539 -0.4955
 3067TIP3    H230617   6.137   4.948  16.475 -1.5028 -0.9696  0.2320
 3068TIP3   OH230618   1.237   4.139   4.471  0.3800  0.6400  0.1772
 3068TIP3    H130619   1.310   4.133   4.533  0.3414  0.2262  0.1809
 3068TIP3    H230620   1.275   4.184   4.395  0.3698  1.3522  0.5801
 3069TIP3   OH230621   1.726   4.864  16.717 -0.0263  0.2292  0.1714
 3069TIP3    H130622   1.733   4.943  16.664  0.3603  2.0152  2.7448
 3069TIP3    H230623   1.802   4.812  16.692 -0.6537  0.2505 -2.0569
 3070TIP3   OH230624   0.836   0.126   4.957  0.1185  0.3247  0.4312
 3070TIP3    H130625   0.897   0.055   4.941 -1.6931 -1.6373  1.6686
 3070TIP3    H230626   0.885   0.206   4.938  2.5224 -1.1999 -0.0859
 3071TIP3   OH230627   5.551   4.766   5.141 -0.4408  0.2161  0.1825
 3071TIP3    H130628   5.631   4.770   5.089 -0.2865 -1.7759  0.1618
 3071TIP3    H230629   5.581   4.760   5.232 -0.6051  0.6610  0.2667
 3072TIP3   OH230630   2.413   3.930   0.394  0.9269  0.5118 -0.3123
 3072TIP3    H130631   2.332   3.973   0.423  1.8357  2.4694 -0.5437
 3072TIP3    H230632   2.475   4.001   0.380  3.0716 -0.9885  0.9100
 3073TIP3   OH230633   5.490   5.608  13.806  0.7387  1.0188 -0.2788
 3073TIP3    H130634   5.562   5.545  13.796  1.4602  1.8710 -0.5922
 3073TIP3    H230635   5.483   5.649  13.720  0.8611  1.9806  0.1616
 3074TIP3   OH230636   1.101   6.211  13.964 -0.2090  0.2005  0.5198
 3074TIP3    H130637   1.076   6.119  13.956 -0.9143  0.3601  0.7836
 3074TIP3    H230638   1.075   6.235  14.053  2.8045 -0.1630  1.6143
 3075TIP3   OH230639   5.624   3.326   3.029 -0.0513 -0.5790 -0.1869
 3075TIP3    H130640   5.543   3.280   3.048 -0.9465  1.1017  0.3116
 3075TIP3    H230641   5.626   3.398   3.093  1.1960  0.1486 -0.9961
 3076TIP3   OH230642   1.252   1.516  15.297  0.2431  0.4039 -0.4270
 3076TIP3    H130643   1.177   1.575  15.298 -1.0891 -1.1980 -0.7984
 3076TIP3    H230644   1.270   1.499  15.389  0.0651  0.7061 -0.3338
 3077TIP3   OH230645   4.918   1.049   5.752  0.2740  0.5380 -0.0423
 3077TIP3    H130646   4.864   1.054   5.673  1.4985 -0.7254 -1.0093
 3077TIP3    H230647   4.880   0.976   5.802  0.8791 -0.1548 -0.5783
 3078TIP3   OH230648   3.475   2.345   2.455 -0.6602 -0.9325 -0.6389
 3078TIP3    H130649   3.568   2.340   2.432 -0.0959 -0.0595  1.3074
 3078TIP3    H230650   3.437   2.400   2.386  1.0727  2.0942  0.6376
 3079TIP3   OH230651   1.949   1.885   1.479 -0.7198  0.4595 -0.1592
 3079TIP3    H130652   1.857   1.878   1.450 -0.5171 -1.6470 -0.4742
 3079TIP3    H230653   1.968   1.800   1.518  1.4816  0.3998 -1.2175
 3080TIP3   OH230654   4.823   6.000  13.812 -0.8912 -0.3601  0.5298
 3080TIP3    H130655   4.753   6.058  13.780 -0.1390 -0.6011 -1.7233
 3080TIP3    H230656   4.892   6.060  13.838 -0.1122 -0.1481 -1.8050
 3081TIP3   OH230657   4.686   3.324   3.725  0.1071 -0.6521  0.4965
 3081TIP3    H130658   4.614   3.284   3.677 -0.3978 -0.4038  1.0413
 3081TIP3    H230659   4.733   3.375   3.660  0.1684 -1.3173  0.0047
 3082TIP3   OH230660   2.731   0.831   0.626 -0.0726 -0.0556  0.3251
 3082TIP3    H130661   2.682   0.764   0.675 -0.6707  0.6072  0.6384
 3082TIP3    H230662   2.790   0.869   0.691 -0.6574  0.6193  0.4685
 3083TIP3   OH230663   4.482   5.180  12.340  0.1727  0.6391 -0.0717
 3083TIP3    H130664   4.413   5.124  12.304  0.7964 -1.4825  1.8121
 3083TIP3    H230665   4.436   5.238  12.401 -0.1728  0.5048 -0.2001
 3084TIP3   OH230666   3.370   4.356  16.007  0.1725  0.1415  0.2445
 3084TIP3    H130667   3.456   4.316  16.019  0.4523  0.8444  0.6221
 3084TIP3    H230668   3.377   4.403  15.923  0.2876  0.5207  0.4640
 3085TIP3   OH230669   4.346   3.748  10.547 -0.3206  0.1197  0.1483
 3085TIP3    H130670   4.421   3.768  10.490  0.1807  0.0739  0.7756
 3085TIP3    H230671   4.379   3.680  10.606 -1.6256 -1.7405 -1.1556
 3086TIP3   OH230672   3.222   0.290   5.904 -0.3134  0.8531 -0.2217
 3086TIP3    H130673   3.269   0.243   5.973 -1.2675  1.5977  0.9716
 3086TIP3    H230674   3.132   0.255   5.908 -0.1000 -0.0423 -1.9918
 3087TIP3   OH230675   3.989   6.278   0.237  0.6490  0.5335  0.0004
 3087TIP3    H130676   3.990   6.196   0.187  0.9088  0.0890  0.7160
 3087TIP3    H230677   3.925   6.333   0.192  1.6372  0.5620 -1.4609
 3088TIP3   OH230678   0.762   1.854   3.792  0.3045 -0.2638  0.5881
 3088TIP3    H130679   0.700   1.821   3.728 -1.4183 -0.4013  2.2348
 3088TIP3    H230680   0.794   1.776   3.838 -0.9155 -0.0090  1.9657
 3089TIP3   OH230681   2.774   5.144   0.849 -0.0680 -0.3030 -0.0802
 3089TIP3    H130682   2.697   5.181   0.805  1.3942  0.1523 -2.4173
 3089TIP3    H230683   2.784   5.057   0.811  1.3973  0.2134 -0.9794
 3090TIP3   OH230684   4.132   6.204  15.974  0.1274  0.6285  0.1862
 3090TIP3    H130685   4.129   6.242  15.886  0.5350 -1.5176 -0.7979
 3090TIP3    H230686   4.172   6.118  15.962  0.3351  0.3455  2.5093
 3091TIP3   OH230687   5.990   4.910   2.020  0.1128  0.6454 -0.0875
 3091TIP3    H130688   5.928   4.844   2.052  0.5597  0.2921  0.0510
 3091TIP3    H230689   5.982   4.905   1.925  0.3732  0.1690 -0.0873
 3092TIP3   OH230690   5.030   5.857  16.198 -0.1229 -0.5577  0.6687
 3092TIP3    H130691   5.074   5.825  16.119 -0.3919 -0.7786  0.6079
 3092TIP3    H230692   5.012   5.949  16.180 -0.2164 -0.6171  0.4554
 3093TIP3   OH230693   2.072   2.534  12.372 -0.8724 -0.3397 -0.1804
 3093TIP3    H130694   2.161   2.568  12.364  0.4008 -2.9623  1.2509
 3093TIP3    H230695   2.076   2.447  12.333 -3.1563 -0.1258 -1.0621
 3094TIP3   OH230696   6.295   2.994   4.979 -0.0350 -0.1669 -0.0317
 3094TIP3    H130697   6.249   3.007   5.062 -1.1161  1.8504 -0.8647
 3094TIP3    H230698   6.324   2.903   4.981  0.4936 -0.0113  2.7843
 3095TIP3   OH230699   4.772   2.932   4.609  0.2690  0.0095  0.0657
 3095TIP3    H130700   4.855   2.963   4.575  1.5379 -0.8287  2.1919
 3095TIP3    H230701   4.782   2.837   4.614 -1.2036 -0.2008 -0.5470
 3096TIP3   OH230702   4.750   5.716   3.427  0.3051 -0.6710  0.2569
 3096TIP3    H130703   4.789   5.745   3.344 -0.4506  0.2423  0.2090
 3096TIP3    H230704   4.691   5.645   3.402 -3.2383  2.2689 -0.7322
 3097TIP3   OH230705   5.806   3.049   1.511  0.0827 -0.4452  0.6712
 3097TIP3    H130706   5.895   3.025   1.484  0.2452 -0.5203  1.2659
 3097TIP3    H230707   5.752   3.029   1.434  0.5238 -0.7628  0.4380
 3098TIP3   OH230708   0.950   6.315  17.043  0.4146  0.6118  0.0025
 3098TIP3    H130709   1.043   6.305  17.027  0.2424 -1.2059 -0.1110
 3098TIP3    H230710   0.910   6.237  17.003 -1.3695  2.2261 -1.5590
 3099TIP3   OH230711   4.550   5.833   5.750 -0.2745 -0.2978  0.1174
 3099TIP3    H130712   4.598   5.909   5.783 -2.2827  0.6661  1.0272
 3099TIP3    H230713   4.602   5.758   5.778  1.0344  0.6998  0.4672
 3100TIP3   OH230714   6.016   3.296   4.375  0.0078 -0.3398 -0.0105
 3100TIP3    H130715   5.989   3.349   4.449  0.8686  0.8622 -0.5153
 3100TIP3    H230716   5.963   3.327   4.302  1.7525  1.1755 -0.7220
 3101TIP3   OH230717   3.720   1.706   4.805 -0.1082 -0.1523  0.1037
 3101TIP3    H130718   3.645   1.652   4.833  0.9234 -1.3263  0.6866
 3101TIP3    H230719   3.756   1.660   4.729  0.2824  0.1682  0.0925
 3102TIP3   OH230720   4.380   3.565  14.521  0.2899 -0.4803 -0.3552
 3102TIP3    H130721   4.366   3.653  14.487  0.9357 -0.1673  0.1679
 3102TIP3    H230722   4.302   3.548  14.576  0.0758 -0.3143 -0.6069
 3103TIP3   OH230723   0.228   0.908  12.004  0.1809 -0.0050 -0.0647
 3103TIP3    H130724   0.139   0.872  12.015  1.1634 -2.1770  1.5436
 3103TIP3    H230725   0.240   0.914  11.909 -1.5187 -0.0519 -0.3169
 3104TIP3   OH230726   2.161   4.805  14.203  0.0989 -0.7697 -0.2979
 3104TIP3    H130727   2.211   4.885  14.216  1.5567 -1.8886  1.7317
 3104TIP3    H230728   2.181   4.778  14.114 -1.2170  1.5557 -1.3831
 3105TIP3   OH230729   6.796   0.743   4.575 -0.2336  0.1066  0.3444
 3105TIP3    H130730   6.867   0.729   4.638  0.0368 -0.3184 -0.0452
 3105TIP3    H230731   6.716   0.726   4.624 -0.1431  1.7228  1.1067
 3106TIP3   OH230732   6.653   5.622   2.317  0.1441  0.4858 -0.7047
 3106TIP3    H130733   6.574   5.570   2.307  0.3034  0.3151 -1.1287
 3106TIP3    H230734   6.658   5.673   2.236  1.1637 -0.4829 -1.2813
 3107TIP3   OH230735   1.344   5.762   3.980 -0.1211  0.1138 -0.2092
 3107TIP3    H130736   1.377   5.845   4.017  0.2641  0.9221 -2.2413
 3107TIP3    H230737   1.423   5.710   3.964 -0.2622 -0.1132 -0.1630
 3108TIP3   OH230738   4.629   2.191   3.373 -0.0212 -0.1866 -0.8568
 3108TIP3    H130739   4.652   2.284   3.379  2.0507 -0.5614 -2.1318
 3108TIP3    H230740   4.656   2.155   3.457  0.0656  0.1811 -0.7233
 3109TIP3   OH230741   2.965   4.032  14.185 -0.2320 -0.0837 -0.3951
 3109TIP3    H130742   2.878   4.011  14.218 -0.3809 -1.0640 -1.3471
 3109TIP3    H230743   2.952   4.048  14.091  0.5289  0.2785 -0.4512
 3110TIP3   OH230744   5.533   2.177  14.517 -0.2122  0.1853  0.4408
 3110TIP3    H130745   5.533   2.098  14.572 -1.0314  0.0603  0.2608
 3110TIP3    H230746   5.459   2.228  14.548  0.3597  0.9386  0.6086
 3111TIP3   OH230747   3.031   1.602  12.334 -0.4738  0.4496 -0.0525
 3111TIP3    H130748   3.009   1.608  12.241 -0.3128  3.7925  0.0129
 3111TIP3    H230749   3.127   1.594  12.335 -0.5007  0.1033 -0.1714
 3112TIP3   OH230750   5.198   3.979   3.949  0.3719 -0.2685  0.2038
 3112TIP3    H130751   5.259   4.022   3.889 -0.8070 -0.7057 -1.3769
 3112TIP3    H230752   5.226   4.007   4.036  1.9290  0.6721 -0.5564
 3113TIP3   OH230753   2.942   1.598  12.013  0.0775  0.0454 -0.3619
 3113TIP3    H130754   2.925   1.660  11.942 -0.0492  0.4883  0.0502
 3113TIP3    H230755   2.986   1.524  11.970  2.1318  1.3036 -0.5553
 3114TIP3   OH230756   1.602   1.182   4.598  0.1242 -0.6497 -0.2638
 3114TIP3    H130757   1.636   1.115   4.657  0.5405 -0.3848 -0.1967
 3114TIP3    H230758   1.615   1.264   4.645 -2.2517 -0.6611  0.5376
 3115TIP3   OH230759   1.573   2.994   3.318  0.2596 -0.0494 -0.2809
 3115TIP3    H130760   1.544   3.057   3.252  0.2798  0.0273 -0.2162
 3115TIP3    H230761   1.640   2.942   3.273  0.2033 -0.0608 -0.3517
 3116TIP3   OH230762   0.075   0.967   3.930  0.6742  0.2020  0.5317
 3116TIP3    H130763   0.004   0.993   3.872  1.3308 -0.5935 -0.6607
 3116TIP3    H230764   0.113   0.889   3.889  2.3020  0.6659  1.0844
 3117TIP3   OH230765   5.403   3.987   1.691 -0.0370 -0.0779 -0.4417
 3117TIP3    H130766   5.320   4.004   1.647  0.8086 -2.2775 -3.1748
 3117TIP3    H230767   5.458   4.062   1.668 -0.8704  0.8169  0.4148
 3118TIP3   OH230768   0.579   4.032  15.763 -0.1363 -0.1256 -0.1527
 3118TIP3    H130769   0.513   4.053  15.697  1.6187  1.0284 -1.6576
 3118TIP3    H230770   0.545   4.067  15.845 -1.3188  0.5355 -0.9090
 3119TIP3   OH230771   0.491   5.058  15.642 -0.2592 -0.5700  0.4053
 3119TIP3    H130772   0.466   5.143  15.605  0.1264 -1.2171 -1.4410
 3119TIP3    H230773   0.562   5.079  15.703 -0.5155  0.4862  0.3618
 3120TIP3   OH230774   4.815   3.103   5.247 -0.4895  0.3608  0.3099
 3120TIP3    H130775   4.746   3.121   5.182 -0.9543 -0.1437  0.6555
 3120TIP3    H230776   4.771   3.110   5.331  0.4253  2.4079  0.6665
 3121TIP3   OH230777   1.145   6.483  16.776 -0.2478  0.0073 -0.0884
 3121TIP3    H130778   1.052   6.503  16.773 -0.7706 -2.2143  0.0232
 3121TIP3    H230779   1.187   6.569  16.785 -2.1281  1.2433 -2.0672
 3122TIP3   OH230780   3.003   5.492  16.238  0.3914 -0.3409 -0.6074
 3122TIP3    H130781   3.096   5.498  16.261  0.4528 -3.9555  0.7244
 3122TIP3    H230782   3.002   5.507  16.143  1.7557  3.0526 -0.2466
 3123TIP3   OH230783   1.771   6.257  16.818 -0.4285  0.2316  1.4336
 3123TIP3    H130784   1.827   6.185  16.789 -1.5776 -1.3383  2.9055
 3123TIP3    H230785   1.819   6.336  16.793  0.9967 -1.0134 -0.0353
 3124TIP3   OH230786   1.448   1.140  14.351 -0.2418 -0.6842 -0.1081
 3124TIP3    H130787   1.512   1.168  14.416 -0.7336 -1.6254  0.7968
 3124TIP3    H230788   1.364   1.168  14.386 -0.4786 -0.8442 -0.5414
 3125TIP3   OH230789   6.054   1.927  15.849 -0.1879 -0.3063  0.8934
 3125TIP3    H130790   6.117   1.857  15.833 -0.1131  0.0816 -0.7305
 3125TIP3    H230791   5.978   1.904  15.796  0.3609  1.4687 -0.8098
 3126TIP3   OH230792   4.238   4.470   1.129 -0.6844 -0.0110 -0.0885
 3126TIP3    H130793   4.168   4.535   1.116 -0.4939 -0.0354 -1.3980
 3126TIP3    H230794   4.192   4.386   1.127 -0.7427  0.0152  0.1022
 3127TIP3   OH230795   2.456   6.577   2.390 -0.4891 -0.0421 -0.6343
 3127TIP3    H130796   2.444   6.655   2.336 -0.3584  1.0491  0.8557
 3127TIP3    H230797   2.495   6.513   2.331 -2.0795  0.4569 -2.3199
 3128TIP3   OH230798   4.251   0.285   0.215 -0.0729  0.3502 -0.5022
 3128TIP3    H130799   4.160   0.307   0.236 -0.7635 -2.0956 -0.5887
 3128TIP3    H230800   4.253   0.282   0.119 -0.3763 -1.1418 -0.4927
 3129TIP3   OH230801   5.519   0.488   2.740 -0.1679  0.1529  0.2608
 3129TIP3    H130802   5.486   0.514   2.653  0.1534  0.0228  0.1004
 3129TIP3    H230803   5.586   0.552   2.761  1.8444 -1.4676 -0.8855
 3130TIP3   OH230804   0.314   5.314   2.220  0.1492  0.1208  0.1901
 3130TIP3    H130805   0.328   5.335   2.128 -2.7540  0.4199 -0.2750
 3130TIP3    H230806   0.353   5.227   2.231 -1.4110 -0.9521 -1.9767
 3131TIP3   OH230807   2.482   3.430  13.891  0.1048  0.0259 -0.0172
 3131TIP3    H130808   2.553   3.393  13.838  0.8180  0.0856  0.8720
 3131TIP3    H230809   2.498   3.524  13.889 -0.1330  0.0638 -0.0714
 3132TIP3   OH230810   3.425   6.214  16.017  0.2218 -0.2512  0.2476
 3132TIP3    H130811   3.429   6.239  15.925 -1.1011 -0.1811  0.1975
 3132TIP3    H230812   3.400   6.122  16.017 -0.2511 -0.1280  0.5378
 3133TIP3   OH230813   6.079   2.028  14.429  0.3639  0.0202  0.7260
 3133TIP3    H130814   6.127   2.062  14.353 -1.0419  0.0524 -0.1829
 3133TIP3    H230815   6.140   2.037  14.502  1.1211  1.6402 -0.0637
 3134TIP3   OH230816   6.595   2.817  12.373 -0.2023  0.4569 -0.1411
 3134TIP3    H130817   6.511   2.857  12.395  0.1740  0.3887  1.5335
 3134TIP3    H230818   6.584   2.724  12.392 -0.1027  0.2537 -1.0372
 3135TIP3   OH230819   5.243   6.552   0.564  0.6010  0.1449  0.1575
 3135TIP3    H130820   5.320   6.500   0.540 -0.2116 -0.6226 -0.9330
 3135TIP3    H230821   5.259   6.638   0.526  0.6913 -0.1718 -0.5332
 3136TIP3   OH230822   3.386   0.054   1.559 -0.1546 -0.3051  0.3454
 3136TIP3    H130823   3.359   0.105   1.635 -1.1600 -0.8944  0.3986
 3136TIP3    H230824   3.306   0.040   1.509  0.2360 -1.1749 -0.0650
 3137TIP3   OH230825   5.478   4.787   0.611 -0.6212  0.7458 -0.2889
 3137TIP3    H130826   5.431   4.741   0.541 -1.1617  1.0718 -0.1485
 3137TIP3    H230827   5.433   4.872   0.618 -1.1251  0.3972  1.0211
 3138TIP3   OH230828   4.863   0.529   3.029  0.3100  0.2562 -0.0008
 3138TIP3    H130829   4.931   0.527   3.097 -0.5880  0.3437  0.9241
 3138TIP3    H230830   4.902   0.580   2.958  1.3404  0.0049  0.3660
 3139TIP3   OH230831   5.799   1.600  14.479 -0.1555 -0.4220 -0.0088
 3139TIP3    H130832   5.774   1.538  14.410 -0.1227 -0.5149  0.0618
 3139TIP3    H230833   5.857   1.662  14.435 -2.1398  1.0329 -0.6826
 3140TIP3   OH230834   1.372   6.485  11.201  0.3224 -0.3809 -0.3437
 3140TIP3    H130835   1.446   6.521  11.250  0.2742  0.1795 -0.6783
 3140TIP3    H230836   1.301   6.481  11.265  0.3906 -0.0809 -0.2482
 3141TIP3   OH230837   1.091   6.011  15.454 -0.0086 -0.2737 -0.3986
 3141TIP3    H130838   1.035   5.935  15.438 -2.6994  0.9654  1.9715
 3141TIP3    H230839   1.048   6.082  15.407  0.6594  0.3685 -0.0533
 3142TIP3   OH230840   2.002   1.868  13.967 -0.0999  0.2347 -0.2978
 3142TIP3    H130841   1.910   1.845  13.971 -0.5551  1.5903 -1.7784
 3142TIP3    H230842   2.020   1.915  14.048 -1.0759  1.1201 -0.5807
 3143TIP3   OH230843   3.110   0.677   0.439  0.2606  0.8325  0.2988
 3143TIP3    H130844   3.087   0.584   0.447  0.3501  0.6321 -1.3835
 3143TIP3    H230845   3.201   0.677   0.409 -0.3875  1.3469 -1.8716
 3144TIP3   OH230846   3.234   2.592  12.759  0.2163  0.2774  0.0848
 3144TIP3    H130847   3.206   2.543  12.681 -2.0559  2.8264 -0.8564
 3144TIP3    H230848   3.232   2.683  12.731  1.2114  1.1574  2.6436
 3145TIP3   OH230849   5.455   5.986   4.096  0.1369 -0.4887  0.3768
 3145TIP3    H130850   5.375   5.952   4.056 -0.6169  0.0199  1.4044
 3145TIP3    H230851   5.439   5.981   4.190  1.3096 -0.3545  0.6003
 3146TIP3   OH230852   5.666   6.465   4.662 -0.0936  0.4577 -0.2768
 3146TIP3    H130853   5.656   6.435   4.752 -1.4901 -0.2213 -0.6304
 3146TIP3    H230854   5.656   6.560   4.667 -0.8813  0.3632  0.2211
 3147TIP3   OH230855   1.838   3.714   2.330 -0.3188  0.3818  0.5736
 3147TIP3    H130856   1.847   3.797   2.375 -0.2681 -0.6289  2.5605
 3147TIP3    H230857   1.911   3.712   2.268  0.6481  1.1473  1.6365
 3148TIP3   OH230858   1.503   6.413  14.352  0.3910  0.3536 -0.2387
 3148TIP3    H130859   1.512   6.393  14.445  1.7965 -3.6104 -1.0213
 3148TIP3    H230860   1.410   6.428  14.339  0.0395  0.0736  1.6654
 3149TIP3   OH230861   6.417   5.859   1.131 -0.3283 -0.3512  0.3324
 3149TIP3    H130862   6.418   5.936   1.073 -0.7215 -0.3659  0.2982
 3149TIP3    H230863   6.337   5.812   1.106 -0.4768 -0.3842  0.8487
 3150TIP3   OH230864   0.567   1.331  17.031 -0.3522  0.5097  0.4914
 3150TIP3    H130865   0.566   1.374  16.946  1.1658  1.0603  0.7214
 3150TIP3    H230866   0.532   1.243  17.014  0.1839  0.5085 -0.7676
 3151TIP3   OH230867   5.366   1.264   1.313  0.0403 -0.0758 -0.1457
 3151TIP3    H130868   5.278   1.263   1.274  0.5132  3.4356 -1.7015
 3151TIP3    H230869   5.350   1.283   1.406 -0.8445 -0.4675 -0.2018
 3152TIP3   OH230870   0.874   6.612   1.566 -0.2377  0.3152  0.0508
 3152TIP3    H130871   0.854   6.696   1.523 -1.2845  0.1679  0.2134
 3152TIP3    H230872   0.815   6.609   1.641 -1.4608 -1.3203 -0.9053
 3153TIP3   OH230873   4.307   0.667  13.162  0.4756  0.1976  0.1549
 3153TIP3    H130874   4.221   0.648  13.123  0.3241 -0.3407  0.7353
 3153TIP3    H230875   4.350   0.722  13.097  0.3870 -0.9901 -0.9751
 3154TIP3   OH230876   5.242   6.162  16.513  0.0076 -0.4867 -1.1468
 3154TIP3    H130877   5.229   6.073  16.480 -0.3832 -0.7112 -0.3987
 3154TIP3    H230878   5.177   6.172  16.582  1.0946 -0.1839 -0.1297
 3155TIP3   OH230879   3.111   4.025  12.416  0.1570  0.6930  0.0980
 3155TIP3    H130880   3.196   4.003  12.377  0.6405  2.2553  0.1795
 3155TIP3    H230881   3.077   4.095  12.360 -1.2828 -0.1798 -0.1671
 3156TIP3   OH230882   5.477   6.658  14.097  0.6305  0.4276 -0.2533
 3156TIP3    H130883   5.396   6.668  14.148  0.5826 -0.0386 -0.2347
 3156TIP3    H230884   5.535   6.726  14.131  1.2675 -0.9786  1.7146
 3157TIP3   OH230885   1.231   0.466  15.943  0.3379 -0.1180 -0.0900
 3157TIP3    H130886   1.263   0.518  16.017  0.2917  1.4788 -1.1537
 3157TIP3    H230887   1.309   0.421  15.910  0.9113  1.2570 -0.6887
 3158TIP3   OH230888   0.371   4.661  12.494 -0.2268 -0.4580 -0.5258
 3158TIP3    H130889   0.371   4.711  12.576  1.0860 -0.8085 -0.2884
 3158TIP3    H230890   0.425   4.584  12.513 -0.5801 -0.9546 -1.4829
 3159TIP3   OH230891   0.555   0.637  11.414 -0.1272 -0.2986 -0.1283
 3159TIP3    H130892   0.616   0.711  11.408 -0.0323 -0.2276  1.4900
 3159TIP3    H230893   0.469   0.678  11.424  0.0971 -0.3477  2.4930
 3160TIP3   OH230894   5.143   1.908   1.134  0.2289  0.4178 -0.1058
 3160TIP3    H130895   5.162   1.814   1.127  0.0843  0.4206 -0.6324
 3160TIP3    H230896   5.149   1.939   1.043 -1.2020  0.6370 -0.1435
 3161TIP3   OH230897   1.089   1.427   4.964 -0.4560 -0.4154  0.0496
 3161TIP3    H130898   1.107   1.341   4.924 -1.9445 -0.7713  0.1075
 3161TIP3    H230899   1.008   1.456   4.923 -1.0273  0.0692  1.4649
 3162TIP3   OH230900   6.717   3.292  12.108 -0.1018  0.2102 -0.1897
 3162TIP3    H130901   6.702   3.211  12.157  0.6966  2.1919  3.7659
 3162TIP3    H230902   6.640   3.301  12.052 -0.5623 -2.8382 -0.2305
 3163TIP3   OH230903   5.475   4.049   3.841 -0.2839 -0.1070 -0.2300
 3163TIP3    H130904   5.482   4.111   3.914 -2.0408  0.1249 -0.2351
 3163TIP3    H230905   5.525   3.972   3.870 -0.9570 -0.0263  1.2221
 3164TIP3   OH230906   0.508   5.573   0.192  0.0334 -0.1813  0.7538
 3164TIP3    H130907   0.579   5.610   0.245 -0.8121  0.9058  1.1513
 3164TIP3    H230908   0.441   5.548   0.255 -0.3017 -0.4013  0.3171
 3165TIP3   OH230909   2.021   5.543  11.909  0.0258  0.1338  0.3582
 3165TIP3    H130910   1.982   5.520  11.993 -1.1021 -0.5747 -0.3395
 3165TIP3    H230911   2.090   5.477  11.896 -0.8802 -0.7672 -0.0091
 3166TIP3   OH230912   4.103   6.574  16.700  0.1776 -0.1993  0.7474
 3166TIP3    H130913   4.180   6.530  16.737 -0.1171 -0.8751  0.5595
 3166TIP3    H230914   4.045   6.586  16.775 -1.0203 -2.8091  0.3420
 3167TIP3   OH230915   6.220   1.919  12.831 -0.0053 -0.7242 -0.3934
 3167TIP3    H130916   6.306   1.880  12.815 -1.3793 -3.7482 -1.1901
 3167TIP3    H230917   6.160   1.865  12.780 -2.5533  0.5142  1.1040
 3168TIP3   OH230918   2.810   4.559  13.972  0.3996 -0.1968 -0.4762
 3168TIP3    H130919   2.894   4.605  13.959  1.0612 -0.6042  1.9506
 3168TIP3    H230920   2.774   4.597  14.052 -1.4813 -0.4548 -1.1553
 3169TIP3   OH230921   0.687   3.542   5.284  0.4127 -0.3697  0.2988
 3169TIP3    H130922   0.635   3.492   5.219  1.2547 -1.5392  0.4905
 3169TIP3    H230923   0.632   3.542   5.363 -1.0373  1.8571 -0.6069
 3170TIP3   OH230924   6.579   3.289  15.349  0.3402  0.9825 -0.0164
 3170TIP3    H130925   6.573   3.211  15.404 -0.6088  1.2635  0.2999
 3170TIP3    H230926   6.643   3.345  15.392 -1.2321  1.7061  1.4843
 3171TIP3   OH230927   2.531   3.364  14.903 -0.3483 -0.3537  0.6110
 3171TIP3    H130928   2.488   3.431  14.957 -0.7155  0.8413 -1.0928
 3171TIP3    H230929   2.618   3.400  14.885 -1.3056  0.8074 -2.1713
 3172TIP3   OH230930   1.429   1.473   3.771  0.4157 -0.1996  0.5510
 3172TIP3    H130931   1.463   1.384   3.773  2.0315  0.3980  2.1247
 3172TIP3    H230932   1.436   1.504   3.861 -1.7585  0.9603  0.4050
 3173TIP3   OH230933   2.241   3.478   3.679 -0.1417 -0.6058  0.8927
 3173TIP3    H130934   2.184   3.524   3.616  0.9683 -0.1350  0.2008
 3173TIP3    H230935   2.199   3.393   3.691 -0.7366 -0.4596  0.0043
 3174TIP3   OH230936   2.565   2.752  12.231  0.6412  0.1014 -0.2789
 3174TIP3    H130937   2.585   2.839  12.198  0.3058  0.5768  0.7440
 3174TIP3    H230938   2.651   2.709  12.240  1.0122  1.0820  1.2347
 3175TIP3   OH230939   3.722   6.098  14.534  0.0592 -0.1067 -0.2933
 3175TIP3    H130940   3.708   6.188  14.504 -1.2511 -0.4349 -0.7360
 3175TIP3    H230941   3.814   6.096  14.560  0.0210  1.4695  0.1143
 3176TIP3   OH230942   0.061   5.412   2.821  0.1524  1.1508  0.0216
 3176TIP3    H130943   0.030   5.485   2.874 -1.1071  1.4778 -1.1079
 3176TIP3    H230944   0.076   5.450   2.734  1.9495  0.5819  0.0405
 3177TIP3   OH230945   3.066   2.453  14.246 -0.2836  0.0574 -0.1469
 3177TIP3    H130946   3.005   2.474  14.175 -2.2474  1.2686  1.7857
 3177TIP3    H230947   3.116   2.533  14.259 -2.1828  1.0071  1.8863
 3178TIP3   OH230948   3.677   3.693   0.006  0.5787  0.7034 -0.5081
 3178TIP3    H130949   3.692   3.598   0.001  0.0825  0.6428 -0.9493
 3178TIP3    H230950   3.765   3.731   0.010  0.7739  0.1398  1.7483
 3179TIP3   OH230951   2.435   2.538  16.802  0.5405  0.2504  0.6694
 3179TIP3    H130952   2.446   2.466  16.739 -0.6115 -0.2694  1.0499
 3179TIP3    H230953   2.510   2.595  16.785 -0.0254  0.4249 -1.5793
 3180TIP3   OH230954   1.977   6.308   0.041  0.0587  0.3951 -0.7464
 3180TIP3    H130955   2.037   6.243   0.006  1.2810 -0.5531  2.6808
 3180TIP3    H230956   1.891   6.266   0.038  0.8706 -1.7227  1.7277
 3181TIP3   OH230957   6.058   1.508   4.561 -0.1420  0.4021  0.3332
 3181TIP3    H130958   6.088   1.585   4.513  0.2110  0.7065  1.0215
 3181TIP3    H230959   6.138   1.472   4.601 -0.1247 -0.9168 -0.7810
 3182TIP3   OH230960   2.993   0.327   3.709  0.2963 -0.2076  0.1912
 3182TIP3    H130961   3.057   0.361   3.646 -0.3818 -1.3453 -1.1674
 3182TIP3    H230962   3.002   0.232   3.703 -0.2201 -0.3449  1.3771
 3183TIP3   OH230963   3.282   4.754   4.552 -0.5285  0.4808  0.3208
 3183TIP3    H130964   3.195   4.771   4.587 -0.0254 -0.5376  2.2439
 3183TIP3    H230965   3.320   4.841   4.539 -1.1051  0.9301  1.4812
 3184TIP3   OH230966   5.168   0.337  11.028 -0.5488 -0.5096 -0.5303
 3184TIP3    H130967   5.115   0.299  10.958 -0.5235  0.0223 -0.8371
 3184TIP3    H230968   5.134   0.296  11.108 -2.2385  0.6998 -0.5823
 3185TIP3   OH230969   2.491   1.247  14.460  0.4474 -0.3984  0.5621
 3185TIP3    H130970   2.438   1.258  14.381 -0.9924  3.1038  1.8040
 3185TIP3    H230971   2.523   1.157  14.455 -1.1504 -0.9530 -2.9916
 3186TIP3   OH230972   6.124   4.426   2.166  0.2012 -0.0556  0.0744
 3186TIP3    H130973   6.181   4.373   2.222 -0.8293 -0.8763  0.3774
 3186TIP3    H230974   6.038   4.421   2.208 -0.6380 -0.8326 -1.6485
 3187TIP3   OH230975   3.534   4.711   1.175  0.3215  0.4006 -0.4469
 3187TIP3    H130976   3.613   4.695   1.226 -0.3951 -2.0849 -0.0234
 3187TIP3    H230977   3.464   4.669   1.224 -1.2173  1.9993 -1.1342
 3188TIP3   OH230978   4.994   3.038  15.214  0.5134  0.2164 -0.4074
 3188TIP3    H130979   4.929   3.031  15.145 -1.4771  1.6340  1.1954
 3188TIP3    H230980   4.984   2.957  15.265 -0.3158  0.5849  0.0440
 3189TIP3   OH230981   3.539   5.065   0.170 -0.8882  0.1994 -0.2409
 3189TIP3    H130982   3.533   5.117   0.090 -0.4846  1.4994  0.5444
 3189TIP3    H230983   3.494   5.117   0.236 -1.7260 -1.1185  0.2730
 3190TIP3   OH230984   3.655   2.934   0.633 -0.2781  0.0823  0.7434
 3190TIP3    H130985   3.653   2.882   0.713 -1.2622 -0.3899  0.4249
 3190TIP3    H230986   3.634   3.023   0.662  2.6652  0.6291  1.4742
 3191TIP3   OH230987   5.138   1.567  11.040 -0.0774  0.1326  0.0846
 3191TIP3    H130988   5.117   1.509  10.967  1.5695 -1.6006  0.9116
 3191TIP3    H230989   5.224   1.603  11.019  0.9371 -1.2562  1.6000
 3192TIP3   OH230990   5.527   5.967   3.845 -0.1996  1.0074  0.0275
 3192TIP3    H130991   5.499   5.987   3.935  0.1255  0.4015  0.2614
 3192TIP3    H230992   5.555   6.052   3.810  3.1909  0.7402  1.7130
 3193TIP3   OH230993   5.141   1.987  13.689 -0.2377 -0.2322  0.3058
 3193TIP3    H130994   5.067   2.003  13.630  0.2334  0.6515 -0.0759
 3193TIP3    H230995   5.194   1.922  13.643 -1.5225 -2.0553  1.2784
 3194TIP3   OH230996   4.814   3.947  17.055 -0.2853 -0.1221  0.2848
 3194TIP3    H130997   4.726   3.920  17.025 -0.0903  0.0850 -0.5133
 3194TIP3    H230998   4.808   3.949  17.150 -1.1532 -0.1150  0.2372
 3195TIP3   OH230999   0.604   2.831  12.869 -0.3590 -0.5091  0.1967
 3195TIP3    H131000   0.666   2.762  12.891 -1.6413 -1.7080  0.1762
 3195TIP3    H231001   0.575   2.809  12.781 -2.9583 -1.6687  1.2567
 3196TIP3   OH231002   2.616   1.659   1.926  0.1659  1.0453 -0.0866
 3196TIP3    H131003   2.526   1.665   1.960 -0.1941  0.1292 -0.8506
 3196TIP3    H231004   2.649   1.576   1.960  0.8876  1.5546  0.5155
 3197TIP3   OH231005   5.952   5.170   4.452  0.3931 -0.2725 -0.8808
 3197TIP3    H131006   5.914   5.254   4.480  0.3559 -0.5268 -0.1553
 3197TIP3    H231007   6.013   5.194   4.382 -1.1832  0.1267 -2.1746
 3198TIP3   OH231008   6.593   5.557   3.187  0.0965  0.2161 -0.2506
 3198TIP3    H131009   6.541   5.628   3.225  1.4029  1.3565 -0.5222
 3198TIP3    H231010   6.622   5.505   3.262  0.8458  1.1918  0.1576
 3199TIP3   OH231011   4.070   5.949   3.705  0.5160 -0.0737  0.0894
 3199TIP3    H131012   4.015   5.874   3.726 -1.4655  0.9002 -1.3393
 3199TIP3    H231013   4.009   6.022   3.697  2.0477  1.1109 -1.3826
 3200TIP3   OH231014   2.648   3.956  14.213 -0.5772 -0.4831 -0.0171
 3200TIP3    H131015   2.606   3.900  14.278  1.1148 -1.6759  0.1204
 3200TIP3    H231016   2.679   3.895  14.146  0.1122  0.4441 -0.5580
 3201TIP3   OH231017   6.753   5.477   5.003  0.9412  0.1442 -0.0899
 3201TIP3    H131018   6.702   5.399   5.027  1.1851 -0.0310 -0.1337
 3201TIP3    H231019   6.839   5.442   4.980  1.8840  0.6464  2.3345
 3202TIP3   OH231020   6.088   3.298  13.957  0.4848  0.3214  0.1268
 3202TIP3    H131021   6.106   3.280  13.864  0.0102  0.0414  0.0823
 3202TIP3    H231022   6.053   3.215  13.990 -0.2746  0.7071  0.3140
 3203TIP3   OH231023   2.501   1.095   4.583 -0.0675 -0.6813  0.1497
 3203TIP3    H131024   2.542   1.139   4.509 -1.3250  0.1138 -0.0937
 3203TIP3    H231025   2.410   1.081   4.556 -0.1314 -1.8887  0.8998
 3204TIP3   OH231026   5.022   2.972  11.075  0.0570  0.2152 -0.0238
 3204TIP3    H131027   5.093   3.007  11.129 -1.5307  0.6553  1.9097
 3204TIP3    H231028   4.957   3.043  11.071 -0.5674 -0.3736 -1.2396
 3205TIP3   OH231029   1.419   0.874  14.578  0.5871  0.1259 -0.4625
 3205TIP3    H131030   1.505   0.892  14.541  0.5425 -3.0597 -2.5307
 3205TIP3    H231031   1.361   0.869  14.501 -0.6203 -1.5514  0.4975
 3206TIP3   OH231032   2.122   1.127   1.546 -0.0061 -0.2631  0.2424
 3206TIP3    H131033   2.175   1.136   1.625  0.6909  1.9932 -0.4090
 3206TIP3    H231034   2.157   1.193   1.486 -1.4647 -0.9219 -1.4214
 3207TIP3   OH231035   1.226   0.757   0.853 -0.1207  0.0878 -0.3684
 3207TIP3    H131036   1.315   0.768   0.885 -0.6694 -0.9781  1.6500
 3207TIP3    H231037   1.232   0.686   0.789  0.3752 -0.4927  0.3073
 3208TIP3   OH231038   1.229   4.066   2.216 -0.1630 -0.7291 -0.3072
 3208TIP3    H131039   1.258   3.985   2.258 -0.5477  0.2193  1.9864
 3208TIP3    H231040   1.275   4.135   2.265 -2.4427  0.5756  0.1348
 3209TIP3   OH231041   4.250   5.665   1.799  0.1054  0.2458 -0.4785
 3209TIP3    H131042   4.333   5.669   1.845  0.1315  0.8665 -0.5709
 3209TIP3    H231043   4.270   5.697   1.711 -0.6175  2.3542  0.0693
 3210TIP3   OH231044   2.257   0.955   4.439 -0.0002 -0.1728  0.1733
 3210TIP3    H131045   2.167   0.935   4.413 -0.7892 -1.3749  3.3149
 3210TIP3    H231046   2.311   0.896   4.387 -1.2928 -1.2983  0.0600
 3211TIP3   OH231047   1.829   2.891   5.959  0.0456  0.3152  0.1918
 3211TIP3    H131048   1.788   2.951   6.021  2.0876  0.7690  1.1815
 3211TIP3    H231049   1.826   2.806   6.003 -0.3155  0.2326  0.0135
 3212TIP3   OH231050   3.276   1.660  13.221  0.7954  0.0527 -0.5053
 3212TIP3    H131051   3.362   1.633  13.253  0.4291 -1.0039 -0.4022
 3212TIP3    H231052   3.218   1.650  13.297  0.2838 -0.6991 -0.9844
 3213TIP3   OH231053   3.562   6.336  12.356 -0.3105 -0.4770 -0.3191
 3213TIP3    H131054   3.483   6.358  12.307 -1.1636 -1.7724  0.3906
 3213TIP3    H231055   3.578   6.244  12.335 -1.2065 -1.3459  2.3788
 3214TIP3   OH231056   2.889   2.632   4.739  0.1884 -0.2838  0.4088
 3214TIP3    H131057   2.868   2.725   4.732  0.2410 -0.3603 -0.9544
 3214TIP3    H231058   2.978   2.630   4.774  0.3539  0.1878  0.0272
 3215TIP3   OH231059   2.872   3.051   5.890 -0.2943  0.0389  0.1139
 3215TIP3    H131060   2.808   2.994   5.847 -1.2600 -0.6160  2.2315
 3215TIP3    H231061   2.876   3.017   5.980  0.3070  2.3334  1.0201
 3216TIP3   OH231062   1.925   2.187  15.402  0.3390 -0.6993 -0.0781
 3216TIP3    H131063   1.846   2.240  15.388  1.6407  1.1866 -0.6563
 3216TIP3    H231064   1.954   2.164  15.313  0.0184 -2.1395  0.1522
 3217TIP3   OH231065   3.705   6.677  14.908  0.5288  0.0096  0.3553
 3217TIP3    H131066   3.735   6.622  14.981  0.5965 -0.3518  0.0586
 3217TIP3    H231067   3.769   6.748  14.903 -0.1242  0.7029  1.4044
 3218TIP3   OH231068   2.245   6.079   1.575  0.2823 -0.4079  0.1925
 3218TIP3    H131069   2.162   6.075   1.528  1.3570 -1.0334 -1.7980
 3218TIP3    H231070   2.253   5.994   1.619  0.9246 -1.3498 -1.6429
 3219TIP3   OH231071   5.317   1.925  16.661 -0.3939 -0.3063 -0.3264
 3219TIP3    H131072   5.327   1.835  16.631  0.3432  0.0228 -1.1044
 3219TIP3    H231073   5.320   1.977  16.581 -0.6560  0.4204  0.1300
 3220TIP3   OH231074   0.947   0.871  13.208  0.4504  0.4037 -0.5182
 3220TIP3    H131075   0.916   0.916  13.287  0.6424 -0.6218  0.1643
 3220TIP3    H231076   0.895   0.791  13.205  1.9736 -0.6282 -0.1804
 3221TIP3   OH231077   6.143   4.273  14.246 -0.2465  0.4625 -0.3340
 3221TIP3    H131078   6.132   4.258  14.339  1.7759  3.5195  0.5722
 3221TIP3    H231079   6.230   4.237  14.226 -0.6296 -0.0975 -1.0479
 3222TIP3   OH231080   0.174   2.927  15.083 -0.2260 -0.1773 -0.0200
 3222TIP3    H131081   0.151   3.016  15.057 -0.2507 -0.3998 -0.7992
 3222TIP3    H231082   0.265   2.933  15.112  0.1194 -0.0815 -1.0804
 3223TIP3   OH231083   6.003   2.708  12.293 -0.4088 -0.0426 -0.1092
 3223TIP3    H131084   5.933   2.754  12.339 -0.4689  0.3871 -0.6126
 3223TIP3    H231085   6.007   2.751  12.207  0.3111 -0.2223 -0.1730
 3224TIP3   OH231086   6.106   1.219   4.700 -0.3281 -0.5365 -0.3964
 3224TIP3    H131087   6.139   1.152   4.640 -1.4828 -0.6425 -0.9517
 3224TIP3    H231088   6.089   1.295   4.645 -0.9949 -0.4898 -0.1397
 3225TIP3   OH231089   2.052   0.509  11.541 -0.4196  0.1653  0.3050
 3225TIP3    H131090   2.107   0.585  11.558 -1.0549  0.3331  1.7264
 3225TIP3    H231091   1.981   0.515  11.606 -1.9252 -0.2309 -1.2285
 3226TIP3   OH231092   0.464   5.218   5.298  0.0572 -0.3932  0.3249
 3226TIP3    H131093   0.490   5.308   5.316  1.8982 -1.0570  1.2778
 3226TIP3    H231094   0.529   5.165   5.343  1.2787 -2.2458 -3.2702
 3227TIP3   OH231095   0.999   3.373   1.840  0.3586 -0.3563 -0.5269
 3227TIP3    H131096   0.912   3.344   1.813  0.2486 -1.4272  0.8648
 3227TIP3    H231097   1.057   3.343   1.770 -0.2373 -0.5971 -0.9291
 3228TIP3   OH231098   6.751   6.026  16.765  0.1843 -0.0407 -0.2311
 3228TIP3    H131099   6.810   6.095  16.735 -0.6151  0.4004 -0.8466
 3228TIP3    H231100   6.747   5.964  16.692 -1.8633  1.0947 -1.1844
 3229TIP3   OH231101   3.174   4.967   2.703 -0.5841  0.6034  0.2020
 3229TIP3    H131102   3.141   5.033   2.643  0.1274 -0.1059 -0.9941
 3229TIP3    H231103   3.100   4.908   2.718 -0.0389 -0.8427 -2.2695
 3230TIP3   OH231104   0.123   0.293  16.440 -0.1149  0.3815  0.3535
 3230TIP3    H131105   0.042   0.270  16.394  0.6092 -0.1076 -0.7173
 3230TIP3    H231106   0.187   0.305  16.370  1.4145 -1.8201  1.2659
 3231TIP3   OH231107   5.599   5.332  12.949  0.0764 -0.1209  0.0106
 3231TIP3    H131108   5.549   5.384  13.012 -0.4586  0.2850 -0.7322
 3231TIP3    H231109   5.687   5.326  12.986 -0.4126 -0.5102  1.1465
 3232TIP3   OH231110   1.538   1.916  17.057  0.8201  0.2628 -0.2956
 3232TIP3    H131111   1.560   1.966  16.979  1.6840  0.5426  0.1133
 3232TIP3    H231112   1.622   1.890  17.094  0.3921 -1.1881 -0.2833
 3233TIP3   OH231113   3.990   2.496   2.962  0.4052  0.2769  0.0709
 3233TIP3    H131114   4.042   2.416   2.949  0.9446  0.5265  0.6591
 3233TIP3    H231115   3.991   2.538   2.876 -2.6495 -1.9270 -1.2096
 3234TIP3   OH231116   5.555   5.959   5.019 -0.1329  0.1832  0.3038
 3234TIP3    H131117   5.597   5.909   5.089 -2.4121 -1.0750  0.8887
 3234TIP3    H231118   5.615   5.952   4.945  0.0627 -2.7966  0.6191
 3235TIP3   OH231119   6.021   4.519   5.172 -0.6984  0.1154  0.3567
 3235TIP3    H131120   6.063   4.434   5.190 -1.5739  0.2269  3.4103
 3235TIP3    H231121   5.970   4.504   5.092  2.5027 -0.9166 -1.6766
 3236TIP3   OH231122   3.891   2.177   0.583  0.7478  0.0169 -0.0026
 3236TIP3    H131123   3.807   2.145   0.550  1.2847 -0.6444 -0.7641
 3236TIP3    H231124   3.877   2.191   0.676  0.0557 -1.0049  0.0581
 3237TIP3   OH231125   4.683   0.651   1.671 -0.0163 -0.7054  0.3079
 3237TIP3    H131126   4.740   0.613   1.738  0.8045  0.3436  0.2221
 3237TIP3    H231127   4.632   0.717   1.718 -3.4530 -3.5683  1.1046
 3238TIP3   OH231128   0.047   4.712   3.396 -0.3647 -0.6865 -0.1336
 3238TIP3    H131129   0.068   4.757   3.314 -2.0358  0.0421 -0.2018
 3238TIP3    H231130   0.106   4.636   3.397  0.7713  0.1315 -1.2351
 3239TIP3   OH231131   5.007   0.292  11.271  0.6169 -0.3196 -0.4825
 3239TIP3    H131132   4.912   0.292  11.277  0.6141  2.1901  0.8371
 3239TIP3    H231133   5.036   0.242  11.347  0.3554 -0.5340 -0.5234
 3240TIP3   OH231134   6.280   5.157   2.123  0.5288 -0.6262  0.4461
 3240TIP3    H131135   6.203   5.107   2.096 -0.2127  0.2033  0.9734
 3240TIP3    H231136   6.347   5.091   2.140 -0.0162 -1.3510 -0.1663
 3241TIP3   OH231137   0.879   4.919   0.768 -0.1025 -0.0765 -0.2557
 3241TIP3    H131138   0.911   4.876   0.689 -2.7344 -0.3052 -1.2608
 3241TIP3    H231139   0.858   4.847   0.827  1.9507  0.0926  0.8053
 3242TIP3   OH231140   1.563   0.151  15.131  0.8278 -0.0665  0.1611
 3242TIP3    H131141   1.607   0.215  15.076  0.4248  1.0808  1.1226
 3242TIP3    H231142   1.551   0.196  15.215 -0.1229 -1.1467  0.6327
 3243TIP3   OH231143   0.981   6.714  15.788  0.0731 -0.0065  0.0923
 3243TIP3    H131144   0.904   6.657  15.782 -0.0357  0.2128 -0.6694
 3243TIP3    H231145   1.007   6.709  15.880 -0.5407 -0.4891  0.2477
 3244TIP3   OH231146   0.307   0.461   4.645 -0.3613  0.1571  0.2511
 3244TIP3    H131147   0.219   0.449   4.682  0.3216 -2.0438  1.3332
 3244TIP3    H231148   0.293   0.457   4.550 -1.5434  0.9564  0.3690
 3245TIP3   OH231149   6.258   0.121   2.843 -0.2140  0.3061 -0.1384
 3245TIP3    H131150   6.168   0.088   2.841 -0.0724 -0.4594  2.6009
 3245TIP3    H231151   6.306   0.062   2.784 -1.1785 -0.3734 -0.2684
 3246TIP3   OH231152   4.066   5.008   4.525 -0.5698  0.6318  0.3412
 3246TIP3    H131153   4.085   5.058   4.446 -0.3983 -0.4009 -0.2881
 3246TIP3    H231154   3.988   5.049   4.562 -0.0703  1.7382  0.1785
 3247TIP3   OH231155   4.030   0.187  14.158 -0.1653  0.2969 -0.0132
 3247TIP3    H131156   3.946   0.196  14.114 -0.0383 -1.3206 -0.6705
 3247TIP3    H231157   4.034   0.260  14.219 -0.9206  1.8634 -1.7669
 3248TIP3   OH231158   3.809   3.291  14.369  0.3148 -0.0339 -0.0169
 3248TIP3    H131159   3.748   3.343  14.316  0.0966 -1.4551 -1.2470
 3248TIP3    H231160   3.756   3.256  14.440  0.2991  0.7754  0.3890
 3249TIP3   OH231161   1.174   2.794  16.961 -0.2836 -0.0121  0.4333
 3249TIP3    H131162   1.152   2.798  17.054  1.7489 -0.9274  1.0118
 3249TIP3    H231163   1.251   2.851  16.952 -0.8098  0.5426 -0.8230
 3250TIP3   OH231164   0.185   3.536   0.509 -0.3898 -0.4586  0.2990
 3250TIP3    H131165   0.231   3.484   0.443  0.1047  1.7318 -1.1696
 3250TIP3    H231166   0.184   3.479   0.586  2.1495 -1.7712 -0.4983
 3251TIP3   OH231167   6.078   3.960   0.429 -0.0266  0.4032  0.1221
 3251TIP3    H131168   6.030   4.003   0.358 -0.4888  0.6961  0.5989
 3251TIP3    H231169   6.126   4.032   0.471  0.7315  0.1308 -0.2719
 3252TIP3   OH231170   4.111   1.424   0.726  0.4674 -0.3694  0.1615
 3252TIP3    H131171   4.062   1.352   0.767  0.3213 -0.2658  0.1695
 3252TIP3    H231172   4.049   1.463   0.665 -0.2685  1.3000  1.8887
 3253TIP3   OH231173   0.803   5.130   0.310 -0.0713  0.2147 -0.1126
 3253TIP3    H131174   0.764   5.215   0.293 -0.1170  0.2308  0.0739
 3253TIP3    H231175   0.893   5.138   0.276 -0.7666 -0.4280 -2.3079
 3254TIP3   OH231176   5.263   5.429  13.751  0.3094 -0.1878  0.0191
 3254TIP3    H131177   5.259   5.517  13.715 -2.0346  0.7202  2.1698
 3254TIP3    H231178   5.335   5.432  13.814  0.1188  0.2556  0.2185
 3255TIP3   OH231179   0.260   6.342  13.721 -0.3219  0.0083  0.0008
 3255TIP3    H131180   0.237   6.289  13.798  0.1188 -1.9309 -1.1262
 3255TIP3    H231181   0.266   6.278  13.650  1.6704  1.3823 -1.1509
 3256TIP3   OH231182   0.076   0.042  11.988 -0.1726  0.3600  0.0185
 3256TIP3    H131183   0.164   0.006  11.989 -0.8226 -1.4904 -1.8249
 3256TIP3    H231184   0.041   0.023  12.075  1.2314  1.2142  0.8048
 3257TIP3   OH231185   5.549   0.460  15.977 -0.9441 -0.1566  0.2360
 3257TIP3    H131186   5.496   0.500  15.909 -0.7093  0.4299  0.3862
 3257TIP3    H231187   5.582   0.534  16.028  0.2797 -0.4796 -0.0475
 3258TIP3   OH231188   5.394   0.862   6.022  0.2746  0.4866 -0.2014
 3258TIP3    H131189   5.396   0.941   6.077 -2.7733  0.7209 -0.2652
 3258TIP3    H231190   5.302   0.850   6.000  0.9193 -1.8448 -2.0875
 3259TIP3   OH231191   6.657   2.785   3.282 -0.2801 -0.2243  0.0677
 3259TIP3    H131192   6.687   2.829   3.362  0.6840 -1.9151  0.6818
 3259TIP3    H231193   6.562   2.796   3.283 -0.1097  1.5426  0.3381
 3260TIP3   OH231194   1.682   1.596   4.650  0.1675 -0.5190  0.0681
 3260TIP3    H131195   1.633   1.583   4.569 -0.9975 -1.2104  0.8455
 3260TIP3    H231196   1.615   1.616   4.716  1.1541  0.7195  0.7300
 3261TIP3   OH231197   2.584   6.392  12.771  0.2586  0.1144  0.1218
 3261TIP3    H131198   2.524   6.318  12.777  0.3462  0.0936  0.8121
 3261TIP3    H231199   2.665   6.360  12.809 -0.0126  0.8733  1.3967
 3262TIP3   OH231200   2.914   1.735   0.518  0.0528 -0.1616  0.1838
 3262TIP3    H131201   2.997   1.756   0.475  0.1140 -1.6497 -0.4868
 3262TIP3    H231202   2.940   1.689   0.598  0.0365 -4.8525 -2.1539
 3263TIP3   OH231203   3.737   5.485  11.872 -0.2541 -0.0531  0.3022
 3263TIP3    H131204   3.794   5.552  11.909  0.4570 -0.0942 -0.6748
 3263TIP3    H231205   3.706   5.523  11.790  1.8535 -1.6600 -1.3609
 3264TIP3   OH231206   0.477   2.391   5.084 -0.3658 -0.0570  0.4527
 3264TIP3    H131207   0.398   2.341   5.105 -0.8111  0.7193  0.6518
 3264TIP3    H231208   0.488   2.450   5.158 -0.3796  0.7979 -0.2212
 3265TIP3   OH231209   6.102   6.228  14.311 -0.0244  0.8012 -0.1109
 3265TIP3    H131210   6.164   6.201  14.243  0.8741 -1.4927  1.5035
 3265TIP3    H231211   6.020   6.186  14.286  0.3154 -0.0776  0.2342
 3266TIP3   OH231212   4.777   4.237   0.599 -0.0642  0.3280 -0.4641
 3266TIP3    H131213   4.684   4.222   0.584 -0.5591  1.5016  1.2177
 3266TIP3    H231214   4.811   4.153   0.629 -1.0832  0.4462  1.1055
 3267TIP3   OH231215   4.434   3.221   4.892  0.5178  0.7323  0.7088
 3267TIP3    H131216   4.495   3.171   4.839  0.0635 -0.4114  1.2326
 3267TIP3    H231217   4.459   3.312   4.878  1.1360  0.3951 -0.5505
 3268TIP3   OH231218   4.164   0.956  15.043  0.4782  0.0682 -0.8479
 3268TIP3    H131219   4.130   1.041  15.070  1.7279  0.6770 -1.0951
 3268TIP3    H231220   4.089   0.896  15.049 -0.1353  0.9350  0.4528
 3269TIP3   OH231221   5.461   5.146  15.554 -0.0583  0.5049 -0.4825
 3269TIP3    H131222   5.444   5.211  15.621 -2.5947 -0.5860  0.0533
 3269TIP3    H231223   5.546   5.108  15.577  0.5588  2.2724  0.2645
 3270TIP3   OH231224   5.765   5.133  15.921  0.0814  0.4100 -0.2202
 3270TIP3    H131225   5.783   5.185  15.843 -2.0336 -1.5439 -2.1764
 3270TIP3    H231226   5.840   5.075  15.929 -0.3048 -0.3490 -1.7280
 3271TIP3   OH231227   1.599   2.423   0.905 -0.5606  0.8745  0.3408
 3271TIP3    H131228   1.545   2.344   0.910 -1.3212  1.3587 -0.0010
 3271TIP3    H231229   1.689   2.391   0.901 -0.8870  0.0117 -0.2425
 3272TIP3   OH231230   4.903   3.059   4.864  0.3439 -0.4590 -0.3094
 3272TIP3    H131231   4.924   3.102   4.782  1.0775 -0.1298  0.0432
 3272TIP3    H231232   4.977   3.079   4.922 -0.9344  0.7937  0.9877
 3273TIP3   OH231233   5.483   6.728   4.608 -0.4957  0.0873  0.1962
 3273TIP3    H131234   5.493   6.729   4.512  0.4478  0.1457  0.2878
 3273TIP3    H231235   5.399   6.771   4.623 -1.0194 -0.6033 -0.6480
 3274TIP3   OH231236   6.456   5.418  14.203  0.2228  0.4509 -0.3423
 3274TIP3    H131237   6.487   5.328  14.194  0.5621  0.0550  3.2906
 3274TIP3    H231238   6.533   5.468  14.228 -0.2697  1.4797 -0.7867
 3275TIP3   OH231239   6.702   6.790   5.147  0.2449 -0.0145  0.7146
 3275TIP3    H131240   6.671   6.869   5.102  0.5642 -0.9447 -1.2039
 3275TIP3    H231241   6.623   6.737   5.160  0.0726  0.4724  1.7614
 3276TIP3   OH231242   5.136   0.930  15.218  0.4643 -0.1107  0.3718
 3276TIP3    H131243   5.215   0.910  15.268  0.6370  1.5766  0.8311
 3276TIP3    H231244   5.163   0.926  15.126  0.7009 -1.0100  0.4788
 3277TIP3   OH231245   1.454   6.272   5.687  0.3784  0.7507  0.4629
 3277TIP3    H131246   1.525   6.332   5.662  0.3293  0.9278  0.7407
 3277TIP3    H231247   1.467   6.257   5.780  1.3284 -0.9310  0.0907
 3278TIP3   OH231248   4.135   4.690  15.110 -0.4078 -0.8419 -0.0399
 3278TIP3    H131249   4.140   4.665  15.018  0.8883 -0.7455 -0.0119
 3278TIP3    H231250   4.041   4.687  15.131 -0.6988 -1.0427 -1.3025
 3279TIP3   OH231251   3.084   3.625   2.077  0.1334 -0.2373 -0.3765
 3279TIP3    H131252   3.031   3.553   2.112  1.6487 -1.9314 -1.3427
 3279TIP3    H231253   3.145   3.582   2.018  0.7201  1.9673 -1.4698
 3280TIP3   OH231254   2.674   6.345  10.932 -0.3098 -0.2235 -0.0929
 3280TIP3    H131255   2.703   6.329  11.022 -1.3345  1.9423  0.7174
 3280TIP3    H231256   2.744   6.311  10.877  0.3824 -1.5313  1.5291
 3281TIP3   OH231257   1.618   6.140   5.973  0.0048 -0.0405  0.0774
 3281TIP3    H131258   1.524   6.159   5.975  0.3780  1.9446  0.7547
 3281TIP3    H231259   1.654   6.190   6.046  1.8671  0.9003 -1.4142
 3282TIP3   OH231260   2.417   1.744  15.279  0.2501  0.0547 -0.1333
 3282TIP3    H131261   2.335   1.774  15.240  0.1632 -0.9698 -0.7793
 3282TIP3    H231262   2.399   1.655  15.308  1.1828 -0.2486 -0.4447
 3283TIP3   OH231263   0.864   5.729  11.238 -0.4332  0.2613  0.2718
 3283TIP3    H131264   0.949   5.773  11.240 -0.0830 -0.4067  1.3671
 3283TIP3    H231265   0.880   5.644  11.280 -1.1512 -0.8057 -1.4946
 3284TIP3   OH231266   1.395   1.564  13.227 -0.0711 -0.0208 -0.5528
 3284TIP3    H131267   1.395   1.485  13.173 -0.9417  0.2843 -1.0250
 3284TIP3    H231268   1.466   1.617  13.192 -0.6118  0.1625 -1.4018
 3285TIP3   OH231269   5.528   0.837  14.063  0.6080 -0.1840 -0.1434
 3285TIP3    H131270   5.600   0.848  14.125  0.1580 -0.0449  0.3626
 3285TIP3    H231271   5.469   0.774  14.105  0.0282  0.3269 -0.1701
 3286TIP3   OH231272   4.048   0.461  16.356  0.0663  0.1276  0.2340
 3286TIP3    H131273   3.982   0.470  16.425 -0.1697  0.5802 -0.0452
 3286TIP3    H231274   4.087   0.375  16.371 -0.4473 -0.0588  0.5259
 3287TIP3   OH231275   3.017   6.251  11.811  0.3532  0.1751  0.2214
 3287TIP3    H131276   3.068   6.219  11.737  0.9311  0.4644  0.4906
 3287TIP3    H231277   2.946   6.301  11.770  1.1104  0.9996 -0.1368
 3288TIP3   OH231278   1.635   4.309  14.425  0.4615  0.0423 -0.3623
 3288TIP3    H131279   1.598   4.302  14.338  0.4381 -2.2430 -0.2115
 3288TIP3    H231280   1.560   4.331  14.481 -0.5278 -3.0859 -0.2813
 3289TIP3   OH231281   1.741   0.547   1.053 -0.3908 -0.5246 -0.9095
 3289TIP3    H131282   1.814   0.484   1.046  0.6160  0.6159 -0.9493
 3289TIP3    H231283   1.775   0.616   1.109 -1.1309  0.4827 -1.6840
 3290TIP3   OH231284   0.728   2.570  12.904 -0.3804  0.4104 -0.1659
 3290TIP3    H131285   0.751   2.497  12.963  0.1025  2.8360  2.9362
 3290TIP3    H231286   0.812   2.609  12.881 -0.6365  0.0379 -1.8558
 3291TIP3   OH231287   5.563   0.499  11.541  0.0822 -0.2285  0.4752
 3291TIP3    H131288   5.628   0.430  11.522 -0.6824 -1.7453  2.9245
 3291TIP3    H231289   5.486   0.473  11.492  0.7944  0.7734 -1.2631
 3292TIP3   OH231290   5.261   0.670  16.985  0.0921 -0.2288  0.2228
 3292TIP3    H131291   5.189   0.720  16.945  0.5129  0.2729  0.0747
 3292TIP3    H231292   5.229   0.647  17.072 -0.0348  0.5042  0.3827
 3293TIP3   OH231293   5.015   0.405   1.830 -0.1736  0.0991  0.8479
 3293TIP3    H131294   4.969   0.362   1.759 -1.5549  1.6386  0.7466
 3293TIP3    H231295   5.061   0.478   1.789 -0.7045  0.7985  1.4511
 3294TIP3   OH231296   2.035   1.627   4.221  0.1339 -0.0334 -0.0437
 3294TIP3    H131297   2.080   1.553   4.262 -1.3704 -1.3427 -0.6535
 3294TIP3    H231298   2.017   1.597   4.132 -2.3580  0.2111  0.3157
 3295TIP3   OH231299   3.776   5.908   4.980 -0.1876 -0.4657  0.2269
 3295TIP3    H131300   3.841   5.920   5.049 -3.0533  2.5960  2.7378
 3295TIP3    H231301   3.774   5.992   4.934 -1.7824 -0.7456 -0.2800
 3296TIP3   OH231302   0.439   4.579   2.594 -0.5403  0.3495  0.3754
 3296TIP3    H131303   0.440   4.549   2.685 -3.2923 -1.3903 -0.0441
 3296TIP3    H231304   0.473   4.506   2.544  0.2350  1.0144 -0.0948
 3297TIP3   OH231305   5.327   0.808   4.631 -0.2468 -0.2031  0.3415
 3297TIP3    H131306   5.378   0.728   4.640 -1.8274 -1.4994 -1.3872
 3297TIP3    H231307   5.305   0.812   4.538  0.8524  2.9789  0.0833
 3298TIP3   OH231308   3.661   6.071  16.257 -0.3386 -0.2057 -0.0326
 3298TIP3    H131309   3.635   6.134  16.325 -1.3753  0.3782 -0.9498
 3298TIP3    H231310   3.691   6.126  16.184 -1.4475 -0.7583 -0.9193
 3299TIP3   OH231311   6.747   2.097   1.498 -0.1961 -0.8227 -0.7554
 3299TIP3    H131312   6.826   2.048   1.474 -0.4686 -1.5366 -0.2198
 3299TIP3    H231313   6.700   2.108   1.415  0.0380 -1.1698 -0.9366
 3300TIP3   OH231314   0.894   2.123   2.351 -0.0309 -0.0663 -0.0600
 3300TIP3    H131315   0.816   2.100   2.402  0.7390 -1.0463  0.7366
 3300TIP3    H231316   0.883   2.077   2.268  0.1625 -1.0447  0.4417
 3301TIP3   OH231317   2.955   2.970  13.500 -0.6866  0.2973  0.1630
 3301TIP3    H131318   3.041   2.977  13.541 -1.2161  0.1823  1.3349
 3301TIP3    H231319   2.972   2.979  13.407  0.5750  0.4544  0.3925
 3302TIP3   OH231320   6.500   0.618  14.357  0.4177  0.5721 -0.2602
 3302TIP3    H131321   6.511   0.710  14.333  2.1731  0.9995  1.9018
 3302TIP3    H231322   6.588   0.588  14.379 -0.3444 -1.2075  0.5372
 3303TIP3   OH231323   1.567   0.443   3.926  0.1027  0.4509  0.0187
 3303TIP3    H131324   1.601   0.373   3.981 -0.7200 -0.6214 -0.7768
 3303TIP3    H231325   1.623   0.443   3.848 -1.3738 -1.0644 -1.1216
 3304TIP3   OH231326   6.650   6.490  14.126  0.2552  0.2905  0.1476
 3304TIP3    H131327   6.643   6.487  14.222 -0.9338 -0.3761  0.0650
 3304TIP3    H231328   6.588   6.423  14.096  2.1727 -1.0396 -1.0444
 3305TIP3   OH231329   3.313   0.295  16.070 -0.2074 -0.5985  0.6788
 3305TIP3    H131330   3.242   0.358  16.056  1.0578  0.6349 -0.4830
 3305TIP3    H231331   3.282   0.215  16.027 -0.1412  0.4904 -1.5314
 3306TIP3   OH231332   0.511   2.056  16.901 -0.6634  0.0087 -0.1763
 3306TIP3    H131333   0.548   2.021  16.982  0.7868 -1.6617 -1.4869
 3306TIP3    H231334   0.417   2.038  16.908 -0.5871  0.0479  1.1903
 3307TIP3   OH231335   1.421   4.884   0.206 -0.2018  0.0434  0.0049
 3307TIP3    H131336   1.393   4.919   0.290  0.4270  1.0105 -0.1720
 3307TIP3    H231337   1.495   4.826   0.228 -0.4085 -0.1620  0.1667
 3308TIP3   OH231338   2.351   3.237  16.626  0.0031 -0.4745  0.1254
 3308TIP3    H131339   2.310   3.318  16.656 -0.1173  0.4460 -2.2911
 3308TIP3    H231340   2.441   3.243  16.657 -0.1687  0.2893  0.5081
 3309TIP3   OH231341   4.599   1.096   0.065 -0.2115  0.5140 -0.7872
 3309TIP3    H131342   4.565   1.008   0.051  2.0293 -0.4562 -0.5043
 3309TIP3    H231343   4.581   1.142  -0.017  0.2266 -0.7934 -1.6451
 3310TIP3   OH231344   5.944   5.942   2.857  0.2372 -0.2327 -0.5895
 3310TIP3    H131345   6.020   5.926   2.801  1.7271  1.9163  0.7002
 3310TIP3    H231346   5.869   5.927   2.800  1.6255 -0.9953 -2.3109
 3311TIP3   OH231347   0.669   0.888  11.416 -0.0567  0.1264  0.0665
 3311TIP3    H131348   0.724   0.910  11.492  0.9200 -1.4721 -0.1207
 3311TIP3    H231349   0.580   0.907  11.445  0.2248 -1.0091  1.8664
 3312TIP3   OH231350   6.424   3.734   2.602 -0.3282 -0.1230 -0.5514
 3312TIP3    H131351   6.329   3.723   2.602 -0.2543 -0.8030  0.1421
 3312TIP3    H231352   6.457   3.657   2.648  0.6742 -0.8030 -2.3371
 3313TIP3   OH231353   3.260   2.645   5.794  0.0599  0.6228  0.0772
 3313TIP3    H131354   3.217   2.609   5.717 -1.3221 -0.0062  1.1041
 3313TIP3    H231355   3.194   2.703   5.833  0.1648 -0.2239  1.5877
 3314TIP3   OH231356   4.890   3.718  12.896  0.3376 -0.5680 -0.6102
 3314TIP3    H131357   4.861   3.668  12.973  3.1422 -1.9976 -0.3340
 3314TIP3    H231358   4.914   3.804  12.931  0.5856 -0.8502 -0.0682
 3315TIP3   OH231359   4.534   4.033  11.293 -0.1115 -0.3198  0.0818
 3315TIP3    H131360   4.523   4.085  11.214 -1.9526 -1.2056 -0.3020
 3315TIP3    H231361   4.471   3.961  11.284  0.5383 -1.1684  1.7632
 3316TIP3   OH231362   2.982   3.419  15.808 -0.2077  0.5237 -0.5909
 3316TIP3    H131363   2.965   3.338  15.760  1.3063  0.8163 -1.7158
 3316TIP3    H231364   3.062   3.401  15.857 -0.4558  0.9959 -0.0043
 3317TIP3   OH231365   0.043   0.458  12.619  0.3329  0.3541 -0.4043
 3317TIP3    H131366   0.035   0.553  12.620 -1.2740  0.2423 -0.2706
 3317TIP3    H231367   0.058   0.436  12.527  0.1722  0.7030 -0.5147
 3318TIP3   OH231368   6.292   3.518   1.118  0.1138 -0.0940  0.0024
 3318TIP3    H131369   6.286   3.554   1.030  2.0751 -0.2188 -0.2335
 3318TIP3    H231370   6.253   3.585   1.174  0.3650  0.7342 -0.7944
 3319TIP3   OH231371   3.588   2.404  13.383 -0.0180  0.1571 -0.5700
 3319TIP3    H131372   3.652   2.473  13.364 -1.2552  1.3125 -0.6776
 3319TIP3    H231373   3.536   2.397  13.303 -0.7075 -0.0074 -0.1140
 3320TIP3   OH231374   2.389   0.756  14.169  0.1014 -0.5638 -0.0231
 3320TIP3    H131375   2.351   0.777  14.083  0.9924 -2.3189 -0.8871
 3320TIP3    H231376   2.351   0.671  14.191  1.9307 -1.3821  0.0590
 3321TIP3   OH231377   6.543   3.772  13.602 -0.6374 -0.1685 -0.3924
 3321TIP3    H131378   6.607   3.828  13.558  1.5528 -2.7030 -0.6744
 3321TIP3    H231379   6.579   3.760  13.690 -2.6414  1.1927  0.6862
 3322TIP3   OH231380   2.704   3.887  11.724  0.5900  0.2362 -0.3749
 3322TIP3    H131381   2.720   3.808  11.673  0.0807 -0.2671  0.2366
 3322TIP3    H231382   2.613   3.910  11.705  0.0282 -0.6112  1.1714
 3323TIP3   OH231383   2.889   3.859   1.826  0.4596  0.6266 -0.2572
 3323TIP3    H131384   2.907   3.850   1.732  0.2081 -0.3544 -0.2271
 3323TIP3    H231385   2.970   3.892   1.863  0.9950 -0.1979 -0.6458
 3324TIP3   OH231386   5.191   4.788   3.326 -0.2452 -0.3319  0.2364
 3324TIP3    H131387   5.253   4.728   3.368  1.5565  1.9092  0.9983
 3324TIP3    H231388   5.245   4.862   3.297 -2.1544  0.3533 -1.8452
 3325TIP3   OH231389   1.610   1.965  15.063  0.0581  0.2129 -0.6319
 3325TIP3    H131390   1.675   1.895  15.058 -0.0199  0.1994 -1.5172
 3325TIP3    H231391   1.579   1.961  15.154  0.1902 -0.7728 -0.6147
 3326TIP3   OH231392   3.497   5.936  15.018 -0.0981  1.0559 -0.3619
 3326TIP3    H131393   3.532   5.857  14.976 -0.3552  0.4583  0.5344
 3326TIP3    H231394   3.495   5.915  15.111  0.0008  2.1954 -0.0955
 3327TIP3   OH231395   3.984   3.527   2.734 -0.1398  0.3091 -0.6471
 3327TIP3    H131396   3.957   3.596   2.673  3.3668  1.8031 -0.7537
 3327TIP3    H231397   4.054   3.482   2.688 -0.3482 -1.4057  0.6392
 3328TIP3   OH231398   5.930   5.510  12.176 -0.1906  0.0603 -0.4305
 3328TIP3    H131399   5.905   5.538  12.264 -1.0647  0.4054 -0.7808
 3328TIP3    H231400   5.999   5.571  12.150 -0.4821  0.4578 -0.2832
 3329TIP3   OH231401   1.124   1.808  15.745 -0.0250 -0.2973 -0.5281
 3329TIP3    H131402   1.165   1.894  15.755  1.6686 -1.1890  0.8331
 3329TIP3    H231403   1.038   1.818  15.784  0.8898  0.3018  1.4857
 3330TIP3   OH231404   4.870   0.437  12.605 -0.4429 -0.2237  0.0684
 3330TIP3    H131405   4.864   0.508  12.541  1.1613  0.0824  0.2357
 3330TIP3    H231406   4.919   0.369  12.560  1.3088  0.2595  1.1710
 3331TIP3   OH231407   4.297   1.936  12.935  0.2745  0.3433 -0.1713
 3331TIP3    H131408   4.286   1.956  13.028 -1.3568 -1.3456  0.0472
 3331TIP3    H231409   4.309   1.841  12.932  1.7898  0.5244 -1.6096
 3332TIP3   OH231410   4.440   0.136  15.118  0.2804 -0.2620 -0.3158
 3332TIP3    H131411   4.357   0.107  15.081  1.2035 -0.6556 -2.2247
 3332TIP3    H231412   4.416   0.207  15.178 -1.4956 -1.0594 -0.0016
 3333TIP3   OH231413   1.476   6.234  16.898 -0.6195  0.2476 -0.1270
 3333TIP3    H131414   1.507   6.145  16.915 -1.1167  0.3091  1.2049
 3333TIP3    H231415   1.556   6.284  16.883 -0.3677 -0.5627 -1.7361
 3334TIP3   OH231416   4.516   3.515   0.898  0.4685  0.2146 -0.3693
 3334TIP3    H131417   4.577   3.489   0.968  1.4603 -0.4923 -1.4567
 3334TIP3    H231418   4.550   3.598   0.866 -1.1573  1.5937  1.2999
 3335TIP3   OH231419   3.570   6.560   2.289 -0.0002  0.1800  0.6682
 3335TIP3    H131420   3.579   6.466   2.302 -0.1093  0.0701 -0.0239
 3335TIP3    H231421   3.649   6.597   2.328 -0.2803 -0.1338  1.5591
 3336TIP3   OH231422   4.788   6.336   2.145  0.6294  0.4907 -0.2214
 3336TIP3    H131423   4.805   6.256   2.194  0.1246  1.5551  1.7991
 3336TIP3    H231424   4.727   6.386   2.200  0.2330  1.8741 -1.8298
 3337TIP3   OH231425   0.105   1.020   2.817 -0.5142  0.1277 -0.1797
 3337TIP3    H131426   0.191   1.035   2.778 -0.2364 -0.4570  0.1906
 3337TIP3    H231427   0.105   1.076   2.895  0.3696 -1.4064  0.9851
 3338TIP3   OH231428   2.057   0.670   0.918 -0.1627 -0.0458 -0.6243
 3338TIP3    H131429   2.076   0.763   0.926 -0.9144  0.0361  0.4214
 3338TIP3    H231430   1.969   0.667   0.882 -0.0156 -0.3597 -0.9598
 3339TIP3   OH231431   5.450   4.044  11.689  0.0596  0.0002  1.1590
 3339TIP3    H131432   5.490   4.038  11.603 -1.8136  3.9346 -0.2282
 3339TIP3    H231433   5.511   4.097  11.741  1.7623 -3.3102  2.8755
 3340TIP3   OH231434   2.892   2.186   1.929 -0.0064  0.3317 -0.2127
 3340TIP3    H131435   2.954   2.174   1.857 -2.0703 -0.2138 -2.0211
 3340TIP3    H231436   2.856   2.099   1.945 -0.8010  0.7350  0.2918
 3341TIP3   OH231437   5.405   1.581  14.326 -0.3022 -0.1897 -0.7547
 3341TIP3    H131438   5.313   1.605  14.334 -0.6337 -1.3790 -0.7560
 3341TIP3    H231439   5.408   1.488  14.350  1.2210  0.2954  1.2257
 3342TIP3   OH231440   3.075   0.421   0.750  0.0853 -0.1841 -0.2233
 3342TIP3    H131441   3.088   0.515   0.761 -0.1500  0.1307 -2.2547
 3342TIP3    H231442   3.073   0.386   0.839  0.8019  1.6377  0.5505
 3343TIP3   OH231443   5.783   6.557   5.027  0.2227  0.0220 -0.0748
 3343TIP3    H131444   5.707   6.605   5.060 -0.4612 -1.7104  1.0220
 3343TIP3    H231445   5.846   6.559   5.099  1.6020  2.0948 -1.2450
 3344TIP3   OH231446   5.736   1.568   1.009 -0.1028  0.4392  0.0648
 3344TIP3    H131447   5.710   1.488   0.961 -0.6846 -0.2099  1.4222
 3344TIP3    H231448   5.796   1.612   0.949 -1.0667 -0.1683 -1.4157
 3345TIP3   OH231449   4.362   6.770  10.899  0.0838  0.2382  0.0256
 3345TIP3    H131450   4.364   6.843  10.837  0.7586  0.3862  0.2115
 3345TIP3    H231451   4.449   6.730  10.892 -0.4978 -0.9694 -0.5630
 3346TIP3   OH231452   0.214   1.164  16.640 -0.0402  0.4529 -0.3214
 3346TIP3    H131453   0.228   1.257  16.620 -1.0468  0.4258 -1.2702
 3346TIP3    H231454   0.232   1.157  16.734 -0.5696  1.7525 -0.1001
 3347TIP3   OH231455   3.223   2.455  12.983  0.3104  0.4409 -0.1577
 3347TIP3    H131456   3.236   2.532  12.928 -0.5306  1.5276  1.1077
 3347TIP3    H231457   3.137   2.468  13.024  0.6337 -0.6221  0.9412
 3348TIP3   OH231458   2.373   2.827   0.161  0.7114  0.1006 -0.1177
 3348TIP3    H131459   2.433   2.822   0.236 -0.0990  2.1203  0.7236
 3348TIP3    H231460   2.430   2.836   0.085  1.5180 -0.4438  0.4085
 3349TIP3   OH231461   1.168   5.433   2.902 -0.1956 -0.1712  0.1377
 3349TIP3    H131462   1.126   5.427   2.988 -1.5562  1.0540 -0.3812
 3349TIP3    H231463   1.113   5.495   2.854  0.7697 -0.5253 -1.4845
 3350TIP3   OH231464   2.940   6.030   3.873 -0.3561 -0.2196  0.0737
 3350TIP3    H131465   2.846   6.020   3.858 -0.4046 -1.0633  0.8061
 3350TIP3    H231466   2.980   6.019   3.787 -0.6993 -3.3685  0.1871
 3351TIP3   OH231467   1.374   3.738  14.529 -0.5532 -0.2267 -0.5691
 3351TIP3    H131468   1.386   3.658  14.581  0.6226 -0.7889 -1.6631
 3351TIP3    H231469   1.393   3.712  14.439  1.0528  1.5507 -0.7986
 3352TIP3   OH231470   1.306   2.612   3.471  0.3730 -0.0940  0.3021
 3352TIP3    H131471   1.326   2.650   3.556 -0.6148  2.0870 -0.3596
 3352TIP3    H231472   1.384   2.560   3.448  0.2289 -1.6238  2.9318
 3353TIP3   OH231473   3.530   0.843  11.193 -0.1490 -0.1998  0.0329
 3353TIP3    H131474   3.571   0.924  11.222 -0.5944  0.0285  0.0301
 3353TIP3    H231475   3.569   0.827  11.107  0.5184 -0.4123  0.3617
 3354TIP3   OH231476   4.335   4.984  14.107  0.7247 -0.0745  0.5483
 3354TIP3    H131477   4.261   5.044  14.103 -0.2928 -1.3659 -1.5006
 3354TIP3    H231478   4.298   4.902  14.141  1.1414 -0.7969 -0.6902
 3355TIP3   OH231479   2.138   6.505   1.965 -0.2973  0.0094 -0.0889
 3355TIP3    H131480   2.201   6.481   2.033  2.1940  1.5173 -1.6952
 3355TIP3    H231481   2.145   6.435   1.900 -0.5530  0.0030 -0.1101
 3356TIP3   OH231482   3.272   3.423   5.298  0.2697  0.2281 -0.1722
 3356TIP3    H131483   3.210   3.490   5.271  0.7841  1.4023  1.4398
 3356TIP3    H231484   3.229   3.376   5.368  1.4625  1.6522  1.6077
 3357TIP3   OH231485   4.945   5.665  13.104 -0.0243  0.1375  0.0720
 3357TIP3    H131486   5.036   5.653  13.133 -0.4392 -2.4521  0.5191
 3357TIP3    H231487   4.920   5.580  13.068 -3.1796 -0.2192  2.5974
 3358TIP3   OH231488   4.907   5.418  11.193  0.5112 -0.0105  0.2215
 3358TIP3    H131489   4.926   5.511  11.195  1.8582 -0.2769  1.3959
 3358TIP3    H231490   4.989   5.378  11.162  0.0531 -0.8289  0.0405
 3359TIP3   OH231491   5.606   5.132  15.186  0.3107 -0.3556  0.1165
 3359TIP3    H131492   5.636   5.056  15.235 -1.8451  0.1722  2.4496
 3359TIP3    H231493   5.513   5.116  15.169  0.3617  0.7140 -1.4835
 3360TIP3   OH231494   3.099   3.513   5.545  0.4241 -0.7796  0.0814
 3360TIP3    H131495   3.110   3.555   5.631  1.0290  1.3456 -0.9556
 3360TIP3    H231496   3.005   3.517   5.528  0.6051  2.3172 -0.8930
 3361TIP3   OH231497   3.155   6.268   0.676 -0.2286 -0.5621  0.2562
 3361TIP3    H131498   3.215   6.194   0.690 -0.8951 -1.4315 -1.2214
 3361TIP3    H231499   3.112   6.248   0.593 -0.8155  1.2503  0.0857
 3362TIP3   OH231500   6.098   1.554  11.271  0.1449 -0.0384  0.6858
 3362TIP3    H131501   6.046   1.610  11.328 -0.9088  0.0154 -0.2824
 3362TIP3    H231502   6.172   1.608  11.243  0.4028  0.0887  1.5899
 3363TIP3   OH231503   2.344   2.757   3.973 -0.3492 -0.0418  0.9585
 3363TIP3    H131504   2.365   2.804   4.054 -1.9312 -1.1950  2.0863
 3363TIP3    H231505   2.269   2.804   3.937  0.3785  0.4979  0.0850
 3364TIP3   OH231506   3.500   5.755  15.567 -0.4555 -0.1070  0.4659
 3364TIP3    H131507   3.578   5.716  15.528 -0.1621  2.3531 -1.7120
 3364TIP3    H231508   3.428   5.702  15.533  0.0001  0.4289 -1.4651
 3365TIP3   OH231509   1.131   0.083   5.293  0.0566  0.1399  0.3158
 3365TIP3    H131510   1.050   0.031   5.301  0.2995 -0.0281  2.2139
 3365TIP3    H231511   1.110   0.166   5.335  1.2838 -0.4482  2.1935
 3366TIP3   OH231512   5.817   1.041   5.275 -0.2396 -0.0700 -0.6119
 3366TIP3    H131513   5.745   0.980   5.254  0.7597 -2.1731  1.5916
 3366TIP3    H231514   5.885   1.021   5.211 -0.0660 -1.0289 -0.1389
 3367TIP3   OH231515   3.173   0.247  14.188 -0.2194 -0.1295 -0.6307
 3367TIP3    H131516   3.255   0.229  14.142 -0.4625 -1.7206 -0.5098
 3367TIP3    H231517   3.106   0.207  14.132 -1.2321  2.9598 -1.8376
 3368TIP3   OH231518   2.587   3.702   6.223  0.2316 -0.2817 -0.1331
 3368TIP3    H131519   2.628   3.629   6.270 -0.5938 -0.2560  0.6521
 3368TIP3    H231520   2.589   3.775   6.285  0.3886  0.1572 -0.6495
 3369TIP3   OH231521   4.873   3.164   1.501  0.1831 -0.5801 -0.0487
 3369TIP3    H131522   4.800   3.190   1.445  1.6032 -0.1702 -1.7649
 3369TIP3    H231523   4.950   3.170   1.446  1.7304  0.2154  2.0582
 3370TIP3   OH231524   1.874   5.160  16.178  0.1813  0.1965 -0.4217
 3370TIP3    H131525   1.842   5.144  16.089 -1.6972  1.1503  0.0481
 3370TIP3    H231526   1.869   5.255  16.190  1.1959  0.1640  0.4290
 3371TIP3   OH231527   5.113   2.748  11.461 -0.0862 -0.1983  0.3425
 3371TIP3    H131528   5.028   2.770  11.424  0.0835 -0.1915 -0.0534
 3371TIP3    H231529   5.169   2.822  11.437 -0.4944  0.9014  2.5169
 3372TIP3   OH231530   2.878   6.237  12.654  0.6689 -0.0427 -0.5129
 3372TIP3    H131531   2.817   6.201  12.589 -0.5055 -0.1907  0.6210
 3372TIP3    H231532   2.922   6.309  12.609 -0.0120 -0.2277 -1.5042
 3373TIP3   OH231533   1.122   4.098   2.540  0.0657 -1.3091  0.2227
 3373TIP3    H131534   1.217   4.104   2.551  0.0385 -1.8684  0.8929
 3373TIP3    H231535   1.086   4.157   2.607 -0.0708  1.8445 -2.3833
 3374TIP3   OH231536   1.598   4.905   3.251  0.0280 -0.4364 -0.0471
 3374TIP3    H131537   1.642   4.982   3.288 -0.8546 -0.2716  0.6986
 3374TIP3    H231538   1.597   4.842   3.323  0.7151 -1.1423 -0.6427
 3375TIP3   OH231539   6.730   6.571  15.545  0.1365 -0.1844  0.0711
 3375TIP3    H131540   6.759   6.554  15.455  2.6655  0.8799  0.6137
 3375TIP3    H231541   6.638   6.546  15.545  0.6643 -2.5644 -2.1634
 3376TIP3   OH231542   6.300   2.376  11.198 -0.1260 -0.1130 -0.3690
 3376TIP3    H131543   6.205   2.363  11.192  0.0859 -2.1209  0.0612
 3376TIP3    H231544   6.320   2.367  11.291  0.5587 -0.2019 -0.5166
 3377TIP3   OH231545   5.965   3.868  13.772  0.3515 -0.1563 -0.4386
 3377TIP3    H131546   6.001   3.956  13.769 -0.8904  0.6440  3.1734
 3377TIP3    H231547   6.037   3.814  13.807  0.2610 -0.0158 -0.0354
 3378TIP3   OH231548   5.169   1.440   2.083 -0.1631  0.0008 -0.0628
 3378TIP3    H131549   5.083   1.420   2.048 -0.4117  0.1444  0.4623
 3378TIP3    H231550   5.222   1.363   2.062 -0.6613 -0.4892  0.4269
 3379TIP3   OH231551   5.462   6.226   5.090 -0.7396 -0.2977 -0.3774
 3379TIP3    H131552   5.517   6.151   5.068  1.3113  1.3803 -1.2973
 3379TIP3    H231553   5.408   6.241   5.012  0.7907  0.7657 -1.2826
 3380TIP3   OH231554   4.681   3.986   5.380 -0.1342 -0.1076  0.2546
 3380TIP3    H131555   4.728   3.904   5.393  0.3083  0.1391  0.2390
 3380TIP3    H231556   4.644   3.980   5.292  1.3266  0.3987 -0.4349
 3381TIP3   OH231557   3.917   3.180   0.834  0.1451  0.1584  0.5966
 3381TIP3    H131558   3.956   3.147   0.753 -0.4517 -0.6904  0.6357
 3381TIP3    H231559   3.989   3.223   0.879  0.2816  1.4373 -0.7772
 3382TIP3   OH231560   4.741   2.707   2.663 -0.3702  0.4853 -0.2119
 3382TIP3    H131561   4.721   2.643   2.595  1.8007 -1.5131  0.9096
 3382TIP3    H231562   4.687   2.681   2.738  0.2259  0.1894  0.1205
 3383TIP3   OH231563   1.839   5.443   0.074  0.0042 -0.4672  0.5298
 3383TIP3    H131564   1.822   5.498   0.150  0.1908  0.3690 -0.0253
 3383TIP3    H231565   1.909   5.488   0.026 -0.4078 -0.7552 -0.3658
 3384TIP3   OH231566   6.611   4.090  15.831 -0.2004  0.2387 -0.3754
 3384TIP3    H131567   6.687   4.148  15.823  0.6538 -0.8709 -0.6607
 3384TIP3    H231568   6.623   4.047  15.916  0.7198 -1.5751 -1.3771
 3385TIP3   OH231569   5.897   0.239  10.262 -0.2025 -0.1138  0.0076
 3385TIP3    H131570   5.909   0.334  10.267  0.0749 -0.1367 -0.1897
 3385TIP3    H231571   5.815   0.227  10.214 -0.1350  0.0228 -0.1432
 3386TIP3   OH231572   1.011   5.949  13.251 -0.5201 -0.1351 -0.1419
 3386TIP3    H131573   1.056   6.030  13.226 -0.1358 -0.3225 -0.0688
 3386TIP3    H231574   1.043   5.930  13.339 -1.3125  0.1253  0.2122
 3387TIP3   OH231575   3.859   5.810  14.520 -0.5412  0.5511  0.5955
 3387TIP3    H131576   3.845   5.729  14.471 -0.9447  0.6544  0.5299
 3387TIP3    H231577   3.779   5.819  14.573 -0.4682  0.8706  0.6514
 3388TIP3   OH231578   5.683   3.012   4.052  0.0837  0.1963 -0.4644
 3388TIP3    H131579   5.710   3.054   4.134 -0.4767 -0.6039  0.1405
 3388TIP3    H231580   5.599   3.052   4.031 -0.4991 -0.6822  0.1663
 3389TIP3   OH231581   5.510   2.862  10.491  0.4107  0.2999 -0.1619
 3389TIP3    H131582   5.477   2.792  10.548  0.0143  0.4739 -0.1731
 3389TIP3    H231583   5.569   2.818  10.430  0.6167  0.0665  0.2009
 3390TIP3   OH231584   0.902   1.504  13.482  0.0604 -0.0677 -0.3629
 3390TIP3    H131585   0.978   1.528  13.535  0.5119 -0.1431 -0.9715
 3390TIP3    H231586   0.901   1.568  13.411 -0.4292 -0.0831 -0.3726
 3391TIP3   OH231587   0.012   3.193   3.782 -0.6529  0.0772  0.2374
 3391TIP3    H131588   0.020   3.230   3.694 -0.1360 -0.4495  0.0550
 3391TIP3    H231589   0.062   3.111   3.779 -0.3335  0.2197  1.1166
 3392TIP3   OH231590   1.614   5.368   5.845  0.6772  0.6262 -0.5633
 3392TIP3    H131591   1.584   5.387   5.934  0.2010 -3.1100  0.2513
 3392TIP3    H231592   1.600   5.449   5.797 -0.7259  2.2616  2.3253
 3393TIP3   OH231593   2.671   6.294   5.159 -0.2730  0.4911 -0.3172
 3393TIP3    H131594   2.678   6.274   5.253 -1.8183  0.2398 -0.2431
 3393TIP3    H231595   2.762   6.301   5.130  0.2428 -0.4689  0.9756
 3394TIP3   OH231596   0.144   6.538   4.892  0.2248  0.5947  0.4707
 3394TIP3    H131597   0.176   6.509   4.978 -1.4100  1.1943  1.3412
 3394TIP3    H231598   0.127   6.631   4.904 -0.9014  0.4945 -0.2031
 3395TIP3   OH231599   0.925   5.912   1.115  0.4571  0.1103  0.0062
 3395TIP3    H131600   0.909   5.993   1.067  0.9001  0.8374  1.0640
 3395TIP3    H231601   0.860   5.913   1.186  1.0779  0.0038  0.5789
 3396TIP3   OH231602   2.418   0.747   3.564  0.0866  0.3230  0.0432
 3396TIP3    H131603   2.370   0.805   3.505  2.3203  1.1650 -1.0930
 3396TIP3    H231604   2.464   0.807   3.624  1.3178 -0.3028 -0.2421
 3397TIP3   OH231605   2.303   1.183   3.677 -0.4545 -0.4983  0.0921
 3397TIP3    H131606   2.309   1.198   3.583  0.4673  0.0267  0.2291
 3397TIP3    H231607   2.286   1.269   3.715  2.6422 -0.0027  0.6777
 3398TIP3   OH231608   3.192   1.668   3.016  0.3822  0.5945 -0.5096
 3398TIP3    H131609   3.135   1.606   3.060  2.3103 -0.5747  0.4559
 3398TIP3    H231610   3.141   1.749   3.012 -1.7473 -0.6910 -0.7709
 3399TIP3   OH231611   1.310   0.608  13.011 -0.1881 -0.7135  0.9166
 3399TIP3    H131612   1.256   0.629  13.087 -1.0670 -0.6869  0.3021
 3399TIP3    H231613   1.392   0.576  13.048 -0.6071 -0.7106  1.8773
 3400TIP3   OH231614   5.821   2.203   2.381  0.7506  0.5478 -0.7557
 3400TIP3    H131615   5.863   2.289   2.380 -0.0159  0.9934  1.1027
 3400TIP3    H231616   5.762   2.205   2.457  0.1514 -1.3611 -1.0940
 3401TIP3   OH231617   0.391   2.029  12.796 -0.0139  0.2303  0.4580
 3401TIP3    H131618   0.384   1.948  12.747  1.7904 -1.2090  2.3992
 3401TIP3    H231619   0.464   2.076  12.755  0.3076 -0.1261  0.6145
 3402TIP3   OH231620   4.602   2.422   2.979 -0.2947  0.1901 -0.6236
 3402TIP3    H131621   4.696   2.440   2.989 -0.5265  0.6128  1.1600
 3402TIP3    H231622   4.559   2.497   3.021 -1.5181  1.1532 -3.3430
 3403TIP3   OH231623   3.593   4.669   3.366  0.1219  0.3120 -0.3177
 3403TIP3    H131624   3.652   4.735   3.329  0.5231  0.2121  0.1348
 3403TIP3    H231625   3.527   4.655   3.298 -0.7403  2.1290  0.0795
 3404TIP3   OH231626   3.523   5.981   1.148 -0.2824 -0.1387  0.5933
 3404TIP3    H131627   3.435   5.944   1.146 -0.1919 -0.4152  1.3536
 3404TIP3    H231628   3.568   5.938   1.075 -0.7385 -0.0875  0.2778
 3405TIP3   OH231629   2.677   1.364   4.192  0.4244  0.6113 -0.8781
 3405TIP3    H131630   2.709   1.339   4.279  0.1740  1.5882 -0.5003
 3405TIP3    H231631   2.723   1.305   4.133 -2.0852 -2.6626  0.1193
 3406TIP3   OH231632   3.458   0.604  14.610 -0.1795 -0.5012  0.9044
 3406TIP3    H131633   3.444   0.566  14.523 -0.7268 -1.5566  1.4464
 3406TIP3    H231634   3.385   0.573  14.662 -2.1358  3.3095  0.7875
 3407TIP3   OH231635   3.637   0.387  14.659 -0.1814 -0.3216 -0.1360
 3407TIP3    H131636   3.703   0.362  14.595  0.8494  1.2049  0.2883
 3407TIP3    H231637   3.616   0.478  14.637 -1.2099 -0.3863  0.5271
 3408TIP3   OH231638   2.859   3.847   4.705 -0.2868  0.1602 -0.0161
 3408TIP3    H131639   2.920   3.909   4.744 -0.5760  1.1840 -1.1453
 3408TIP3    H231640   2.822   3.894   4.630 -0.2495 -1.5029 -1.1160
 3409TIP3   OH231641   1.645   1.182   5.465 -0.0514 -0.4168 -0.2040
 3409TIP3    H131642   1.716   1.192   5.402  0.4082 -1.4930  0.1199
 3409TIP3    H231643   1.651   1.091   5.495 -1.3975 -0.4592  0.0302
 3410TIP3   OH231644   2.988   4.886   4.962 -0.5867  0.1130 -0.3461
 3410TIP3    H131645   3.075   4.900   4.998 -0.0973 -1.6108 -0.7793
 3410TIP3    H231646   2.988   4.936   4.880  0.0971 -0.1006 -0.4839
 3411TIP3   OH231647   5.003   1.848  15.163  0.1087 -0.2003 -0.0692
 3411TIP3    H131648   4.926   1.905  15.168 -0.5810 -1.1164  0.0523
 3411TIP3    H231649   5.029   1.852  15.070 -0.4881 -0.3969 -0.2491
 3412TIP3   OH231650   0.591   1.693   4.036  0.4442  0.0335 -0.6631
 3412TIP3    H131651   0.675   1.651   4.055  1.0360  1.7980  1.0554
 3412TIP3    H231652   0.563   1.728   4.121 -2.3621 -1.0230 -1.0742
 3413TIP3   OH231653   6.267   2.925  12.989 -0.0812 -0.2535 -0.3118
 3413TIP3    H131654   6.354   2.921  12.950  0.6115  0.5865  1.0846
 3413TIP3    H231655   6.258   3.015  13.020 -0.8454 -0.7095  0.8881
 3414TIP3   OH231656   1.278   2.582   4.716  0.4411  0.2288 -0.2231
 3414TIP3    H131657   1.337   2.507   4.706  0.3582  0.0758  0.4130
 3414TIP3    H231658   1.193   2.544   4.735  0.4162  0.4837  0.1889
 3415TIP3   OH231659   0.402   2.572   2.510  0.2789 -0.2710  0.1568
 3415TIP3    H131660   0.326   2.529   2.551  0.3315  0.0471  0.5923
 3415TIP3    H231661   0.461   2.591   2.583  1.3642 -1.6611 -0.3242
 3416TIP3   OH231662   2.023   3.952  14.505  0.4016  0.3459 -0.6569
 3416TIP3    H131663   1.947   3.996  14.542  0.8702  0.5372  0.1011
 3416TIP3    H231664   2.098   3.993  14.548  0.8407 -1.7404  0.7012
 3417TIP3   OH231665   5.899   1.682  11.760  0.1307  0.3102 -0.4716
 3417TIP3    H131666   5.917   1.591  11.782 -1.0873 -0.5519 -2.6353
 3417TIP3    H231667   5.834   1.710  11.824  1.1588 -0.0386  0.7491
 3418TIP3   OH231668   1.495   1.232   3.415  0.0767 -0.2471 -0.5240
 3418TIP3    H131669   1.549   1.205   3.490 -1.8470 -0.7098  0.7717
 3418TIP3    H231670   1.455   1.314   3.443 -1.8685 -1.1999 -0.3672
 3419TIP3   OH231671   2.451   3.925  11.653 -0.8502  0.3434 -0.4016
 3419TIP3    H131672   2.437   4.017  11.630  0.3581  1.0777  1.5647
 3419TIP3    H231673   2.389   3.908  11.724 -1.8264 -0.7319 -1.4540
 3420TIP3   OH231674   6.326   2.259  11.483 -0.1885 -0.4768  0.1520
 3420TIP3    H131675   6.378   2.214  11.549  0.3626  1.6436  1.2359
 3420TIP3    H231676   6.239   2.219  11.490 -0.1733 -0.2545  2.2617
 3421TIP3   OH231677   6.655   6.539   3.208  0.3947  0.2501 -0.0586
 3421TIP3    H131678   6.684   6.629   3.217  2.8403 -0.6242  2.1330
 3421TIP3    H231679   6.722   6.497   3.154 -0.4609 -0.3763 -0.6664
 3422TIP3   OH231680   6.303   0.556   1.781 -0.1592 -0.2379 -0.1532
 3422TIP3    H131681   6.325   0.538   1.872 -0.7942 -0.7671 -0.0973
 3422TIP3    H231682   6.319   0.473   1.736 -3.0945 -1.0447  0.0956
 3423TIP3   OH231683   1.619   5.735   1.516 -0.0409  0.3070 -0.1415
 3423TIP3    H131684   1.704   5.732   1.473 -0.5975 -2.1815 -1.2177
 3423TIP3    H231685   1.600   5.829   1.525  1.7100  0.9226 -2.0882
 3424TIP3   OH231686   3.119   1.403   5.361  0.4624 -0.6673  0.3220
 3424TIP3    H131687   3.128   1.360   5.276  0.9034 -0.2885  0.1725
 3424TIP3    H231688   3.094   1.493   5.340 -1.1402 -1.0039  0.6552
 3425TIP3   OH231689   3.826   1.196   2.563 -0.1733  0.0208 -0.1285
 3425TIP3    H131690   3.867   1.183   2.477 -0.4921  0.3157 -0.3288
 3425TIP3    H231691   3.820   1.109   2.600 -0.2281 -0.1367 -0.4993
 3426TIP3   OH231692   4.827   0.256   0.175  0.0182 -0.0805 -0.4465
 3426TIP3    H131693   4.807   0.170   0.212  1.2286 -1.0425 -1.9436
 3426TIP3    H231694   4.883   0.238   0.100 -0.6440  1.9444 -1.4986
 3427TIP3   OH231695   3.224   5.608   3.695  0.3463 -0.4334 -0.1337
 3427TIP3    H131696   3.246   5.638   3.607  2.2614  1.3553  0.8661
 3427TIP3    H231697   3.135   5.573   3.687 -0.9603  2.9073 -2.0474
 3428TIP3   OH231698   3.873   2.910   5.825  0.2154 -0.4873 -0.1756
 3428TIP3    H131699   3.950   2.964   5.811 -0.5041  0.8948  0.9799
 3428TIP3    H231700   3.806   2.948   5.768 -0.2569 -0.2131  0.5407
 3429TIP3   OH231701   2.136   3.162   0.251 -0.0523  0.5853 -0.8768
 3429TIP3    H131702   2.119   3.252   0.224 -0.5620  1.1747  1.2396
 3429TIP3    H231703   2.053   3.116   0.236  0.1197  0.5280 -1.6793
 3430TIP3   OH231704   3.598   2.344  15.709  0.0262 -0.2011 -0.0041
 3430TIP3    H131705   3.572   2.288  15.636 -1.1340 -0.4836  0.6070
 3430TIP3    H231706   3.686   2.374  15.686 -0.4177 -0.0631 -1.6403
 3431TIP3   OH231707   2.401   2.335  12.603 -0.1096  0.0707 -0.2886
 3431TIP3    H131708   2.374   2.426  12.595  0.2109  0.4148  1.7707
 3431TIP3    H231709   2.417   2.323  12.697  3.1077 -1.1703 -0.8599
 3432TIP3   OH231710   0.403   6.812   3.547  0.1135 -0.1841  0.6448
 3432TIP3    H131711   0.339   6.873   3.583  0.3151 -0.9865  2.4842
 3432TIP3    H231712   0.471   6.868   3.509 -0.1077  0.7174  1.5491
 3433TIP3   OH231713   0.687   2.883   4.658  0.2929 -0.4681  0.0266
 3433TIP3    H131714   0.650   2.898   4.745  1.9575  0.2857  0.6579
 3433TIP3    H231715   0.698   2.971   4.621 -0.6909 -0.7946 -1.0971
 3434TIP3   OH231716   2.977   1.539   6.420  0.7070  0.1258 -0.7304
 3434TIP3    H131717   2.909   1.589   6.466  0.7651  0.5078 -1.0497
 3434TIP3    H231718   2.957   1.448   6.440  1.5388  0.3123  1.1815
 3435TIP3   OH231719   1.271   4.265   5.122  0.5901  0.2334  0.1301
 3435TIP3    H131720   1.204   4.275   5.054  0.0689 -0.3875  0.5321
 3435TIP3    H231721   1.272   4.349   5.167  0.7738  0.5733 -0.4936
 3436TIP3   OH231722   5.860   1.408   3.665 -0.3311  0.0503  0.2554
 3436TIP3    H131723   5.895   1.346   3.601  0.0292  2.8934 -2.5143
 3436TIP3    H231724   5.767   1.414   3.643 -0.0561  1.6120 -0.5986
 3437TIP3   OH231725   2.488   5.233   2.859 -0.2909  0.1255  0.1837
 3437TIP3    H131726   2.573   5.256   2.896  0.2759  1.0719 -1.5678
 3437TIP3    H231727   2.427   5.240   2.932  1.4020 -2.8807  2.0669
 3438TIP3   OH231728   1.643   4.245  12.591 -0.0193 -0.0571  0.1244
 3438TIP3    H131729   1.644   4.301  12.669  0.9465  0.4027 -0.2131
 3438TIP3    H231730   1.631   4.306  12.518  1.3817 -0.2413 -0.2728
 3439TIP3   OH231731   4.889   3.165  14.007 -0.2495 -0.1385  0.2909
 3439TIP3    H131732   4.936   3.211  14.076 -0.4732 -0.7457  0.8543
 3439TIP3    H231733   4.923   3.202  13.925  1.2528 -0.6122  0.6790
 3440TIP3   OH231734   3.574   6.308  11.003  0.0350  0.0538 -0.2921
 3440TIP3    H131735   3.662   6.279  10.977  0.5385 -1.0906  2.3547
 3440TIP3    H231736   3.590   6.388  11.053 -0.2930 -0.5726  0.8602
 3441TIP3   OH231737   5.660   0.554  14.279 -0.0184  0.2083  0.0855
 3441TIP3    H131738   5.716   0.618  14.235  1.9032 -0.7689  1.0031
 3441TIP3    H231739   5.609   0.514  14.208  0.7079  0.8576 -0.8230
 3442TIP3   OH231740   5.408   3.208   4.742  0.2719 -0.4890 -0.9981
 3442TIP3    H131741   5.399   3.160   4.824 -0.9960  1.6863  0.2462
 3442TIP3    H231742   5.373   3.150   4.675  0.2133 -1.8446  0.1675
 3443TIP3   OH231743   2.951   2.073  15.180 -0.5901  0.3366 -0.2516
 3443TIP3    H131744   2.877   2.059  15.120 -0.3018 -0.5458 -0.4158
 3443TIP3    H231745   3.022   2.019  15.144  0.2367  1.4077 -0.2619
 3444TIP3   OH231746   4.326   3.341  13.865  0.3000 -0.1522 -0.3438
 3444TIP3    H131747   4.247   3.292  13.843 -0.4386  0.4289  0.9229
 3444TIP3    H231748   4.394   3.274  13.876  0.0136 -0.6513 -1.4789
 3445TIP3   OH231749   4.930   6.757  13.834  0.1003  0.1823 -0.2002
 3445TIP3    H131750   4.870   6.735  13.905  1.4008 -0.8026  0.6524
 3445TIP3    H231751   4.910   6.694  13.765  0.3408 -0.3411  0.2002
 3446TIP3   OH231752   1.699   1.840   5.441  0.2709  0.5395 -0.4111
 3446TIP3    H131753   1.663   1.926   5.418 -1.7864 -0.8988 -3.0405
 3446TIP3    H231754   1.765   1.823   5.374 -1.6729 -1.2619 -1.9675
 3447TIP3   OH231755   0.843   3.500  11.397  0.3644 -0.0963  1.0346
 3447TIP3    H131756   0.895   3.485  11.476 -1.0881  0.3148  2.0896
 3447TIP3    H231757   0.752   3.489  11.424 -0.1698 -0.0525 -0.6081
 3448TIP3   OH231758   0.650   6.340  11.203  0.3809  0.2441  0.4937
 3448TIP3    H131759   0.585   6.270  11.205  0.5374  0.1142  1.1962
 3448TIP3    H231760   0.633   6.392  11.281  0.0696  1.1878 -0.1798
 3449TIP3   OH231761   3.096   3.288   0.210 -0.1345  0.0703 -0.1219
 3449TIP3    H131762   3.157   3.280   0.136 -0.3625  0.5344 -0.3660
 3449TIP3    H231763   3.053   3.203   0.216 -1.2425  0.4953 -1.5153
 3450TIP3   OH231764   1.582   3.952   5.960 -0.2537  0.1455  0.1161
 3450TIP3    H131765   1.675   3.946   5.981 -0.2782 -0.0765  0.1679
 3450TIP3    H231766   1.537   3.946   6.044 -0.2283  3.8919  0.5665
 3451TIP3   OH231767   1.699   1.086  11.749  0.4455 -0.1948  0.1653
 3451TIP3    H131768   1.735   1.008  11.706 -0.7191 -0.6724  0.0193
 3451TIP3    H231769   1.689   1.060  11.840  0.9585  0.1209  0.3176
 3452TIP3   OH231770   2.366   0.501   0.932  0.3609  0.3667 -0.2694
 3452TIP3    H131771   2.295   0.437   0.930  1.0934 -0.6208  2.2097
 3452TIP3    H231772   2.376   0.523   1.025  3.6710  0.0292 -0.4259
 3453TIP3   OH231773   5.577   4.257  11.040 -0.7900  0.6789 -0.2614
 3453TIP3    H131774   5.485   4.281  11.042 -0.7303  0.9267 -0.4512
 3453TIP3    H231775   5.577   4.162  11.046 -0.9857  0.7493  1.7078
 3454TIP3   OH231776   2.901   4.646   0.628 -0.1029  0.4732  0.1564
 3454TIP3    H131777   2.961   4.647   0.702 -0.6457  0.2298  0.6123
 3454TIP3    H231778   2.913   4.559   0.589 -0.4426  0.2679  0.4958
 3455TIP3   OH231779   1.591   2.481  15.071  0.0105  0.3201 -0.0118
 3455TIP3    H131780   1.610   2.466  14.978 -1.6449 -2.0961 -0.0493
 3455TIP3    H231781   1.629   2.405  15.116 -1.1151  0.3185  0.9987
 3456TIP3   OH231782   5.996   1.155  13.408 -0.0197  0.0272  0.4064
 3456TIP3    H131783   6.013   1.112  13.491 -1.0402 -1.6936 -0.2207
 3456TIP3    H231784   5.922   1.213  13.425 -1.0137 -1.2103  0.4758
 3457TIP3   OH231785   5.729   4.318   4.616  0.1052  0.2342 -0.4766
 3457TIP3    H131786   5.696   4.263   4.687  0.5185  0.5156 -0.0584
 3457TIP3    H231787   5.741   4.404   4.656  0.1903  0.4337 -0.9268
 3458TIP3   OH231788   1.253   1.681  11.221  0.7992  0.0027 -0.3013
 3458TIP3    H131789   1.212   1.679  11.307 -1.3299 -0.3054 -1.2529
 3458TIP3    H231790   1.288   1.593  11.209  1.1820  0.0730  0.2634
 3459TIP3   OH231791   6.578   0.146   5.388  0.1775  0.2573  0.1555
 3459TIP3    H131792   6.602   0.215   5.326  1.7807 -0.0224  0.4053
 3459TIP3    H231793   6.646   0.150   5.455 -0.2290 -0.9451  0.6719
 3460TIP3   OH231794   3.100   3.278  15.108 -0.2378 -0.6644  0.7404
 3460TIP3    H131795   3.150   3.200  15.083  1.2310  0.7835 -1.0231
 3460TIP3    H231796   3.035   3.288  15.039 -0.7141 -0.5643  1.1981
 3461TIP3   OH231797   0.356   3.859  11.609 -0.0328 -0.2715 -0.3941
 3461TIP3    H131798   0.355   3.877  11.703 -0.2890  0.5793 -0.5534
 3461TIP3    H231799   0.429   3.910  11.575  0.5834 -1.2233 -0.5479
 3462TIP3   OH231800   2.804   2.387  16.692 -0.4806 -0.2257  0.2348
 3462TIP3    H131801   2.736   2.388  16.625 -1.6638  0.3228  1.4101
 3462TIP3    H231802   2.878   2.432  16.651 -0.5572 -1.4413 -1.3034
 3463TIP3   OH231803   1.095   5.305   0.903 -0.2964 -0.3362  0.5523
 3463TIP3    H131804   1.115   5.237   0.839  0.1607  1.5346 -1.4138
 3463TIP3    H231805   1.008   5.283   0.935 -0.6074 -1.2634 -0.8411
 3464TIP3   OH231806   2.058   4.808  13.008 -1.1755  0.2698 -0.1789
 3464TIP3    H131807   2.137   4.859  13.025 -0.4033 -0.5020 -1.3296
 3464TIP3    H231808   2.051   4.748  13.082  0.2861 -0.8110 -0.8628
 3465TIP3   OH231809   5.494   0.416   3.566  0.2562  0.5980 -0.0087
 3465TIP3    H131810   5.563   0.363   3.606 -1.1207 -0.8408  0.6305
 3465TIP3    H231811   5.501   0.501   3.609  1.2161  0.2749  0.5087
 3466TIP3   OH231812   5.864   5.313   1.262 -0.9091  0.6962 -0.4863
 3466TIP3    H131813   5.813   5.316   1.342  0.1920  3.2875  0.2137
 3466TIP3    H231814   5.944   5.266   1.287 -0.4751  1.6839  0.0263
 3467TIP3   OH231815   0.546   1.672  15.458  0.0976 -0.0772 -0.0509
 3467TIP3    H131816   0.491   1.682  15.381 -0.2465  0.2588  0.2336
 3467TIP3    H231817   0.624   1.625  15.427 -1.2710 -2.4804 -0.0565
 3468TIP3   OH231818   2.538   0.062   3.995 -0.1351  0.1691  0.0483
 3468TIP3    H131819   2.518   0.119   4.070  0.9349 -0.5894  0.9382
 3468TIP3    H231820   2.572   0.121   3.928 -0.3914  0.7571  0.4243
 3469TIP3   OH231821   4.637   5.283   0.904 -0.3071  0.2390 -0.5619
 3469TIP3    H131822   4.555   5.259   0.947 -0.4269  0.5641 -0.6047
 3469TIP3    H231823   4.617   5.366   0.859  0.0154  0.2668 -0.6546
 3470TIP3   OH231824   1.082   1.086   6.256  0.1317 -0.1052 -0.3302
 3470TIP3    H131825   1.058   1.006   6.210  0.3171 -0.2489 -0.1799
 3470TIP3    H231826   1.177   1.092   6.246  0.1964 -0.2315  0.1839
 3471TIP3   OH231827   5.255   3.217  13.916 -0.2327  0.0799 -0.0601
 3471TIP3    H131828   5.218   3.302  13.940 -0.6307 -0.8943  3.2047
 3471TIP3    H231829   5.347   3.222  13.942 -0.6323 -0.9678  1.7003
 3472TIP3   OH231830   5.058   2.216   5.776 -0.0908  0.2711  0.0257
 3472TIP3    H131831   5.066   2.310   5.789  1.1391  0.6101 -2.4781
 3472TIP3    H231832   5.148   2.184   5.778 -0.5416 -1.0486  1.6694
 3473TIP3   OH231833   1.061   4.921   2.830  0.2612  0.4119  0.0910
 3473TIP3    H131834   1.122   4.849   2.813  0.8270 -0.2087  3.8144
 3473TIP3    H231835   0.974   4.881   2.827  0.3918  0.1674 -0.4214
 3474TIP3   OH231836   4.850   2.069  15.309 -0.2131  0.4656  0.0435
 3474TIP3    H131837   4.782   2.129  15.339 -0.7239  0.5910 -1.2614
 3474TIP3    H231838   4.830   1.986  15.352 -1.7428  0.2707 -0.9611
 3475TIP3   OH231839   4.126   2.351  12.679 -0.2226  0.3899 -0.2457
 3475TIP3    H131840   4.158   2.265  12.704  0.9204  0.7174 -0.4991
 3475TIP3    H231841   4.174   2.372  12.599  0.7839  1.9417  0.6904
 3476TIP3   OH231842   0.562   3.677  13.268  0.6204 -0.0212  0.3751
 3476TIP3    H131843   0.570   3.690  13.173  2.1418 -2.8154  0.0062
 3476TIP3    H231844   0.469   3.658  13.282  0.0159  2.2688 -0.2128
 3477TIP3   OH231845   0.457   3.829   2.000 -0.0484 -0.2325 -0.1781
 3477TIP3    H131846   0.545   3.856   1.975 -0.5230 -0.1757 -1.8845
 3477TIP3    H231847   0.400   3.866   1.933 -1.7091  1.8985  2.1943
 3478TIP3   OH231848   1.359   3.302  11.837 -0.3803 -0.6658 -0.7680
 3478TIP3    H131849   1.344   3.264  11.924 -0.6958  1.5966  0.2489
 3478TIP3    H231850   1.454   3.315  11.833 -0.5907  1.8781  0.5353
 3479TIP3   OH231851   1.626   3.497   1.894  1.0672 -0.1896 -0.6440
 3479TIP3    H131852   1.640   3.497   1.988 -0.6462  2.4428 -0.2988
 3479TIP3    H231853   1.608   3.405   1.873  0.4091 -0.6859  1.7756
 3480TIP3   OH231854   1.674   1.583  12.507 -0.6327 -0.2087 -0.5114
 3480TIP3    H131855   1.672   1.668  12.464 -1.5843 -0.8297 -1.7728
 3480TIP3    H231856   1.767   1.565  12.521 -0.3613  0.4822 -1.3622
 3481TIP3   OH231857   0.027   2.869  15.621  0.3326  0.2169 -0.2228
 3481TIP3    H131858   0.109   2.867  15.572  0.1770 -2.0572 -0.5238
 3481TIP3    H231859  -0.020   2.790  15.592 -1.0762  0.3945  1.4193
 3482TIP3   OH231860   4.944   1.090  13.927 -0.1987 -0.0561 -0.0365
 3482TIP3    H131861   4.954   1.002  13.891 -2.1058  0.0389 -0.9176
 3482TIP3    H231862   4.905   1.141  13.855 -0.6761  1.0751  0.9974
 3483TIP3   OH231863   5.237   2.271   0.847 -0.6861  0.5230 -0.6870
 3483TIP3    H131864   5.257   2.365   0.851  0.2538  0.3439 -0.9670
 3483TIP3    H231865   5.300   2.236   0.784  1.8844 -0.9984  2.4074
 3484TIP3   OH231866   5.088   0.345  12.035 -0.2542  0.2210  0.4139
 3484TIP3    H131867   5.170   0.364  12.080  0.5833 -1.5012 -0.3043
 3484TIP3    H231868   5.034   0.303  12.101  0.2622 -0.5880  0.3305
 3485TIP3   OH231869   2.281   5.177  14.655 -0.5073 -0.2528 -0.1653
 3485TIP3    H131870   2.333   5.169  14.734 -1.3809 -2.9467  0.2370
 3485TIP3    H231871   2.345   5.181  14.584  0.2564  0.4588  0.5483
 3486TIP3   OH231872   3.392   4.237  12.772  0.3547  0.0149 -0.3560
 3486TIP3    H131873   3.335   4.268  12.701 -1.6324  1.6385  1.7541
 3486TIP3    H231874   3.339   4.171  12.817  1.8131 -1.4079 -0.6645
 3487TIP3   OH231875   3.009   2.343  15.272 -0.0595  0.0577  0.0613
 3487TIP3    H131876   3.007   2.421  15.216 -1.9028 -0.0957 -0.1216
 3487TIP3    H231877   3.034   2.272  15.213  3.7533  0.7020  0.6060
 3488TIP3   OH231878   1.584   2.069  15.670  0.2986  0.1565 -0.4565
 3488TIP3    H131879   1.679   2.074  15.678  0.3800  0.3781 -1.3746
 3488TIP3    H231880   1.569   1.992  15.614 -0.1005 -0.2858  0.2528
 3489TIP3   OH231881   6.450   2.556   2.880  0.1123 -0.1486 -0.2453
 3489TIP3    H131882   6.489   2.492   2.940 -2.4138 -1.9115 -0.3144
 3489TIP3    H231883   6.401   2.503   2.818 -1.4766  1.8561 -0.7974
 3490TIP3   OH231884   1.997   4.544   4.954 -0.0152  0.1700  0.4331
 3490TIP3    H131885   1.987   4.639   4.952 -0.5399  0.2004  2.6444
 3490TIP3    H231886   1.914   4.511   4.918  0.1731  0.5132 -0.3539
 3491TIP3   OH231887   5.178   0.078  10.667 -0.1438  0.6150 -0.0370
 3491TIP3    H131888   5.217  -0.009  10.658  1.7664  1.5169 -0.9827
 3491TIP3    H231889   5.115   0.084  10.595 -0.3125  0.0304  0.0533
 3492TIP3   OH231890   0.558   5.952   5.347 -0.2966 -0.0872 -0.1577
 3492TIP3    H131891   0.486   6.011   5.368  0.0276  0.6551 -1.0514
 3492TIP3    H231892   0.533   5.912   5.264  0.4116  0.3686 -0.6085
 3493TIP3   OH231893   2.240   5.559   4.843 -0.1670  0.3939 -0.3339
 3493TIP3    H131894   2.211   5.485   4.896 -1.1597  0.9781 -0.0319
 3493TIP3    H231895   2.320   5.528   4.800 -1.3764 -1.3800 -1.4264
 3494TIP3   OH231896   5.263   0.549  14.922  0.5343  0.7525 -0.4708
 3494TIP3    H131897   5.229   0.533  15.010  1.9271  0.3412  0.0156
 3494TIP3    H231898   5.335   0.487  14.912 -0.3664 -0.0849 -2.3862
 3495TIP3   OH231899   4.767   3.263   0.874  0.4505  0.4940  0.2041
 3495TIP3    H131900   4.803   3.206   0.806 -1.6823  1.7711 -2.1678
 3495TIP3    H231901   4.832   3.333   0.883  2.3228 -1.3059  2.0087
 3496TIP3   OH231902   4.906   0.302   5.250  0.1907  1.1259 -0.2101
 3496TIP3    H131903   4.864   0.387   5.264 -0.4902  1.1888 -2.2725
 3496TIP3    H231904   4.833   0.244   5.225  0.8915  0.3847 -0.5645
 3497TIP3   OH231905   3.139   6.552  11.552  0.3546  0.2717 -0.4522
 3497TIP3    H131906   3.130   6.615  11.623 -0.1231 -0.5578  0.2512
 3497TIP3    H231907   3.211   6.496  11.579 -0.5241 -0.7123 -0.0706
 3498TIP3   OH231908   5.253   0.021  15.547  0.1098  0.1733 -0.2162
 3498TIP3    H131909   5.326   0.044  15.488  1.5814 -0.5187  1.2632
 3498TIP3    H231910   5.199  -0.039  15.496  0.1709  1.2359 -1.5959
 3499TIP3   OH231911   6.268   5.032   5.210  0.5321 -0.0464  0.3389
 3499TIP3    H131912   6.181   5.058   5.240  1.4965  1.2075  2.2914
 3499TIP3    H231913   6.276   5.070   5.122 -0.0459  1.8811  1.0780
 3500TIP3   OH231914   6.362   3.823  11.295  0.4101  0.5194 -0.4570
 3500TIP3    H131915   6.381   3.890  11.360 -0.4150  0.8698 -0.5608
 3500TIP3    H231916   6.306   3.867  11.231  0.1570 -0.1692 -0.7179
 3501TIP3   OH231917   2.391   5.447  12.059 -0.5510 -0.3740 -0.4447
 3501TIP3    H131918   2.396   5.502  12.137 -2.7074 -0.2470 -0.3208
 3501TIP3    H231919   2.481   5.420  12.042  0.1137  0.5196  1.4168
 3502TIP3   OH231920   6.680   4.176  16.719 -0.9234 -0.6611 -0.2236
 3502TIP3    H131921   6.763   4.144  16.755 -0.9386  1.5677  2.1464
 3502TIP3    H231922   6.654   4.110  16.656  2.3044 -1.7915 -0.5698
 3503TIP3   OH231923   4.807   0.423   4.156 -0.1038 -0.2020 -0.0990
 3503TIP3    H131924   4.861   0.492   4.117 -1.5681  0.9554 -0.1699
 3503TIP3    H231925   4.866   0.377   4.216  1.0545  0.7356 -0.4790
 3504TIP3   OH231926   3.889   5.089  16.583  0.3710 -0.4985 -0.4780
 3504TIP3    H131927   3.962   5.029  16.568  0.4227 -0.1147 -1.8342
 3504TIP3    H231928   3.905   5.162  16.524 -0.5358  0.1174  0.0119
 3505TIP3   OH231929   0.012   3.775  14.817 -0.5225 -0.0825  0.0279
 3505TIP3    H131930  -0.060   3.731  14.772 -0.2917 -0.4365 -0.0020
 3505TIP3    H231931  -0.026   3.806  14.899 -0.9148  0.4510 -0.3495
 3506TIP3   OH231932   6.696   5.833  16.549  0.2485 -0.2001  0.3616
 3506TIP3    H131933   6.653   5.755  16.514 -0.5855  0.2537  0.3664
 3506TIP3    H231934   6.734   5.876  16.472  1.1276 -0.8520  0.4165
 3507TIP3   OH231935   1.781   3.467  16.529 -0.3635  0.3198 -0.3079
 3507TIP3    H131936   1.845   3.435  16.465 -1.5769  0.1544 -1.4769
 3507TIP3    H231937   1.778   3.561  16.515 -0.3711  0.3279 -0.2500
 3508TIP3   OH231938   1.433   4.326  13.672  0.2226 -0.7631  0.0502
 3508TIP3    H131939   1.503   4.289  13.617 -0.4833 -1.1433 -0.6201
 3508TIP3    H231940   1.457   4.417  13.684  0.9473 -0.9433  0.0027
 3509TIP3   OH231941   3.122   3.603   5.141 -0.1821  0.9701 -0.3087
 3509TIP3    H131942   3.091   3.685   5.101 -2.0264 -0.1794 -1.3519
 3509TIP3    H231943   3.045   3.565   5.182  0.0522 -1.3800 -1.8601
 3510TIP3   OH231944   1.302   1.343  15.081  0.5255 -0.2189  0.0832
 3510TIP3    H131945   1.394   1.358  15.059  0.2038  1.0597 -0.5016
 3510TIP3    H231946   1.281   1.412  15.144  0.3464 -1.4107  1.3813
 3511TIP3   OH231947   6.276   0.409   0.611 -0.3403 -0.8124  0.4798
 3511TIP3    H131948   6.342   0.472   0.642 -0.3790 -0.7309  0.3984
 3511TIP3    H231949   6.229   0.456   0.541  0.5050 -1.4049 -0.5034
 3512TIP3   OH231950   5.378   5.375  14.940 -0.0846  0.6525 -0.2678
 3512TIP3    H131951   5.352   5.310  15.005 -1.0064  0.4575 -0.8021
 3512TIP3    H231952   5.302   5.381  14.882  0.7453  0.7692 -1.3627
 3513TIP3   OH231953   4.344   3.763   4.617  0.0822 -0.3503  0.2265
 3513TIP3    H131954   4.352   3.696   4.549  0.7020 -0.0742  0.0180
 3513TIP3    H231955   4.346   3.714   4.699  0.5908 -0.5821  0.0773
 3514TIP3   OH231956   6.125   1.747   3.476 -0.2381  0.3977  0.1020
 3514TIP3    H131957   6.206   1.717   3.435 -0.8254  0.4421 -1.1175
 3514TIP3    H231958   6.145   1.836   3.506  0.2296  0.3328 -0.0115
 3515TIP3   OH231959   2.167   2.382   1.452  0.6218  0.1073 -0.1457
 3515TIP3    H131960   2.242   2.343   1.497 -0.9129 -1.3405  1.2915
 3515TIP3    H231961   2.139   2.454   1.509  1.3908  1.1871 -1.0988
 3516TIP3   OH231962   1.318   0.038  13.970  0.5781 -0.5567  0.3637
 3516TIP3    H131963   1.290   0.121  13.932  0.5649 -0.4320  0.6430
 3516TIP3    H231964   1.314   0.052  14.064  0.7089 -0.8307  0.4123
 3517TIP3   OH231965   1.560   3.535   4.992  0.2406  0.2322 -0.3685
 3517TIP3    H131966   1.624   3.467   4.970  0.0320  0.2209 -0.9573
 3517TIP3    H231967   1.475   3.492   4.979  0.1023  0.2295  0.4557
 3518TIP3   OH231968   4.713   3.926   4.797 -0.1868  0.7444 -0.0336
 3518TIP3    H131969   4.785   3.875   4.836 -0.5024 -0.0422 -0.4508
 3518TIP3    H231970   4.743   4.017   4.801 -0.4764  0.8190  2.6818
 3519TIP3   OH231971   6.378   4.949   0.848  0.3042  0.3647  0.6601
 3519TIP3    H131972   6.362   4.923   0.938  0.9776  1.3287  1.0760
 3519TIP3    H231973   6.469   4.925   0.831  0.3816  0.7800  0.4638
 3520TIP3   OH231974   1.000   6.521  14.739 -0.4408 -0.0506  0.1953
 3520TIP3    H131975   0.956   6.470  14.807  2.1647 -1.1471  1.2067
 3520TIP3    H231976   1.093   6.520  14.765  0.2398  2.0324 -1.8161
 3521TIP3   OH231977   1.467   2.917   0.597  0.6987 -0.5091 -0.6744
 3521TIP3    H131978   1.416   2.867   0.660 -0.4279  2.2496  0.7751
 3521TIP3    H231979   1.558   2.904   0.624  0.2188  1.3044  2.2402
 3522TIP3   OH231980   4.202   4.779   2.725  0.5822 -0.4945  0.1333
 3522TIP3    H131981   4.129   4.748   2.672  3.4368 -2.9342 -2.7533
 3522TIP3    H231982   4.211   4.871   2.703  0.0992 -0.8547 -1.7209
 3523TIP3   OH231983   0.220   0.815  11.739  0.4757 -0.2518 -0.1769
 3523TIP3    H131984   0.184   0.738  11.782 -1.4566  1.1285  0.8577
 3523TIP3    H231985   0.156   0.839  11.672  1.0982  0.3940 -0.5683
 3524TIP3   OH231986   1.567   3.956  13.029 -0.3103  1.0693  0.2513
 3524TIP3    H131987   1.504   3.952  13.102 -2.2102 -0.5276 -1.3647
 3524TIP3    H231988   1.530   4.022  12.970 -0.0765  0.6552 -0.3596
 3525TIP3   OH231989   1.080   4.863   3.131 -0.2235 -0.1556 -0.6946
 3525TIP3    H131990   1.096   4.886   3.040  0.0035 -2.1983 -1.2226
 3525TIP3    H231991   1.025   4.785   3.127  0.1393 -0.5329  0.8928
 3526TIP3   OH231992   1.688   2.854  17.003  0.2998  0.0828  0.3260
 3526TIP3    H131993   1.676   2.768  17.042 -1.2722 -0.3558 -0.9841
 3526TIP3    H231994   1.782   2.870  17.008  0.6591 -1.7938  0.4224
 3527TIP3   OH231995   3.910   3.365   5.258 -0.2272 -0.4348  0.2613
 3527TIP3    H131996   3.934   3.446   5.212  4.5797 -0.5784  1.8993
 3527TIP3    H231997   3.970   3.299   5.224 -1.0902 -2.2050  1.9717
 3528TIP3   OH231998   6.531   6.437  14.856 -0.1264  0.1481  0.0385
 3528TIP3    H131999   6.570   6.429  14.944 -1.8046  0.2100  0.8245
 3528TIP3    H232000   6.467   6.366  14.852  0.0033  0.0781 -1.2040
 3529TIP3   OH232001   6.041   3.716   3.246 -0.0894  0.2678  0.0751
 3529TIP3    H132002   6.008   3.717   3.336  1.1165  1.2280  0.5291
 3529TIP3    H232003   6.112   3.652   3.247  0.2203  0.6094 -0.0916
 3530TIP3   OH232004   1.030   4.024  13.127  0.0150 -0.0448  0.2296
 3530TIP3    H132005   1.101   4.056  13.071 -0.5428 -0.3547 -0.6679
 3530TIP3    H232006   1.033   4.082  13.204  0.2203  0.9743 -0.5203
 3531TIP3   OH232007   2.670   0.639  13.665 -0.0080 -0.4083  0.2198
 3531TIP3    H132008   2.653   0.546  13.674 -2.5874 -0.5291 -3.4706
 3531TIP3    H232009   2.721   0.647  13.584 -1.2821  1.3641 -0.5012
 3532TIP3   OH232010   1.382   6.380  15.721  0.1172  0.1639 -0.1700
 3532TIP3    H132011   1.433   6.298  15.723 -1.0183 -0.6367 -1.7955
 3532TIP3    H232012   1.291   6.351  15.716 -0.3190  1.5485 -0.6069
 3533TIP3   OH232013   2.819   6.635  15.564  0.2050  0.6887 -0.0517
 3533TIP3    H132014   2.813   6.676  15.478 -0.8335 -0.8173 -0.7263
 3533TIP3    H232015   2.910   6.649  15.590  0.4933  1.3175 -1.3011
 3534TIP3   OH232016   3.221   4.728  11.050  0.0258 -0.1904  0.3207
 3534TIP3    H132017   3.279   4.695  10.981  0.2277 -3.6464  1.9525
 3534TIP3    H232018   3.132   4.711  11.017 -0.0638  1.8235 -0.6512
 3535TIP3   OH232019   5.578   1.409   2.954  0.0598  0.2172  0.2010
 3535TIP3    H132020   5.620   1.421   3.040  0.4817  0.4697 -0.0386
 3535TIP3    H232021   5.498   1.462   2.959 -0.2145 -0.2337  0.6458
 3536TIP3   OH232022   2.653   2.811   1.989  0.2784  0.7309  0.4015
 3536TIP3    H132023   2.667   2.753   1.914 -1.0798 -0.1427  0.7735
 3536TIP3    H232024   2.704   2.772   2.060  0.9930  1.1551  0.1271
 3537TIP3   OH232025   4.459   0.938   4.003  0.0118 -0.1017  0.6082
 3537TIP3    H132026   4.510   0.998   4.057  1.1709  0.5733 -1.1437
 3537TIP3    H232027   4.507   0.855   4.009  0.2533  0.0265  0.4418
 3538TIP3   OH232028   5.209   5.038   5.440  0.1940 -0.2415  0.1195
 3538TIP3    H132029   5.156   4.960   5.420 -1.2350  0.6114  0.4256
 3538TIP3    H232030   5.272   5.008   5.506 -0.0624 -1.2327 -0.0692
 3539TIP3   OH232031   3.287   1.394  14.112  0.0842 -0.1499  0.0251
 3539TIP3    H132032   3.335   1.476  14.125  0.2823 -0.5493  2.0920
 3539TIP3    H232033   3.351   1.325  14.126 -0.2382 -0.6928 -1.0278
 3540TIP3   OH232034   4.715   0.970  10.436 -0.2400  0.3983 -0.1725
 3540TIP3    H132035   4.742   1.018  10.358  0.5578  2.1106  1.1041
 3540TIP3    H232036   4.736   0.879  10.416  0.4097  0.8640 -1.7539
 3541TIP3   OH232037   6.142   1.658  13.205  0.1874  0.5399 -0.6053
 3541TIP3    H132038   6.048   1.675  13.215  0.5865  3.3080 -0.8711
 3541TIP3    H232039   6.147   1.597  13.132 -1.3684  0.9627 -1.1173
 3542TIP3   OH232040   1.116   1.393  15.544 -0.9255  0.0882  0.1638
 3542TIP3    H132041   1.182   1.434  15.600  0.2208 -1.2028 -0.2158
 3542TIP3    H232042   1.037   1.444  15.561 -0.3392  0.4410  2.1042
 3543TIP3   OH232043   0.602   5.849  13.341  0.0213  0.0891 -0.0190
 3543TIP3    H132044   0.609   5.925  13.283 -3.6843  0.6708  0.0977
 3543TIP3    H232045   0.655   5.873  13.417  1.1995  1.2904 -1.1374
 3544TIP3   OH232046   6.172   4.985  13.742 -0.2979 -0.3963 -0.0343
 3544TIP3    H132047   6.114   5.027  13.679 -1.4035  0.3111  1.4090
 3544TIP3    H232048   6.243   5.048  13.755 -0.9512  0.2075  0.6765
 3545TIP3   OH232049   2.347   1.872  10.804 -0.2794  0.3878 -0.2455
 3545TIP3    H132050   2.352   1.798  10.744  0.6872  0.5973 -0.4374
 3545TIP3    H232051   2.286   1.843  10.872  0.1852 -0.6403 -0.2389
 3546TIP3   OH232052   6.356   0.306  13.422  0.5299  0.3218 -0.5908
 3546TIP3    H132053   6.411   0.233  13.393 -0.2208 -0.6518  0.3439
 3546TIP3    H232054   6.375   0.315  13.515 -0.5928  0.2175 -0.3343
 3547TIP3   OH232055   2.682   1.507   6.264  0.3873  0.7559 -0.0004
 3547TIP3    H132056   2.653   1.493   6.354  0.4448  0.7053  0.0106
 3547TIP3    H232057   2.626   1.450   6.212 -1.6682  2.9331 -0.3316
 3548TIP3   OH232058   3.490   2.022   0.072 -0.1134  0.1239 -0.2736
 3548TIP3    H132059   3.502   2.001  -0.021 -1.6355  1.9028 -0.9067
 3548TIP3    H232060   3.404   2.064   0.077 -0.0530  0.0867  1.9506
 3549TIP3   OH232061   3.603   3.068  16.172 -0.3441 -0.2006 -0.0675
 3549TIP3    H132062   3.654   2.998  16.131 -0.5586  0.1125 -0.8809
 3549TIP3    H232063   3.662   3.143  16.175 -0.9376  0.3727 -1.6459
 3550TIP3   OH232064   4.251   5.810   1.544 -0.1975 -0.2966 -0.4351
 3550TIP3    H132065   4.264   5.899   1.511 -1.8877  0.6246  1.2442
 3550TIP3    H232066   4.191   5.769   1.482  1.3711 -0.6782 -1.7809
 3551TIP3   OH232067   5.088   3.613   0.565  0.2018 -0.0842  0.1459
 3551TIP3    H132068   5.031   3.668   0.510  0.2755  0.1747  0.3298
 3551TIP3    H232069   5.111   3.540   0.508  0.1898  0.1276 -0.1383
 3552TIP3   OH232070   2.988   6.471   0.392 -0.2632 -0.0844 -0.2956
 3552TIP3    H132071   2.942   6.445   0.313  1.9996 -0.8781 -1.4333
 3552TIP3    H232072   3.024   6.390   0.427 -1.2157  0.2500  1.6019
 3553TIP3   OH232073   0.582   1.067  16.461  0.1640 -0.7486 -0.8968
 3553TIP3    H132074   0.526   0.994  16.435  1.2311 -1.8639 -0.1798
 3553TIP3    H232075   0.647   1.073  16.391  0.7014 -1.1723 -0.4330
 3554TIP3   OH232076   2.928   5.525   1.752  0.5609 -0.1381 -0.2251
 3554TIP3    H132077   3.016   5.546   1.720 -0.0143  0.3412 -1.5496
 3554TIP3    H232078   2.937   5.438   1.792  2.0646  0.7550  1.5408
 3555TIP3   OH232079   5.601   4.909  13.451 -0.2054  0.0127  0.3763
 3555TIP3    H132080   5.602   4.929  13.357  1.3364 -0.0314  0.3562
 3555TIP3    H232081   5.682   4.859  13.465  0.1566  1.0008  1.9411
 3556TIP3   OH232082   5.221   5.224  11.367  0.2466 -0.2737 -0.6668
 3556TIP3    H132083   5.214   5.316  11.395 -0.7148 -1.0329  1.8827
 3556TIP3    H232084   5.132   5.190  11.376  0.7875 -1.7171 -0.5504
 3557TIP3   OH232085   6.438   4.829  16.976  0.8052  0.5163 -0.1002
 3557TIP3    H132086   6.348   4.821  16.944  0.9580 -0.6838 -0.2891
 3557TIP3    H232087   6.457   4.744  17.017  2.3990  0.0819 -1.5582
 3558TIP3   OH232088   4.658   4.241  14.871  0.1365  0.2057 -0.3969
 3558TIP3    H132089   4.571   4.200  14.867 -0.0053  0.1566  2.0449
 3558TIP3    H232090   4.706   4.189  14.936  1.0171  1.9673  0.4098
 3559TIP3   OH232091   4.636   6.525   5.459 -0.7048 -0.2544  0.0872
 3559TIP3    H132092   4.700   6.591   5.487  1.4578 -2.0901 -0.2972
 3559TIP3    H232093   4.651   6.451   5.517 -1.5815 -1.2322 -0.9049
 3560TIP3   OH232094   2.725   1.962   3.194 -0.3231  0.1390  0.0331
 3560TIP3    H132095   2.708   1.908   3.117 -1.0046 -0.1631  0.3851
 3560TIP3    H232096   2.748   2.048   3.158 -2.1080  0.4432 -0.5232
 3561TIP3   OH232097   3.445   4.844   5.850  0.0865  0.3524  0.1430
 3561TIP3    H132098   3.455   4.931   5.890  3.0701 -0.3629  1.2421
 3561TIP3    H232099   3.495   4.786   5.907  1.2400 -1.4421 -2.4991
 3562TIP3   OH232100   3.222   4.251  12.251 -0.1327  0.1022  0.0114
 3562TIP3    H132101   3.293   4.242  12.315 -0.3010 -0.1583  0.1617
 3562TIP3    H232102   3.254   4.318  12.190  0.1166  0.2044  0.2480
 3563TIP3   OH232103   3.518   3.193  16.442  0.6214  0.1338  0.5269
 3563TIP3    H132104   3.604   3.220  16.409  1.2348 -2.8872 -0.7115
 3563TIP3    H232105   3.487   3.130  16.376 -1.7685 -0.1266  1.8244
 3564TIP3   OH232106   4.490   1.002   1.467  0.5763  0.5077 -0.5782
 3564TIP3    H132107   4.506   0.950   1.388  1.6976  1.0060 -0.6922
 3564TIP3    H232108   4.414   1.056   1.444 -0.1189 -0.5094 -0.7258
 3565TIP3   OH232109   3.171   1.662   4.784 -0.3254 -0.2820 -0.0840
 3565TIP3    H132110   3.223   1.718   4.727 -0.8237 -0.1751 -0.4481
 3565TIP3    H232111   3.104   1.720   4.821  1.0378  0.0511  2.0301
 3566TIP3   OH232112   5.727   2.438   4.556  0.6708 -0.2771  0.2135
 3566TIP3    H132113   5.685   2.360   4.521  1.5224 -0.9062  0.5581
 3566TIP3    H232114   5.757   2.413   4.643 -1.5276  1.3092  1.5184
 3567TIP3   OH232115   2.215   6.689   3.459  0.1593  0.3872 -0.2510
 3567TIP3    H132116   2.252   6.746   3.391 -0.1075  0.9434  0.0632
 3567TIP3    H232117   2.139   6.649   3.419  0.1645  0.4975 -0.3692
 3568TIP3   OH232118   2.581   1.065   3.147  0.0951 -0.6098  0.4953
 3568TIP3    H132119   2.667   1.093   3.178 -0.8377  0.2272  2.4932
 3568TIP3    H232120   2.521   1.088   3.218 -2.2578  1.5649 -1.9376
 3569TIP3   OH232121   4.749   0.365  11.300 -0.6261 -0.0452  0.2067
 3569TIP3    H132122   4.746   0.439  11.361 -2.5734  0.5179 -0.4826
 3569TIP3    H232123   4.659   0.335  11.294 -0.3465 -0.6805 -1.6673
 3570TIP3   OH232124   4.264   5.312  15.550  0.1337  0.1601  0.2072
 3570TIP3    H132125   4.296   5.369  15.479  0.5041 -2.7819 -2.1743
 3570TIP3    H232126   4.342   5.267  15.581 -0.4376 -0.5347  0.6553
 3571TIP3   OH232127   0.310   0.578  17.065  0.3988 -1.4367 -0.1835
 3571TIP3    H132128   0.364   0.530  17.127  2.2190  1.0311  0.2666
 3571TIP3    H232129   0.292   0.662  17.107 -2.8905 -1.6780 -0.8173
 3572TIP3   OH232130   2.043   1.902   2.275 -0.2362  0.1648 -0.5321
 3572TIP3    H132131   1.980   1.849   2.227 -0.0021  1.1624 -2.0028
 3572TIP3    H232132   2.025   1.883   2.367 -2.7511  0.4681 -0.8837
 3573TIP3   OH232133   1.105   4.464   1.409  0.4970 -0.0528  0.0391
 3573TIP3    H132134   1.039   4.505   1.354 -0.4813 -1.1801  0.3249
 3573TIP3    H232135   1.060   4.445   1.491  0.4634 -2.8835 -0.5253
 3574TIP3   OH232136   5.425   6.629  11.947  0.1405 -0.0398 -0.0298
 3574TIP3    H132137   5.514   6.613  11.978 -0.2193 -0.8251  0.6409
 3574TIP3    H232138   5.408   6.721  11.967  1.2263  0.4845 -1.3031
 3575TIP3   OH232139   3.587   4.524   4.728  0.1988 -0.0821  0.1762
 3575TIP3    H132140   3.601   4.567   4.644  0.3375 -0.2211  0.1274
 3575TIP3    H232141   3.503   4.558   4.759 -0.5187 -1.0484 -0.6517
 3576TIP3   OH232142   5.915   2.491  13.738 -0.4913  0.3893  0.2543
 3576TIP3    H132143   5.866   2.573  13.726 -0.2876  0.4124 -0.4983
 3576TIP3    H232144   5.986   2.515  13.797 -0.6652  0.6616  0.3583
 3577TIP3   OH232145   3.523   0.223   6.742  0.3635  0.3221 -0.3878
 3577TIP3    H132146   3.600   0.170   6.761 -0.9650 -2.8143 -2.7937
 3577TIP3    H232147   3.550   0.282   6.672  0.9068  0.1413 -0.3314
 3578TIP3   OH232148   5.108   1.150  13.317  0.2938 -0.3819  0.2913
 3578TIP3    H132149   5.060   1.084  13.367 -0.4096 -1.5539 -1.7817
 3578TIP3    H232150   5.192   1.109  13.298 -0.1878 -0.8037 -1.1026
 3579TIP3   OH232151   0.514   4.111  16.015  0.2268  0.4423 -0.1697
 3579TIP3    H132152   0.483   4.070  16.096 -0.5388  0.4294 -0.4580
 3579TIP3    H232153   0.470   4.196  16.014  1.1182  0.9165 -0.0149
 3580TIP3   OH232154   1.330   3.802   5.360  0.0383  0.4144  0.0979
 3580TIP3    H132155   1.345   3.894   5.379 -4.4244  1.7559 -1.6306
 3580TIP3    H232156   1.253   3.779   5.412  0.8946 -2.3590  0.3207
 3581TIP3   OH232157   4.891   3.106   5.598 -0.1157  0.2970 -0.2310
 3581TIP3    H132158   4.869   3.067   5.683  0.1323  0.3673 -0.1333
 3581TIP3    H232159   4.806   3.119   5.555 -0.2723  0.6226  0.1670
 3582TIP3   OH232160   1.244   3.217   3.911  0.2029  0.5325 -0.0069
 3582TIP3    H132161   1.163   3.258   3.880 -1.3033 -3.1132 -1.4870
 3582TIP3    H232162   1.301   3.214   3.835 -0.7482 -2.1665 -0.7475
 3583TIP3   OH232163   4.884   0.724  13.383  0.6318  0.1499  0.2400
 3583TIP3    H132164   4.976   0.740  13.406  0.5268  0.0041  0.7721
 3583TIP3    H232165   4.852   0.808  13.350  1.3149 -0.1197 -1.1925
 3584TIP3   OH232166   1.709   4.484  15.847  0.0730 -0.4601 -0.1513
 3584TIP3    H132167   1.688   4.551  15.782 -0.4550  0.0617  0.5419
 3584TIP3    H232168   1.631   4.480  15.903  0.6290 -0.6850  0.6240
 3585TIP3   OH232169   2.839   0.057   3.463  0.9975  0.5808  0.0011
 3585TIP3    H132170   2.865  -0.023   3.417  3.3900  1.3059 -0.0450
 3585TIP3    H232171   2.848   0.036   3.556  2.8346  1.1071 -0.0247
 3586TIP3   OH232172   3.310   3.549  12.725 -0.2203  0.3033  0.3104
 3586TIP3    H132173   3.384   3.531  12.784 -0.6826  0.3237  0.9087
 3586TIP3    H232174   3.260   3.468  12.725 -1.2659  0.9036  1.4926
 3587TIP3   OH232175   4.808   2.715   4.810  0.2972  0.2576  0.8020
 3587TIP3    H132176   4.815   2.806   4.839  1.9484  0.3480  0.2616
 3587TIP3    H232177   4.883   2.672   4.850  0.0771 -0.6423  0.2710
 3588TIP3   OH232178   3.345   3.879  12.340  0.3091  0.1708  0.1070
 3588TIP3    H132179   3.363   3.863  12.248 -1.9448 -0.7421 -0.2206
 3588TIP3    H232180   3.421   3.841  12.386 -0.1013 -2.4781 -1.2225
 3589TIP3   OH232181   6.448   0.856  10.454  0.4794  0.3761 -0.1311
 3589TIP3    H132182   6.543   0.865  10.442  0.3652  1.2449 -0.4600
 3589TIP3    H232183   6.415   0.834  10.367  0.2337  1.4055 -0.3016
 3590TIP3   OH232184   3.108   0.627  13.381  0.7721  0.1724 -0.1012
 3590TIP3    H132185   3.202   0.631  13.363  1.0530 -2.7848  0.1673
 3590TIP3    H232186   3.093   0.697  13.445  2.9567  0.2037  0.4683
 3591TIP3   OH232187   3.340   4.492  15.754  0.3124  0.3598 -0.1156
 3591TIP3    H132188   3.310   4.579  15.728  0.8165  0.9781  1.2656
 3591TIP3    H232189   3.279   4.431  15.713 -1.0070  1.4396  0.2082
 3592TIP3   OH232190   4.063   2.650   5.406 -0.0958  0.3085 -0.1914
 3592TIP3    H132191   4.095   2.737   5.381 -1.1821  1.6327  2.6379
 3592TIP3    H232192   4.143   2.600   5.426  0.4748  1.2849  0.0461
 3593TIP3   OH232193   5.785   1.106  15.800  0.6212  0.1033 -0.5278
 3593TIP3    H132194   5.719   1.117  15.732 -0.5198  1.5803  0.7404
 3593TIP3    H232195   5.851   1.173  15.781  0.2036  0.6437 -0.0621
 3594TIP3   OH232196   4.389   0.574   4.651  0.0251  0.1305 -0.7779
 3594TIP3    H132197   4.446   0.516   4.601 -0.6154  0.0720 -1.4667
 3594TIP3    H232198   4.392   0.541   4.740  2.0048  0.8462 -0.5172
 3595TIP3   OH232199   4.122   2.564  14.384 -0.2270  0.1566 -0.0886
 3595TIP3    H132200   4.074   2.482  14.398 -0.6032  0.3228 -0.3819
 3595TIP3    H232201   4.158   2.556  14.296 -1.1890  0.7642 -0.5453
 3596TIP3   OH232202   4.396   4.420  15.194  0.6458  0.3544 -0.0965
 3596TIP3    H132203   4.466   4.378  15.245 -0.9239 -3.1350 -0.5860
 3596TIP3    H232204   4.346   4.469  15.260  1.8221  0.5194  0.7263
 3597TIP3   OH232205   0.569   2.918   1.147 -0.8839 -0.1683  0.0557
 3597TIP3    H132206   0.623   2.997   1.152 -1.8413  0.4785  0.7775
 3597TIP3    H232207   0.479   2.951   1.142 -1.3977 -1.1892  1.6365
 3598TIP3   OH232208   6.294   4.114   0.639 -0.3344 -0.1596  0.4069
 3598TIP3    H132209   6.329   4.199   0.613 -0.8656  0.2145  0.8813
 3598TIP3    H232210   6.371   4.062   0.661  0.0579 -0.1496 -0.8719
 3599TIP3   OH232211   0.674   4.614  16.077  0.8783 -0.0248 -0.2742
 3599TIP3    H132212   0.695   4.589  15.987  2.7407  2.8120 -0.7400
 3599TIP3    H232213   0.737   4.566  16.131  1.5776  0.3410 -0.7496
 3600TIP3   OH232214   2.355   1.432   0.398  0.4868  0.0715  0.2268
 3600TIP3    H132215   2.404   1.386   0.466  0.5160  0.1806  0.2796
 3600TIP3    H232216   2.269   1.389   0.397  0.7964 -0.5508 -0.3134
 3601TIP3   OH232217   3.599   3.779   0.944  0.2353 -0.7703  0.2181
 3601TIP3    H132218   3.646   3.729   1.011  1.1157 -1.6040 -0.9853
 3601TIP3    H232219   3.655   3.775   0.867 -0.3933  0.8271 -0.3646
 3602TIP3   OH232220   2.198   2.887   0.732 -0.1652  0.2473  0.4137
 3602TIP3    H132221   2.248   2.942   0.672  0.0081  0.3166  0.6196
 3602TIP3    H232222   2.237   2.800   0.723  0.2731  0.3927  0.8875
 3603TIP3   OH232223   1.957   3.120  15.455 -0.6156 -0.2744  0.0433
 3603TIP3    H132224   1.925   3.066  15.383 -0.0677 -1.9566  1.0047
 3603TIP3    H232225   1.945   3.065  15.533  2.4179 -0.1049  0.7573
 3604TIP3   OH232226   6.673   3.501   0.493  0.0964  0.1015 -0.0629
 3604TIP3    H132227   6.733   3.496   0.567  0.8672 -0.0381 -0.6881
 3604TIP3    H232228   6.589   3.527   0.532  0.5815  0.4034  0.7985
 3605TIP3   OH232229   1.447   1.046   4.883 -0.4255 -0.1922  0.3135
 3605TIP3    H132230   1.443   1.131   4.926  0.3392  1.1890 -2.1987
 3605TIP3    H232231   1.533   1.011   4.907 -0.4394  0.0528  0.7326
 3606TIP3   OH232232   6.057   6.393  13.421  0.4203  0.2187 -0.1805
 3606TIP3    H132233   6.117   6.377  13.493  0.2296  0.4643  0.0386
 3606TIP3    H232234   6.009   6.472  13.447 -0.4258 -0.3155 -0.0622
 3607TIP3   OH232235   5.275   4.632   3.110  0.3822 -0.1977 -0.5330
 3607TIP3    H132236   5.266   4.537   3.119 -0.3645 -0.2006 -1.1323
 3607TIP3    H232237   5.213   4.668   3.173  1.3987 -0.0793  0.4212
 3608TIP3   OH232238   2.817   0.881  13.944 -0.2136 -0.3536  0.3421
 3608TIP3    H132239   2.752   0.942  13.909 -0.5276 -0.1258  1.3008
 3608TIP3    H232240   2.895   0.935  13.958 -0.3210 -0.2881  0.6861
 3609TIP3   OH232241   6.430   3.966  15.216 -0.0617  0.1502  0.4339
 3609TIP3    H132242   6.336   3.987  15.210 -0.0928 -0.3344 -1.5794
 3609TIP3    H232243   6.433   3.881  15.259 -0.6647 -0.4853 -0.7505
 3610TIP3   OH232244   4.463   1.023  13.767 -0.3906 -0.1087 -0.0742
 3610TIP3    H132245   4.415   1.106  13.768  0.3221  0.3150 -0.5113
 3610TIP3    H232246   4.410   0.965  13.820 -0.5616  0.8151  0.7991
 3611TIP3   OH232247   6.143   3.763   2.578  0.2422  0.0706  0.0972
 3611TIP3    H132248   6.152   3.706   2.654 -2.0577 -1.1509 -0.4383
 3611TIP3    H232249   6.073   3.824   2.602  2.0924  2.2206  0.3364
 3612TIP3   OH232250   4.584   2.784   1.903 -0.4736 -0.2194 -0.3494
 3612TIP3    H132251   4.665   2.733   1.910 -1.0269 -1.0186  0.5228
 3612TIP3    H232252   4.612   2.868   1.866  1.0925  0.2533  1.6972
 3613TIP3   OH232253   4.820   2.457  13.427  0.5614 -0.0433  0.1293
 3613TIP3    H132254   4.803   2.364  13.438  1.0509 -0.2256 -0.5758
 3613TIP3    H232255   4.885   2.461  13.356  1.8832  0.7188  1.3299
 3614TIP3   OH232256   5.884   4.154   2.429  0.3253 -0.7308 -0.2782
 3614TIP3    H132257   5.838   4.154   2.345  0.3982  1.6806 -0.3950
 3614TIP3    H232258   5.817   4.174   2.494  0.8647  1.3347 -0.2793
 3615TIP3   OH232259   3.908   2.860   2.818  0.2361  0.0003 -0.2966
 3615TIP3    H132260   3.921   2.783   2.762 -0.2107  0.3524 -0.8903
 3615TIP3    H232261   3.851   2.917   2.768  0.0996  0.4747  0.3840
 3616TIP3   OH232262   5.750   4.478  11.011 -0.4822 -0.3445  0.0443
 3616TIP3    H132263   5.752   4.474  10.915 -1.6043  0.0253 -0.0080
 3616TIP3    H232264   5.718   4.391  11.037 -1.2113 -0.0891  0.0247
 3617TIP3   OH232265   0.922   4.723  16.999  0.1763 -0.0085  0.3899
 3617TIP3    H132266   1.013   4.744  16.979 -0.4951  1.2567 -1.8141
 3617TIP3    H232267   0.895   4.788  17.064  0.4191  0.6766 -0.1843
 3618TIP3   OH232268   6.192   1.724   2.495 -0.6658  0.2365 -0.2345
 3618TIP3    H132269   6.163   1.752   2.408 -1.7944  0.5114  0.2120
 3618TIP3    H232270   6.128   1.659   2.522  0.7292 -1.2493 -0.3545
 3619TIP3   OH232271   5.360   0.231  14.645  0.3251  0.3282  0.2069
 3619TIP3    H132272   5.353   0.241  14.550 -0.2266  0.4367  0.2547
 3619TIP3    H232273   5.403   0.312  14.674  1.7594 -0.3067 -0.0878
 3620TIP3   OH232274   5.957   3.563   0.315  0.5663 -0.4960  0.2125
 3620TIP3    H132275   5.889   3.622   0.283 -0.3028 -1.4584  0.2154
 3620TIP3    H232276   6.030   3.574   0.254 -0.8714 -1.9387 -1.9348
 3621TIP3   OH232277   0.468   2.410  15.171 -0.1212  0.4745 -0.2699
 3621TIP3    H132278   0.423   2.328  15.151  0.1808  0.2441 -0.0107
 3621TIP3    H232279   0.557   2.397  15.141  0.4357 -0.0042  1.4709
 3622TIP3   OH232280   0.010   1.919   5.583 -0.4163 -0.1755  0.0608
 3622TIP3    H132281   0.059   1.838   5.568  0.2745  0.0123  1.1275
 3622TIP3    H232282  -0.067   1.892   5.633 -0.3405 -0.2160  0.1564
 3623TIP3   OH232283   5.603   0.586  13.537 -0.2290 -0.2456 -0.3379
 3623TIP3    H132284   5.597   0.652  13.607 -2.8126 -1.3739  0.6063
 3623TIP3    H232285   5.646   0.511  13.578 -0.9540 -0.5875 -0.1814
 3624TIP3   OH232286   3.446   4.892  14.356  0.3924 -0.5575 -0.5468
 3624TIP3    H132287   3.373   4.867  14.299 -0.5533 -0.6214  0.6357
 3624TIP3    H232288   3.462   4.814  14.410  0.4729 -0.1265  0.0698
 3625TIP3   OH232289   5.967   2.825  11.127  0.7601 -0.2384  0.3789
 3625TIP3    H132290   6.030   2.822  11.198  1.4895 -1.2305 -0.2863
 3625TIP3    H232291   5.942   2.917  11.121 -0.6095 -0.3338  3.0032
 3626TIP3   OH232292   1.456   0.096   2.212  0.3128 -0.0369  0.3838
 3626TIP3    H132293   1.540   0.054   2.232 -0.9839 -2.7740  0.4146
 3626TIP3    H232294   1.425   0.129   2.297  0.5256 -0.6067  0.6871
 3627TIP3   OH232295   1.720   1.345  13.540 -0.3201  0.0822  0.4059
 3627TIP3    H132296   1.684   1.308  13.621 -0.4684  0.3604  0.4711
 3627TIP3    H232297   1.782   1.280  13.508 -0.1615  0.0285  0.8188
 3628TIP3   OH232298   0.502   4.571   0.714 -0.5730  0.1777 -0.1016
 3628TIP3    H132299   0.475   4.479   0.716  0.1578 -0.1775 -2.8177
 3628TIP3    H232300   0.421   4.620   0.731 -1.1251 -0.9394  0.5680
 3629TIP3   OH232301   1.269   6.430  14.809  0.3037 -0.2070  0.3548
 3629TIP3    H132302   1.250   6.382  14.890 -0.1406  0.6361  0.7666
 3629TIP3    H232303   1.347   6.482  14.829  0.5824 -0.4950  0.0238
 3630TIP3   OH232304   2.755   4.221   5.446  0.1224  0.0156  0.9828
 3630TIP3    H132305   2.692   4.172   5.392 -0.3707  0.8531  0.7819
 3630TIP3    H232306   2.783   4.294   5.390 -0.4616  0.9432  1.8642
 3631TIP3   OH232307   4.037   3.202   2.525  0.5161 -0.6798  0.3622
 3631TIP3    H132308   4.033   3.242   2.438  2.1962  1.4719  1.1913
 3631TIP3    H232309   3.948   3.212   2.560  0.0401 -0.8256 -0.7806
 3632TIP3   OH232310   4.382   5.628  16.689 -0.3566 -0.3167  0.0538
 3632TIP3    H132311   4.335   5.671  16.617  0.8782  0.0101 -0.5711
 3632TIP3    H232312   4.406   5.542  16.653 -2.3577 -1.3978  1.1199
 3633TIP3   OH232313   4.620   0.376   4.559  0.4142 -0.3346 -0.2378
 3633TIP3    H132314   4.659   0.293   4.533  0.9629  0.3128 -1.5592
 3633TIP3    H232315   4.615   0.427   4.478  0.2350  0.9865  0.5767
 3634TIP3   OH232316   2.227   3.197   2.745 -0.2770  0.1100 -0.6253
 3634TIP3    H132317   2.190   3.272   2.698  0.6099  0.3982 -0.8794
 3634TIP3    H232318   2.301   3.234   2.794  0.0001 -0.5521 -0.5415
 3635TIP3   OH232319   2.032   1.744   3.105 -0.5371 -0.9562  0.4500
 3635TIP3    H132320   2.110   1.692   3.084 -0.4330 -0.4035 -0.5667
 3635TIP3    H232321   1.958   1.688   3.083 -0.4391 -1.3484  1.0845
 3636TIP3   OH232322   4.825   0.997  12.792  0.5672 -0.4140 -0.1080
 3636TIP3    H132323   4.812   1.002  12.697 -0.1142  0.6134  0.0320
 3636TIP3    H232324   4.809   0.905  12.813  1.2338 -0.7681 -1.0494
 3637TIP3   OH232325   5.511   4.055  16.184 -0.4448  0.1168  0.4839
 3637TIP3    H132326   5.552   4.042  16.269  1.2388 -0.0435 -0.3118
 3637TIP3    H232327   5.450   4.128  16.197 -0.0070  0.2766  1.7467
 3638TIP3   OH232328   4.716   3.450  13.992 -0.7327 -0.4124  0.5742
 3638TIP3    H132329   4.654   3.518  13.966  1.8917  1.6434 -0.8856
 3638TIP3    H232330   4.695   3.375  13.936 -0.6374  0.9644 -1.4136
 3639TIP3   OH232331   0.999   4.850   5.106  0.3597 -0.7647 -0.7678
 3639TIP3    H132332   0.991   4.781   5.172  2.1355 -0.4818 -0.2219
 3639TIP3    H232333   0.913   4.893   5.106 -0.1865 -1.8084  0.1799
 3640TIP3   OH232334   0.873   3.574   1.543 -0.0699  0.2984  0.2666
 3640TIP3    H132335   0.884   3.489   1.587  2.6904  0.2675 -0.3483
 3640TIP3    H232336   0.884   3.555   1.450  3.3240  1.6067  0.2747
 3641TIP3   OH232337   4.374   2.456  14.990 -0.2945  0.1764  0.3144
 3641TIP3    H132338   4.452   2.402  15.004 -0.0903  0.6881  1.2474
 3641TIP3    H232339   4.300   2.399  15.011 -0.2387 -0.5716 -1.3859
 3642TIP3   OH232340   0.280   2.306  13.683 -0.7216 -0.2051  0.1964
 3642TIP3    H132341   0.346   2.292  13.615 -0.5701  1.4243 -0.0384
 3642TIP3    H232342   0.239   2.389  13.659 -1.1677  0.0329  1.6950
 3643TIP3   OH232343   6.502   2.842   2.107  0.5433  0.2164  0.1194
 3643TIP3    H132344   6.553   2.922   2.102  2.0742 -0.7549 -0.4206
 3643TIP3    H232345   6.440   2.857   2.179  1.3968  1.5374  0.5983
 3644TIP3   OH232346   3.321   5.452   4.644  0.1526 -0.2334 -0.0902
 3644TIP3    H132347   3.299   5.470   4.552  1.1917 -2.2794 -0.7959
 3644TIP3    H232348   3.390   5.515   4.665 -0.7424  0.8832 -0.3761
 3645TIP3   OH232349   3.627   1.542   3.317  0.1294 -0.3940  0.1383
 3645TIP3    H132350   3.684   1.578   3.385 -0.5435  1.3231 -0.1532
 3645TIP3    H232351   3.540   1.543   3.356 -0.4012  1.3966 -0.9680
 3646TIP3   OH232352   2.068   5.655  11.248 -0.3332 -0.2329  0.4237
 3646TIP3    H132353   2.046   5.671  11.156 -0.6589 -1.2840  0.3010
 3646TIP3    H232354   2.155   5.693  11.259 -1.5998  2.9206  0.5917
 3647TIP3   OH232355   3.045   3.290  16.832  0.5182 -0.1970 -0.2311
 3647TIP3    H132356   3.085   3.373  16.856  1.0571 -0.4724 -0.1375
 3647TIP3    H232357   2.980   3.312  16.765  2.2412  0.0715 -1.9228
 3648TIP3   OH232358   3.899   3.647   0.952  0.2732 -0.3986 -0.2350
 3648TIP3    H132359   3.953   3.713   0.908 -2.2641  1.8546 -0.2516
 3648TIP3    H232360   3.879   3.583   0.884 -0.2845  0.8828 -1.3459
 3649TIP3   OH232361   4.532   2.211   5.338 -0.7451  0.3587  0.8427
 3649TIP3    H132362   4.553   2.177   5.251  0.7656  0.3385  1.1979
 3649TIP3    H232363   4.616   2.219   5.382 -1.3568  1.6220  1.8607
 3650TIP3   OH232364   3.998   2.446  14.812  1.2029 -0.0598  0.0033
 3650TIP3    H132365   3.918   2.396  14.796  1.5652  0.0014 -2.3551
 3650TIP3    H232366   4.061   2.413  14.748  2.3611  1.4223  0.3173
 3651TIP3   OH232367   2.443   3.504  15.118  0.3150  0.0015 -0.3084
 3651TIP3    H132368   2.374   3.542  15.063  0.7552 -0.6813 -1.3779
 3651TIP3    H232369   2.497   3.579  15.143  1.3580  0.1265 -2.6545
 3652TIP3   OH232370   6.487   0.484   0.137  0.1094 -0.1906  0.0146
 3652TIP3    H132371   6.448   0.428   0.070 -1.2773 -1.5245  1.8210
 3652TIP3    H232372   6.581   0.478   0.122 -0.1401 -0.6201 -1.6332
 3653TIP3   OH232373   4.370   6.699  14.742 -0.6174 -0.4660  0.3243
 3653TIP3    H132374   4.290   6.682  14.792  1.2470 -3.2062  2.7315
 3653TIP3    H232375   4.375   6.628  14.679 -0.9680  0.7731 -1.1490
 3654TIP3   OH232376   2.062   5.230   4.779 -0.0753  0.0384  0.3909
 3654TIP3    H132377   2.131   5.207   4.841 -0.4907 -0.8336  0.5485
 3654TIP3    H232378   1.997   5.276   4.832 -0.8250 -1.4451  0.8084
 3655TIP3   OH232379   0.035   0.235   5.478  0.1010  0.1571 -0.4842
 3655TIP3    H132380   0.122   0.270   5.498 -0.2292  1.0468 -0.5540
 3655TIP3    H232381  -0.008   0.305   5.430 -1.0992  0.2277  0.6530
 3656TIP3   OH232382   1.022   4.823   0.294 -0.1652  0.2560  0.6125
 3656TIP3    H132383   0.942   4.817   0.242  0.5363 -1.0025 -0.3913
 3656TIP3    H232384   1.077   4.886   0.247  1.0684 -1.9835 -1.1083
 3657TIP3   OH232385   0.737   4.140  15.014  0.2004 -0.1821  0.4144
 3657TIP3    H132386   0.719   4.050  14.987  2.0743 -0.6450  0.5591
 3657TIP3    H232387   0.793   4.131  15.091 -0.7004  1.1251  1.2633
 3658TIP3   OH232388   1.097   6.444  11.016  0.3074 -0.5120 -0.1737
 3658TIP3    H132389   1.109   6.538  11.019 -0.5997 -0.2432 -2.6955
 3658TIP3    H232390   1.171   6.411  10.965 -0.2806 -0.9359 -0.7735
 3659TIP3   OH232391   4.478   5.521  12.088 -0.0553 -0.6534  0.0521
 3659TIP3    H132392   4.412   5.457  12.063  0.2013 -0.9463  0.1236
 3659TIP3    H232393   4.534   5.475  12.151  0.3954 -0.5062 -0.2368
 3660TIP3   OH232394   0.112   1.610  14.705  0.3662  0.2207 -0.5709
 3660TIP3    H132395   0.019   1.590  14.709  0.0502  1.6172 -0.5382
 3660TIP3    H232396   0.146   1.580  14.789 -0.3380  1.0367  0.0163
 3661TIP3   OH232397   0.521   0.413  16.390 -0.0847 -0.2742 -0.0597
 3661TIP3    H132398   0.458   0.435  16.321 -1.4914 -1.0041  0.9388
 3661TIP3    H232399   0.467   0.382  16.463  1.4615 -1.2746  0.7201
 3662TIP3   OH232400   5.577   4.290   1.328 -0.3092 -0.1044 -0.1536
 3662TIP3    H132401   5.670   4.272   1.318 -0.3515  0.0090 -0.8444
 3662TIP3    H232402   5.542   4.287   1.238 -1.1314 -1.0159  0.1728
 3663TIP3   OH232403   0.603   1.034  17.006 -0.1697 -0.3797 -0.0664
 3663TIP3    H132404   0.585   1.013  16.915 -0.6132 -0.2474 -0.0110
 3663TIP3    H232405   0.698   1.049  17.009  0.1206 -2.0541 -0.1636
 3664TIP3   OH232406   3.546   2.941   0.374  0.0874  0.5127 -0.2198
 3664TIP3    H132407   3.468   2.902   0.412 -1.0712  1.0169 -1.9841
 3664TIP3    H232408   3.602   2.960   0.450 -1.1938 -0.4568  1.0227
 3665TIP3   OH232409   2.177   0.626   1.951 -0.0340 -0.4061  0.2003
 3665TIP3    H132410   2.185   0.602   1.859 -0.2980  1.3008 -0.3091
 3665TIP3    H232411   2.086   0.653   1.962  0.0920 -0.2164  0.8581
 3666TIP3   OH232412   4.991   3.138  12.243 -0.2964  0.2532  0.3427
 3666TIP3    H132413   4.940   3.106  12.318  0.2777  0.6815  0.9326
 3666TIP3    H232414   5.027   3.222  12.273  1.1563 -0.2723  0.1350
 3667TIP3   OH232415   3.923   5.475  11.163 -0.5100 -0.3822 -0.4665
 3667TIP3    H132416   3.934   5.380  11.150  0.5339 -0.1558 -1.4238
 3667TIP3    H232417   3.980   5.495  11.238 -1.5393 -0.6606  0.4118
 3668TIP3   OH232418   2.516   4.759  15.863 -0.3575 -0.1410 -0.2824
 3668TIP3    H132419   2.531   4.748  15.769  0.3140 -0.3053 -0.1598
 3668TIP3    H232420   2.562   4.840  15.886 -0.0188 -0.4148  0.0144
 3669TIP3   OH232421   4.087   4.567  14.284  0.1449 -0.0618 -0.4119
 3669TIP3    H132422   4.127   4.632  14.342  1.3357 -1.5413  0.4624
 3669TIP3    H232423   4.001   4.551  14.322  0.8474 -0.8933  0.8999
 3670TIP3   OH232424   2.839   4.630   5.454 -0.4723 -0.7612 -0.4675
 3670TIP3    H132425   2.859   4.553   5.400  3.9634 -0.2307  0.0413
 3670TIP3    H232426   2.876   4.610   5.540  0.0407  1.5703 -0.0696
 3671TIP3   OH232427   6.160   0.794  11.440  0.0036  0.0795 -0.1895
 3671TIP3    H132428   6.088   0.744  11.401  0.9002 -1.5305  0.1305
 3671TIP3    H232429   6.217   0.816  11.366 -0.5543  0.9523 -0.3767
 3672TIP3   OH232430   6.203   2.196  14.199  0.2939 -0.0260 -0.1132
 3672TIP3    H132431   6.173   2.248  14.124  1.6392  0.3599 -0.4167
 3672TIP3    H232432   6.273   2.141  14.163  0.6270 -0.1853  0.7559
 3673TIP3   OH232433   5.423   4.429   2.637  0.4531  0.0869  0.0460
 3673TIP3    H132434   5.328   4.425   2.650  0.3231  2.9941  0.8527
 3673TIP3    H232435   5.460   4.389   2.716 -0.1127 -0.1870  0.1725
 3674TIP3   OH232436   0.541   6.274   4.130  0.6200  0.4140  0.1518
 3674TIP3    H132437   0.629   6.264   4.168 -0.0293 -0.8981  1.4084
 3674TIP3    H232438   0.556   6.320   4.047  2.1873  2.8452  1.6260
 3675TIP3   OH232439   3.559   2.976  10.423  0.1583 -0.0254 -0.2138
 3675TIP3    H132440   3.651   3.001  10.432  0.8748 -1.5627 -2.4942
 3675TIP3    H232441   3.528   2.967  10.513  1.2832  3.5480  0.6896
 3676TIP3   OH232442   1.799   6.120   6.207  0.2150 -0.3045  0.3102
 3676TIP3    H132443   1.722   6.065   6.221 -0.1780  0.6147  1.9165
 3676TIP3    H232444   1.764   6.206   6.186  0.7863  0.1513  1.1656
 3677TIP3   OH232445   0.259   1.680   2.194 -0.0512 -0.2986  0.2811
 3677TIP3    H132446   0.221   1.765   2.215  1.2196  0.6339 -1.0161
 3677TIP3    H232447   0.338   1.674   2.247 -0.0823 -0.6251  0.2938
 3678TIP3   OH232448   3.608   1.023   4.679  0.0904 -0.5691 -0.5206
 3678TIP3    H132449   3.630   1.105   4.722  2.2978 -0.9556 -0.8135
 3678TIP3    H232450   3.561   0.973   4.747 -0.8114  0.6907 -0.1814
 3679TIP3   OH232451   4.479   0.537  14.245  0.0766 -0.2316 -0.0013
 3679TIP3    H132452   4.508   0.447  14.229  1.5182  0.1757  0.2492
 3679TIP3    H232453   4.499   0.553  14.337 -0.3818  0.2835  0.0142
 3680TIP3   OH232454   3.267   1.526  12.636 -0.0703 -0.0788  0.1640
 3680TIP3    H132455   3.349   1.487  12.665  0.4865  0.0041 -1.2236
 3680TIP3    H232456   3.234   1.465  12.570  0.5463  1.4690 -1.6646
 3681TIP3   OH232457   0.138   6.114   0.759  0.2967  0.7833 -0.2043
 3681TIP3    H132458   0.194   6.138   0.685 -1.2990  0.8846 -1.4592
 3681TIP3    H232459   0.143   6.019   0.764 -1.4129  0.5284 -2.0675
 3682TIP3   OH232460   5.643   5.958   0.893 -0.3808 -0.3483 -0.0058
 3682TIP3    H132461   5.695   6.017   0.838 -0.8128  0.0122 -0.0336
 3682TIP3    H232462   5.707   5.898   0.932  0.0760  0.2088  0.1091
 3683TIP3   OH232463   3.215   4.354   6.031  0.2083 -0.2213 -0.2913
 3683TIP3    H132464   3.291   4.367   6.088  0.1488 -1.1243  0.0113
 3683TIP3    H232465   3.238   4.277   5.978 -0.2913 -0.2003 -0.5404
 3684TIP3   OH232466   3.755   3.888   6.192  0.4414 -0.1409  0.4998
 3684TIP3    H132467   3.789   3.803   6.163 -0.1215 -0.7341  1.5401
 3684TIP3    H232468   3.831   3.946   6.187  1.3785 -1.1842  1.7423
 3685TIP3   OH232469   2.729   0.080   0.601  0.1401  0.7183  0.0135
 3685TIP3    H132470   2.784   0.156   0.620  1.0140 -0.3703  2.2100
 3685TIP3    H232471   2.767   0.041   0.523  1.1423  1.2179  0.2430
 3686TIP3   OH232472   1.808   6.651   1.067  0.0746 -0.3807 -0.2489
 3686TIP3    H132473   1.861   6.718   1.111  0.2756 -2.0000  2.1796
 3686TIP3    H232474   1.723   6.692   1.054  0.5687  0.7604 -0.0030
 3687TIP3   OH232475   2.300   3.341  14.352 -0.2694  0.3406 -0.2863
 3687TIP3    H132476   2.354   3.366  14.427 -1.6017  0.3372  0.7269
 3687TIP3    H232477   2.215   3.383  14.369 -0.6563  0.1890 -1.7109
 3688TIP3   OH232478   3.082   5.247  15.443 -0.7238 -0.0933 -0.0797
 3688TIP3    H132479   2.997   5.281  15.415 -1.1033 -1.2971 -0.4555
 3688TIP3    H232480   3.065   5.207  15.529 -0.2544  0.7648  0.4257
 3689TIP3   OH232481   0.173   5.109  13.522  0.4087  0.1639  0.1159
 3689TIP3    H132482   0.121   5.095  13.443  0.5337  0.4796 -0.0230
 3689TIP3    H232483   0.120   5.072  13.592  0.0256  0.4147 -0.0349
 3690TIP3   OH232484   2.772   4.581  14.280  0.0525 -0.2137  0.2501
 3690TIP3    H132485   2.687   4.591  14.322  0.5467  1.2186  0.9977
 3690TIP3    H232486   2.798   4.491  14.299  0.2537  0.3400  3.1626
 3691TIP3   OH232487   0.316   1.284   5.237 -0.1821  0.6496  0.2121
 3691TIP3    H132488   0.297   1.263   5.328 -0.1451  1.8841  0.5306
 3691TIP3    H232489   0.355   1.204   5.201  2.3411  0.9325  2.0346
 3692TIP3   OH232490   1.110   4.014  11.652 -0.0521  0.0741 -0.2119
 3692TIP3    H132491   1.053   3.976  11.585 -0.1776  0.7875 -0.5123
 3692TIP3    H232492   1.073   3.982  11.735  0.6426 -1.5670 -0.4885
 3693TIP3   OH232493   2.917   5.556   3.102  0.8336  0.5038 -0.3581
 3693TIP3    H132494   2.930   5.645   3.070  3.3406  0.8760  1.4059
 3693TIP3    H232495   2.965   5.501   3.039  0.5254  0.5485 -0.6352
 3694TIP3   OH232496   2.870   4.584   1.640  0.5311 -0.1385 -0.4475
 3694TIP3    H132497   2.791   4.634   1.624  0.8026 -0.2826 -2.4322
 3694TIP3    H232498   2.941   4.648   1.636  0.5964 -0.0828  0.9025
 3695TIP3   OH232499   2.834   4.554   2.102 -0.5545  0.2633  0.3429
 3695TIP3    H132500   2.915   4.508   2.124  0.7509  1.3700 -1.8369
 3695TIP3    H232501   2.808   4.517   2.018 -1.7473  0.6569  0.5253
 3696TIP3   OH232502   6.267   3.806   4.269 -0.4180 -0.0970  0.2820
 3696TIP3    H132503   6.309   3.887   4.299 -0.7937 -0.0677  0.7532
 3696TIP3    H232504   6.175   3.830   4.259 -0.4771 -0.3896  0.1196
 3697TIP3   OH232505   2.276   0.928   3.405 -0.6697 -0.0039 -0.0246
 3697TIP3    H132506   2.292   0.907   3.313 -0.8925 -2.6296  0.4821
 3697TIP3    H232507   2.187   0.898   3.422 -0.5819  0.3066  1.1000
 3698TIP3   OH232508   5.946   0.824   5.738 -0.8288  0.5592  0.1348
 3698TIP3    H132509   5.979   0.739   5.708 -1.0919  0.2740  0.6211
 3698TIP3    H232510   5.878   0.847   5.676  0.0537  1.0003 -0.6938
 3699TIP3   OH232511   5.587   3.728  13.116  0.3582 -0.3041 -0.0155
 3699TIP3    H132512   5.526   3.782  13.066  1.0795  0.8070  0.2552
 3699TIP3    H232513   5.562   3.638  13.096  0.0718  0.1227 -1.6702
 3700TIP3   OH232514   4.287   3.863  11.386 -0.6300 -0.1252  0.1539
 3700TIP3    H132515   4.233   3.785  11.395  1.0136 -1.4920 -1.2160
 3700TIP3    H232516   4.340   3.864  11.465 -0.5483 -0.4759  0.1031
 3701TIP3   OH232517   1.350   0.712  15.285  0.1592  0.4431 -0.8186
 3701TIP3    H132518   1.334   0.795  15.331 -1.9685  0.7798 -2.0467
 3701TIP3    H232519   1.346   0.646  15.354  0.2789  1.2064 -0.0584
 3702TIP3   OH232520   0.519   0.610   4.110  0.3857  0.3143  0.4300
 3702TIP3    H132521   0.529   0.631   4.203 -0.0280  0.0295  0.5407
 3702TIP3    H232522   0.608   0.594   4.079  0.7083  1.9601  0.3960
 3703TIP3   OH232523   6.142   3.644   4.861  0.1654  0.0454  0.3269
 3703TIP3    H132524   6.189   3.714   4.907 -1.3221  0.8208  0.7279
 3703TIP3    H232525   6.194   3.629   4.782 -0.7978  3.5029 -1.1746
 3704TIP3   OH232526   6.576   0.907  11.570  0.6215 -0.5966 -0.8025
 3704TIP3    H132527   6.558   0.989  11.525  2.9504  1.0578  1.0511
 3704TIP3    H232528   6.630   0.857  11.508  1.1713  0.3015 -1.0657
 3705TIP3   OH232529   4.809   3.846  15.905 -0.4994  0.1824 -0.2096
 3705TIP3    H132530   4.849   3.789  15.839  0.4949  1.4769 -0.7624
 3705TIP3    H232531   4.723   3.869  15.868 -0.8696 -0.8541 -0.0228
 3706TIP3   OH232532   3.648   1.709  13.031  0.1548 -0.1730  0.1368
 3706TIP3    H132533   3.727   1.714  13.084  0.1126  0.5847  0.1420
 3706TIP3    H232534   3.678   1.692  12.942  0.6197  3.3564 -0.5172
 3707TIP3   OH232535   1.553   2.554   6.386  0.3825  0.5128 -0.1983
 3707TIP3    H132536   1.636   2.601   6.385  0.3517  0.5731  0.1393
 3707TIP3    H232537   1.488   2.620   6.410  0.2937  0.3736 -0.0529
 3708TIP3   OH232538   5.101   6.619   3.073  0.2020  0.2274 -0.0723
 3708TIP3    H132539   5.142   6.536   3.048  1.1678 -0.0384  2.1777
 3708TIP3    H232540   5.139   6.683   3.012  0.6564 -0.7181 -0.8070
 3709TIP3   OH232541   5.611   5.001  11.846 -0.0339  0.1869  0.2277
 3709TIP3    H132542   5.535   5.019  11.902  0.5819  0.4026  0.9967
 3709TIP3    H232543   5.687   5.011  11.903  0.6305  0.7545 -0.7178
 3710TIP3   OH232544   3.685   3.969  12.937 -0.0502  0.4018  0.1765
 3710TIP3    H132545   3.623   3.897  12.948  1.1827 -0.7391 -0.0893
 3710TIP3    H232546   3.761   3.943  12.988 -0.4334  2.6463  2.0305
 3711TIP3   OH232547   1.135   2.962   2.637  0.0510 -0.3023  0.1698
 3711TIP3    H132548   1.069   2.963   2.567  0.0851 -1.7705  0.0864
 3711TIP3    H232549   1.090   2.996   2.714  0.5443  3.2638 -0.9423
 3712TIP3   OH232550   3.144   5.672   2.073  0.1271 -0.2220 -0.1723
 3712TIP3    H132551   3.209   5.727   2.028  1.0734  0.2886  1.7082
 3712TIP3    H232552   3.196   5.611   2.124 -0.9225 -1.3275 -0.3936
 3713TIP3   OH232553   2.969   4.062  11.646 -0.3628 -0.3719  0.4227
 3713TIP3    H132554   2.883   4.033  11.613 -0.5407  0.3797  0.1791
 3713TIP3    H232555   3.014   4.095  11.568  0.0942 -0.6348  0.5734
 3714TIP3   OH232556   3.543   4.003   4.453  0.0017 -0.7246  0.2610
 3714TIP3    H132557   3.458   3.958   4.449 -1.4791  1.6570  2.1197
 3714TIP3    H232558   3.522   4.094   4.432  2.1948 -0.1158  0.4887
 3715TIP3   OH232559   5.679   2.475  16.732  0.1449 -0.0137 -0.0171
 3715TIP3    H132560   5.602   2.516  16.772 -0.3705 -1.9375  1.0760
 3715TIP3    H232561   5.750   2.493  16.794 -0.1547 -1.0305  0.6349
 3716TIP3   OH232562   3.341   6.514   2.524  0.6835 -0.0857  0.5881
 3716TIP3    H132563   3.369   6.604   2.541  0.3710  0.1409 -0.0746
 3716TIP3    H232564   3.388   6.489   2.445 -0.2390 -0.0395  0.0138
 3717TIP3   OH232565   4.716   1.292   5.092  0.3373  0.0506  0.1768
 3717TIP3    H132566   4.737   1.236   5.017  2.2679  0.6616  0.2027
 3717TIP3    H232567   4.627   1.268   5.115 -0.0435 -0.7121 -1.8249
 3718TIP3   OH232568   3.728   2.422   1.271 -0.2129 -0.2921  0.3226
 3718TIP3    H132569   3.772   2.356   1.218  2.4774  0.9546  0.8735
 3718TIP3    H232570   3.743   2.396   1.362  1.0204  1.0587  0.5566
 3719TIP3   OH232571   4.921   5.814   2.868  0.7169 -0.3253  0.3279
 3719TIP3    H132572   4.870   5.894   2.854 -0.0572 -0.7010  0.9901
 3719TIP3    H232573   4.974   5.806   2.788  0.6211  0.7075  0.1455
 3720TIP3   OH232574   5.038   3.657  11.924  0.5675  0.5537 -0.2597
 3720TIP3    H132575   4.945   3.677  11.938 -0.0599 -1.9798 -0.3201
 3720TIP3    H232576   5.038   3.597  11.848  2.3302  1.0673 -0.7035
 3721TIP3   OH232577   5.553   5.660  11.059 -0.9567 -0.3015 -0.3702
 3721TIP3    H132578   5.532   5.567  11.070  0.5338 -0.3786  3.1455
 3721TIP3    H232579   5.607   5.663  10.980 -0.6261 -2.5074 -0.2876
 3722TIP3   OH232580   1.076   1.166  12.097 -0.4162  0.7251 -0.3801
 3722TIP3    H132581   1.123   1.229  12.152  0.3676  0.0103 -0.2065
 3722TIP3    H232582   1.010   1.219  12.051 -0.9009  1.3793  1.0215
 3723TIP3   OH232583   5.221   1.669   1.043  0.2523  0.3009 -0.8312
 3723TIP3    H132584   5.237   1.637   1.131 -2.3108  0.0705 -0.3716
 3723TIP3    H232585   5.248   1.597   0.986  0.1459 -0.3172 -0.1164
 3724TIP3   OH232586   2.460   4.833   3.377 -0.0753  0.3352  0.2177
 3724TIP3    H132587   2.391   4.871   3.431  0.5549  0.2177  1.1288
 3724TIP3    H232588   2.479   4.900   3.312 -0.9183  0.4431  0.0663
 3725TIP3   OH232589   1.824   2.153  12.952 -0.4841  0.1123 -0.0383
 3725TIP3    H132590   1.818   2.076  12.896 -1.2076  1.2123 -1.5452
 3725TIP3    H232591   1.774   2.130  13.031 -1.8287 -0.4856 -1.0373
 3726TIP3   OH232592   1.836   1.051   0.723 -0.1702 -0.3008 -0.7467
 3726TIP3    H132593   1.746   1.020   0.735  0.2587 -0.5222  2.6885
 3726TIP3    H232594   1.833   1.144   0.743  0.4154 -0.3662 -0.3407
 3727TIP3   OH232595   5.631   1.422   0.674 -0.7055  0.4391  0.3858
 3727TIP3    H132596   5.704   1.414   0.612 -0.6443 -0.3965  0.5532
 3727TIP3    H232597   5.661   1.376   0.752 -1.6445 -0.4579  0.2368
 3728TIP3   OH232598   5.974   4.320  13.711  0.2667  0.2017  0.1478
 3728TIP3    H132599   5.881   4.340  13.706  0.2996  0.2184 -0.5403
 3728TIP3    H232600   5.999   4.300  13.620  0.5749 -1.3798  0.5427
 3729TIP3   OH232601   1.008   2.666   2.859 -0.6393 -0.3062 -0.1125
 3729TIP3    H132602   0.978   2.745   2.902 -2.8475 -1.7665  1.2353
 3729TIP3    H232603   0.962   2.595   2.903 -0.4878 -2.1883 -2.7020
 3730TIP3   OH232604   5.539   1.074  14.568 -0.1155 -0.3834 -0.1920
 3730TIP3    H132605   5.555   0.997  14.623  0.8093  1.0031  1.6072
 3730TIP3    H232606   5.615   1.077  14.509  0.1607 -0.5053  0.1528
 3731TIP3   OH232607   2.186   2.067  10.506  0.0633 -0.4759  0.2617
 3731TIP3    H132608   2.269   2.049  10.550  0.3695  0.0636 -0.0801
 3731TIP3    H232609   2.175   2.162  10.515  0.5445 -0.2243 -1.5152
 3732TIP3   OH232610   3.649   4.956   1.236 -0.5676  0.5331  0.5812
 3732TIP3    H132611   3.577   5.011   1.267 -1.8757  0.6046 -2.2698
 3732TIP3    H232612   3.606   4.889   1.183  1.3875  0.0878 -0.5259
 3733TIP3   OH232613   0.644   5.074  12.251  0.5051 -0.1891  0.3424
 3733TIP3    H132614   0.560   5.064  12.207 -0.4266  2.2406  1.4474
 3733TIP3    H232615   0.642   5.010  12.322 -0.8023  0.4816  0.9207
 3734TIP3   OH232616   3.003   3.742  16.463 -0.0252 -0.4492  0.1426
 3734TIP3    H132617   3.086   3.697  16.477  1.2126  1.5643 -0.2606
 3734TIP3    H232618   3.002   3.761  16.369  0.0099  1.2226  0.4477
 3735TIP3   OH232619   4.485   5.773  14.414  0.2834  0.8056  0.1186
 3735TIP3    H132620   4.466   5.750  14.323 -1.6074  0.0900  0.6440
 3735TIP3    H232621   4.449   5.700  14.464 -1.8523  2.7752  1.6201
 3736TIP3   OH232622   5.337   5.921   6.125 -0.0985  0.6591 -0.5353
 3736TIP3    H132623   5.304   5.867   6.197  0.6346 -0.0819 -0.7376
 3736TIP3    H232624   5.303   6.009   6.143 -1.4123  0.1203 -0.2616
 3737TIP3   OH232625   1.334   6.642   3.680 -0.0528  0.2335  0.5665
 3737TIP3    H132626   1.325   6.673   3.590  1.6284 -0.7849  0.0193
 3737TIP3    H232627   1.244   6.630   3.709 -0.6320  0.3697 -1.0487
 3738TIP3   OH232628   6.737   4.280   0.024 -0.1795  0.3006  0.1174
 3738TIP3    H132629   6.684   4.231   0.087 -1.3189  1.1852 -0.1103
 3738TIP3    H232630   6.689   4.272  -0.059  1.5628 -1.2824 -0.8103
 3739TIP3   OH232631   4.314   4.516   2.145 -0.4916 -0.3460 -0.3387
 3739TIP3    H132632   4.297   4.610   2.135 -0.5234 -0.4801 -1.7564
 3739TIP3    H232633   4.333   4.505   2.238 -0.5339  1.0596 -0.1385
 3740TIP3   OH232634   6.427   2.499   1.902 -0.5209  0.2388  0.5657
 3740TIP3    H132635   6.348   2.491   1.849 -0.5136 -0.2710  0.6228
 3740TIP3    H232636   6.395   2.497   1.992 -0.4969  0.6686  0.5833
 3741TIP3   OH232637   0.579   6.195  15.504 -0.5046 -0.1560 -0.3686
 3741TIP3    H132638   0.588   6.142  15.425 -1.2728  0.0224 -0.5857
 3741TIP3    H232639   0.603   6.284  15.476  0.2498 -0.2830 -0.1395
 3742TIP3   OH232640   5.330   1.599   1.280  0.3581 -0.3071  0.0246
 3742TIP3    H132641   5.378   1.517   1.290  2.0448  0.3049 -2.2555
 3742TIP3    H232642   5.390   1.666   1.313 -0.8967  0.0919  1.6142
 3743TIP3   OH232643   3.304   5.102  14.586 -0.2949  0.1423  0.0478
 3743TIP3    H132644   3.250   5.073  14.512  1.0482  1.5248 -1.5509
 3743TIP3    H232645   3.283   5.195  14.596 -1.6559 -0.3410  2.5442
 3744TIP3   OH232646   6.636   4.144  12.174 -0.6217  0.0380  1.1320
 3744TIP3    H132647   6.623   4.084  12.248  1.4007  0.8574  2.2105
 3744TIP3    H232648   6.551   4.186  12.162 -1.1588 -0.5777  2.5684
 3745TIP3   OH232649   3.987   1.088  15.820  0.4751 -0.1361  0.1647
 3745TIP3    H132650   3.985   1.125  15.732 -1.0662  0.4780  0.4254
 3745TIP3    H232651   4.020   1.159  15.875  0.3092 -0.1250  0.2498
 3746TIP3   OH232652   5.387   2.542   5.603 -0.5258  0.1701 -0.4110
 3746TIP3    H132653   5.342   2.570   5.682  1.0333  1.1460  0.1797
 3746TIP3    H232654   5.476   2.577   5.612  1.3178 -3.9796 -0.1329
 3747TIP3   OH232655   0.958   5.379  14.265 -0.1547 -0.9311  0.2835
 3747TIP3    H132656   1.047   5.386  14.231 -0.2281 -2.4952 -0.3488
 3747TIP3    H232657   0.925   5.297  14.226 -1.3554 -1.1239  1.6458
 3748TIP3   OH232658   3.214   6.335   5.638  0.3686 -0.5699 -0.3449
 3748TIP3    H132659   3.170   6.322   5.554  2.1742  1.6742 -1.7421
 3748TIP3    H232660   3.302   6.301   5.625  2.0395  3.4362 -0.9090
 3749TIP3   OH232661   1.038   5.122   4.295  0.1226  0.9440 -0.3310
 3749TIP3    H132662   0.978   5.196   4.301 -0.3010  0.5957 -0.2039
 3749TIP3    H232663   1.078   5.115   4.382  0.6263  1.4017 -0.5196
 3750TIP3   OH232664   1.084   0.085   4.787  0.1175 -0.1771 -0.0749
 3750TIP3    H132665   1.129   0.163   4.819  0.7855 -0.1776 -0.9905
 3750TIP3    H232666   1.152   0.018   4.781 -0.5638 -1.0309  1.2890
 3751TIP3   OH232667   1.526   1.140   2.692 -0.2063  0.6224  0.0172
 3751TIP3    H132668   1.562   1.053   2.673 -2.0369 -0.2423  0.3170
 3751TIP3    H232669   1.445   1.144   2.642 -1.9659  0.7379  2.6934
 3752TIP3   OH232670   6.409   6.575  13.641 -0.0197 -0.0067 -0.4344
 3752TIP3    H132671   6.370   6.633  13.576 -1.1921 -1.1005 -0.7541
 3752TIP3    H232672   6.342   6.508  13.656  0.7087 -0.4504  1.0067
 3753TIP3   OH232673   5.149   6.193   5.584 -0.2014  0.0092  0.1297
 3753TIP3    H132674   5.202   6.272   5.595  0.1152 -0.3755  1.5870
 3753TIP3    H232675   5.178   6.156   5.500  1.4885  0.0832  0.6455
 3754TIP3   OH232676   2.647   4.557   5.122  0.7206  0.5392 -0.3911
 3754TIP3    H132677   2.602   4.580   5.203 -1.8268  2.6260 -2.2212
 3754TIP3    H232678   2.728   4.608   5.124  0.9939  0.0883  1.0665
 3755TIP3   OH232679   1.920   4.056  11.407  0.0779 -0.4926  0.4659
 3755TIP3    H132680   2.002   4.051  11.457  0.0466 -0.2993  0.5389
 3755TIP3    H232681   1.852   4.041  11.472 -0.0357  1.0683  0.7524
 3756TIP3   OH232682   2.382   0.352   2.637 -0.1646  0.2447  0.5379
 3756TIP3    H132683   2.324   0.344   2.713  0.8514 -0.6718  1.2575
 3756TIP3    H232684   2.339   0.416   2.580 -2.1726 -0.8489  0.7456
 3757TIP3   OH232685   1.983   3.528   1.997 -0.2564 -0.2391  0.9022
 3757TIP3    H132686   1.991   3.622   2.014  0.2016 -0.2612  0.8361
 3757TIP3    H232687   2.071   3.494   2.013 -0.0893 -0.4485 -0.3771
 3758TIP3   OH232688   1.941   6.043  14.970 -0.1227 -0.0014 -0.4425
 3758TIP3    H132689   1.949   5.964  15.025  0.8024 -0.2907 -0.9669
 3758TIP3    H232690   1.866   6.026  14.913 -1.8696  0.7964  1.4887
 3759TIP3   OH232691   0.139   5.664   1.127  0.5379  0.0953 -0.4692
 3759TIP3    H132692   0.188   5.647   1.207  1.6933 -0.3599 -1.2538
 3759TIP3    H232693   0.066   5.602   1.130  0.7785 -0.1653  0.0614
 3760TIP3   OH232694   1.630   5.143   1.177  0.1302  0.5085 -0.1790
 3760TIP3    H132695   1.637   5.165   1.084 -0.9190 -0.3237 -0.4719
 3760TIP3    H232696   1.579   5.062   1.179 -0.4235  0.8639  1.1603
 3761TIP3   OH232697   4.530   1.062  12.404 -0.2420 -0.8875  0.4163
 3761TIP3    H132698   4.467   1.028  12.341 -0.1167  0.5284 -0.5200
 3761TIP3    H232699   4.597   1.104  12.350  1.4339 -2.1735  1.3840
 3762TIP3   OH232700   4.947   3.627   2.219  0.4169  0.0583 -0.0204
 3762TIP3    H132701   4.967   3.716   2.191 -1.6275  0.9555  1.1090
 3762TIP3    H232702   5.032   3.585   2.232  1.4234  1.9411 -0.2882
 3763TIP3   OH232703   2.038   0.356   4.928  0.3425  0.5427  0.3979
 3763TIP3    H132704   2.051   0.316   5.014 -0.5592 -2.2685 -0.6593
 3763TIP3    H232705   1.946   0.382   4.928  0.4996  1.1111  0.4794
 3764TIP3   OH232706   5.188   6.173  12.319  0.8988  0.0317 -0.2361
 3764TIP3    H132707   5.142   6.177  12.235 -0.4124 -0.5096  0.4247
 3764TIP3    H232708   5.193   6.080  12.339  0.5179  0.1914  0.6389
 3765TIP3   OH232709   1.808   5.651  14.044 -0.2701 -0.0425  0.0758
 3765TIP3    H132710   1.828   5.615  13.957  0.9090  0.8862 -0.0564
 3765TIP3    H232711   1.810   5.575  14.102 -1.7329 -0.7937 -0.7720
 3766TIP3   OH232712   1.715   6.568  14.427  0.2190  0.2051 -0.2596
 3766TIP3    H132713   1.777   6.495  14.428 -0.3151 -0.2614  0.7699
 3766TIP3    H232714   1.633   6.530  14.394 -0.1428  0.2428  0.5532
 3767TIP3   OH232715   2.637   2.000   3.466  0.5007  0.1289 -0.4127
 3767TIP3    H132716   2.552   2.028   3.431  0.2042  0.0786  0.2430
 3767TIP3    H232717   2.693   1.993   3.389  0.3046  1.5255 -0.7090
 3768TIP3   OH232718   2.906   2.787  11.989  0.5568 -0.5211 -0.1865
 3768TIP3    H132719   2.903   2.743  11.904  0.3592  0.5897 -0.7671
 3768TIP3    H232720   2.996   2.776  12.019  0.7074 -0.6455 -0.6825
 3769TIP3   OH232721   2.258   2.641   4.251  0.2521  0.3853 -0.2254
 3769TIP3    H132722   2.164   2.654   4.246  0.3217  0.6408 -1.1909
 3769TIP3    H232723   2.295   2.730   4.245  0.5325  0.3929  1.2866
 3770TIP3   OH232724   5.606   0.814  14.420  0.2506 -0.3116 -0.3231
 3770TIP3    H132725   5.574   0.732  14.385  1.5739 -1.2839  0.6450
 3770TIP3    H232726   5.565   0.821  14.507 -0.8073  0.6796 -0.8759
 3771TIP3   OH232727   0.562   0.269  12.222  0.2705  0.3368 -0.9308
 3771TIP3    H132728   0.471   0.254  12.245  0.3727  0.2868 -0.5410
 3771TIP3    H232729   0.581   0.357  12.256  0.8014 -0.2593  0.4136
 3772TIP3   OH232730   4.631   6.441   0.655 -0.3252  0.5315 -0.0608
 3772TIP3    H132731   4.629   6.532   0.625  0.9969  0.0732 -1.6706
 3772TIP3    H232732   4.688   6.442   0.731 -2.8215  1.5275  1.9250
 3773TIP3   OH232733   4.474   6.200   3.165  0.4521  0.4358 -0.2890
 3773TIP3    H132734   4.451   6.118   3.122 -1.5130  1.8082 -2.0110
 3773TIP3    H232735   4.423   6.200   3.246  1.4822 -0.5926  0.3851
 3774TIP3   OH232736   3.024   1.449  13.757 -0.6290 -0.0217 -0.4882
 3774TIP3    H132737   2.976   1.532  13.754 -0.8358 -0.1410 -0.5131
 3774TIP3    H232738   3.102   1.465  13.705  0.8634  1.1136  1.9305
 3775TIP3   OH232739   6.048   4.430  11.121 -0.5599 -0.3140  0.3681
 3775TIP3    H132740   6.089   4.473  11.045  0.8051 -0.7682  0.8207
 3775TIP3    H232741   5.999   4.357  11.083 -0.7881  0.1097 -0.1713
 3776TIP3   OH232742   3.587   1.756  16.218  0.0957 -0.2168 -0.4145
 3776TIP3    H132743   3.641   1.730  16.144 -1.2025  0.4144 -1.6493
 3776TIP3    H232744   3.583   1.852  16.211 -2.4104 -0.3162 -1.3442
 3777TIP3   OH232745   4.210   6.695  14.454 -0.1980 -0.0580 -0.1283
 3777TIP3    H132746   4.260   6.625  14.412 -0.9687  0.1936 -1.5378
 3777TIP3    H232747   4.125   6.693  14.411 -0.4806  1.2662  0.3219
 3778TIP3   OH232748   5.860   5.649   1.095 -0.2452 -0.5702 -0.1297
 3778TIP3    H132749   5.837   5.619   1.007  0.0229 -2.8968  0.5299
 3778TIP3    H232750   5.815   5.733   1.105  0.1905  0.0263 -2.6643
 3779TIP3   OH232751   5.069   6.252   2.483  0.0267  0.0854 -0.0329
 3779TIP3    H132752   5.058   6.214   2.396 -0.4526 -0.5176  0.2911
 3779TIP3    H232753   5.011   6.202   2.540 -0.3980  1.0982  0.4648
 3780TIP3   OH232754   2.342   3.277  12.735  0.3521 -0.3829 -0.3393
 3780TIP3    H132755   2.399   3.337  12.782  0.3483  0.5077 -1.4274
 3780TIP3    H232756   2.271   3.258  12.796  1.1937 -0.5942  0.6071
 3781TIP3   OH232757   0.018   3.833  13.276  0.3475 -0.3535  0.4057
 3781TIP3    H132758   0.059   3.750  13.300 -0.8301 -0.5235  2.0128
 3781TIP3    H232759   0.024   3.836  13.181 -0.4952 -2.8120  0.2008
 3782TIP3   OH232760   5.591   4.848   2.580 -0.4682 -0.2656 -0.2603
 3782TIP3    H132761   5.516   4.907   2.583  0.8786  1.5490 -0.4005
 3782TIP3    H232762   5.619   4.841   2.671  0.7811  1.2800 -0.4854
 3783TIP3   OH232763   1.822   4.789  14.974  0.2130  0.4011  0.0037
 3783TIP3    H132764   1.822   4.838  14.891  2.3277  2.6282  1.2026
 3783TIP3    H232765   1.732   4.796  15.005 -0.4619  0.0983 -1.7362
 3784TIP3   OH232766   1.131   0.438  10.377  0.5307 -0.0177  0.7071
 3784TIP3    H132767   1.113   0.348  10.351 -0.2551 -0.1016  1.4853
 3784TIP3    H232768   1.091   0.492  10.309  0.8630 -0.2512  0.3257
 3785TIP3   OH232769   5.214   2.213  14.238 -0.0491 -0.1871 -0.8997
 3785TIP3    H132770   5.241   2.155  14.309 -1.3248 -1.2583 -1.2421
 3785TIP3    H232771   5.261   2.181  14.161 -0.7327 -0.7657 -1.0831
 3786TIP3   OH232772   2.599   0.226  16.340  0.8800  0.2067  0.4577
 3786TIP3    H132773   2.550   0.301  16.374 -0.0902 -0.0654 -0.2741
 3786TIP3    H232774   2.609   0.167  16.415  0.6809  0.5864  0.7838
 3787TIP3   OH232775   6.380   3.145   2.657 -0.2311 -0.2161 -0.0897
 3787TIP3    H132776   6.403   3.054   2.673  0.9607  0.1786  0.4826
 3787TIP3    H232777   6.306   3.162   2.715  0.2823 -0.4915  0.6515
 3788TIP3   OH232778   3.106   2.991  13.255 -0.6759  0.7156 -0.6585
 3788TIP3    H132779   3.165   2.916  13.260 -1.5599  0.0638  0.7422
 3788TIP3    H232780   3.118   3.026  13.167 -0.6162 -1.4098 -1.5547
 3789TIP3   OH232781   0.336   3.663   5.715 -0.0295  0.2780  0.0539
 3789TIP3    H132782   0.382   3.579   5.714  0.4009  0.4658  1.5814
 3789TIP3    H232783   0.394   3.722   5.763 -0.7537  1.1934 -0.1686
 3790TIP3   OH232784   6.232   1.204   0.226  0.7381  0.0092  0.2071
 3790TIP3    H132785   6.284   1.242   0.155 -1.9165  2.9564 -0.3813
 3790TIP3    H232786   6.199   1.122   0.190  0.2564  0.9599 -1.6753
 3791TIP3   OH232787   2.022   1.592   2.555 -0.5136  0.1690  0.0970
 3791TIP3    H132788   1.949   1.553   2.605  0.5841 -1.9800  0.1414
 3791TIP3    H232789   2.064   1.651   2.618 -1.8988  1.1165  0.2053
 3792TIP3   OH232790   0.440   1.886  10.743  1.1066  0.1460 -0.1651
 3792TIP3    H132791   0.528   1.848  10.740  0.8851 -0.3599 -0.3573
 3792TIP3    H232792   0.439   1.950  10.672  0.8854 -0.8330 -1.0771
 3793TIP3   OH232793   5.475   6.397  12.687  1.0047 -0.2686 -0.1990
 3793TIP3    H132794   5.477   6.492  12.700 -1.2895 -0.1276 -0.4657
 3793TIP3    H232795   5.494   6.362  12.774 -0.0273  0.4790  0.3552
 3794TIP3   OH232796   5.917   2.979  12.920 -0.6985  0.9769 -0.2697
 3794TIP3    H132797   5.995   2.926  12.902 -1.9023 -0.6039 -1.1351
 3794TIP3    H232798   5.938   3.065  12.885  1.4882  1.2809  1.5606
 3795TIP3   OH232799   1.771   3.440   2.152 -0.2825 -0.2948  0.5676
 3795TIP3    H132800   1.843   3.448   2.090  0.2135 -0.9061  1.0585
 3795TIP3    H232801   1.805   3.477   2.234 -0.3112 -1.1211  0.9651
 3796TIP3   OH232802   6.360   5.037   3.124 -0.2634  1.1908  0.1488
 3796TIP3    H132803   6.307   5.051   3.045  0.0374 -0.7123 -0.4432
 3796TIP3    H232804   6.371   5.125   3.161 -0.6896  2.0939 -1.7321
 3797TIP3   OH232805   4.584   2.897   1.022  0.0416 -0.3153 -0.1142
 3797TIP3    H132806   4.616   2.807   1.008 -1.9093 -0.9544 -0.7754
 3797TIP3    H232807   4.533   2.917   0.943 -0.1801  1.1056  0.3636
 3798TIP3   OH232808   1.149   4.641  15.500  0.2997  0.0463  0.0958
 3798TIP3    H132809   1.089   4.598  15.439 -2.2709 -0.6575  2.9041
 3798TIP3    H232810   1.102   4.718  15.530  1.7404  0.6977  0.7738
 3799TIP3   OH232811   0.385   4.868   0.023 -0.4841  0.2753  0.2536
 3799TIP3    H132812   0.454   4.840  -0.038 -0.1813 -1.2715  1.2640
 3799TIP3    H232813   0.304   4.861  -0.028 -0.2213 -0.9004 -0.0314
 3800TIP3   OH232814   3.504   1.479   4.541  0.0330 -0.3124 -0.4193
 3800TIP3    H132815   3.510   1.425   4.462 -1.6675 -1.8571  0.4108
 3800TIP3    H232816   3.424   1.530   4.529  1.2781  1.6644 -0.8982
 3801TIP3   OH232817   2.465   5.916   0.399  0.1567 -0.4502  0.6142
 3801TIP3    H132818   2.544   5.932   0.450  0.9608  0.2679 -0.7863
 3801TIP3    H232819   2.493   5.921   0.307 -1.4395 -0.5537  0.0693
 3802TIP3   OH232820   4.839   1.514  13.351  0.3904  0.2806 -0.1507
 3802TIP3    H132821   4.761   1.568  13.365  1.3120  1.4692  0.5629
 3802TIP3    H232822   4.912   1.573  13.366  1.4831 -1.4269  1.7442
 3803TIP3   OH232823   2.677   4.872   4.531 -0.1709 -0.0905 -0.2644
 3803TIP3    H132824   2.585   4.894   4.516 -0.0859  0.8907  0.5095
 3803TIP3    H232825   2.725   4.930   4.472  0.0151  1.0173  0.9398
 3804TIP3   OH232826   4.186   0.123   2.727  0.0198 -0.3379 -0.5857
 3804TIP3    H132827   4.121   0.187   2.756  0.5376  0.1962 -0.5717
 3804TIP3    H232828   4.135   0.050   2.693 -0.5853  0.2466 -0.9585
 3805TIP3   OH232829   4.879   0.848  14.934 -0.0006  0.4017  0.0490
 3805TIP3    H132830   4.904   0.797  15.011 -2.4450 -0.2955  0.4832
 3805TIP3    H232831   4.792   0.816  14.912 -0.0089  1.6943 -2.0834
 3806TIP3   OH232832   0.066   1.018   5.150 -0.0607  0.1464  0.2912
 3806TIP3    H132833   0.013   0.975   5.217  0.3760  0.2440  0.7058
 3806TIP3    H232834   0.071   1.109   5.177 -0.8480  0.4415 -0.5024
 3807TIP3   OH232835   1.138   0.279  16.469  0.1300 -0.7296  0.4148
 3807TIP3    H132836   1.180   0.214  16.413  0.2310  0.3279 -0.7765
 3807TIP3    H232837   1.060   0.305  16.421  0.0719 -0.0029  0.8858
 3808TIP3   OH232838   4.826   1.652   6.172 -0.3767  0.2397  0.7040
 3808TIP3    H132839   4.854   1.561   6.183 -0.3575  0.1478 -0.0147
 3808TIP3    H232840   4.747   1.646   6.118  0.3392  0.7137 -0.4426
 3809TIP3   OH232841   4.916   3.460   4.853  0.1522 -0.5084 -0.3356
 3809TIP3    H132842   4.957   3.535   4.810 -1.0967  0.2748 -0.2334
 3809TIP3    H232843   4.904   3.396   4.783  0.4564 -0.2630 -0.6134
 3810TIP3   OH232844   3.428   4.578   0.902 -0.5471  0.2496  0.1172
 3810TIP3    H132845   3.404   4.536   0.819 -0.4547 -1.6923  0.9972
 3810TIP3    H232846   3.470   4.508   0.952  0.2676  1.6276  1.4414
 3811TIP3   OH232847   4.376   3.893  14.366 -0.1408 -0.3839 -0.0445
 3811TIP3    H132848   4.383   3.982  14.333  1.5085 -1.2368 -2.2204
 3811TIP3    H232849   4.289   3.863  14.338  0.4187 -0.3799 -1.8683
 3812TIP3   OH232850   1.395   5.808   0.002 -0.8043  0.0469 -0.1588
 3812TIP3    H132851   1.313   5.855  -0.009 -0.9125 -0.1525 -0.2188
 3812TIP3    H232852   1.382   5.755   0.081 -1.0204 -0.5799 -0.6120
 3813TIP3   OH232853   0.114   0.961   1.075 -0.1124 -0.1334 -0.3275
 3813TIP3    H132854   0.077   0.974   0.988 -0.5970 -0.2043 -0.1340
 3813TIP3    H232855   0.137   0.868   1.078 -0.0534 -0.1210 -0.3943
 3814TIP3   OH232856   3.589   3.931   2.215  0.0315 -0.0408  0.5977
 3814TIP3    H132857   3.534   3.999   2.176 -0.5383 -0.3629  0.8267
 3814TIP3    H232858   3.527   3.867   2.251  0.5203  0.2375  2.0168
 3815TIP3   OH232859   5.373   5.250   0.501  0.3883 -0.4377 -0.3672
 3815TIP3    H132860   5.381   5.284   0.412  0.0468 -0.7907 -0.5397
 3815TIP3    H232861   5.365   5.155   0.489  0.5414 -0.5065  0.0534
 3816TIP3   OH232862   4.564   2.240   2.473  0.4042 -0.2591 -0.5967
 3816TIP3    H132863   4.603   2.156   2.494  1.4850  0.0455 -1.2891
 3816TIP3    H232864   4.565   2.289   2.555 -0.0832 -0.8409 -0.2278
 3817TIP3   OH232865   0.865   3.872  12.394  0.3997 -0.0684  0.0523
 3817TIP3    H132866   0.910   3.928  12.457  1.2399 -0.4808 -0.1524
 3817TIP3    H232867   0.772   3.883  12.412  0.6327 -0.3946  1.5447
 3818TIP3   OH232868   1.985   3.480   0.891  0.2309 -0.0613 -0.8120
 3818TIP3    H132869   1.921   3.457   0.824  0.3662 -1.7961 -0.3844
 3818TIP3    H232870   1.988   3.404   0.950  1.7105  0.5110 -0.0822
 3819TIP3   OH232871   6.742   0.533  14.461 -0.1978  0.0596 -0.1314
 3819TIP3    H132872   6.832   0.559  14.443 -0.3474  0.8517  0.2387
 3819TIP3    H232873   6.751   0.457  14.519  0.2568 -1.5037 -2.1249
 3820TIP3   OH232874   1.600   0.907   0.799  0.5557  0.0192 -0.4341
 3820TIP3    H132875   1.527   0.906   0.737  0.0679 -0.6457  0.1239
 3820TIP3    H232876   1.558   0.918   0.885  0.9743 -1.6375  0.0288
 3821TIP3   OH232877   4.217   3.685  13.848 -0.1873 -0.3186  0.7157
 3821TIP3    H132878   4.168   3.609  13.818 -0.7878 -0.7125  2.5745
 3821TIP3    H232879   4.240   3.664  13.939 -0.1158  1.6080  1.1711
 3822TIP3   OH232880   6.763   2.477  13.796 -0.0788  0.2584  0.4740
 3822TIP3    H132881   6.740   2.528  13.718 -2.6583  1.0022  1.5983
 3822TIP3    H232882   6.804   2.540  13.855  2.3907 -0.4244 -0.3907
 3823TIP3   OH232883   5.630   6.476  16.752  0.2530  0.0129  0.0320
 3823TIP3    H132884   5.688   6.495  16.825  0.5079 -0.8302  0.0606
 3823TIP3    H232885   5.599   6.562  16.722  1.6124  0.4887 -0.0697
 3824TIP3   OH232886   2.666   4.818  13.364 -0.2826 -0.5760  0.1989
 3824TIP3    H132887   2.700   4.801  13.276  0.0148 -3.1217  0.7077
 3824TIP3    H232888   2.571   4.809  13.355 -0.7967  3.7838 -0.6695
 3825TIP3   OH232889   5.752   4.910  14.831  0.7601 -0.2419  0.1653
 3825TIP3    H132890   5.759   4.961  14.912  0.2129  1.5194 -0.8562
 3825TIP3    H232891   5.716   4.825  14.859  1.8476 -0.1684  1.9286
 3826TIP3   OH232892   4.539   5.914   4.142  0.5091 -0.0921 -0.3837
 3826TIP3    H132893   4.561   5.979   4.209  0.3399 -0.3556 -0.0706
 3826TIP3    H232894   4.565   5.955   4.059 -0.9923  1.0223 -0.3579
 3827TIP3   OH232895   0.687   0.639  11.957  0.1463 -0.1729  0.6638
 3827TIP3    H132896   0.626   0.572  11.925 -1.2927  2.0256 -1.5658
 3827TIP3    H232897   0.753   0.646  11.888 -0.8278  1.9612 -0.1518
 3828TIP3   OH232898   3.659   6.535   3.948  0.3564 -1.1323 -0.0102
 3828TIP3    H132899   3.569   6.567   3.945  0.9438  0.6089 -0.0049
 3828TIP3    H232900   3.711   6.605   3.908  1.6625 -2.3300 -0.5013
 3829TIP3   OH232901   4.682   5.134   1.593  0.9400 -0.5843  0.2781
 3829TIP3    H132902   4.709   5.218   1.630  1.5425  1.4849 -4.2616
 3829TIP3    H232903   4.762   5.081   1.590  0.8500 -0.8617  1.8262
 3830TIP3   OH232904   2.072   5.569  17.065  0.3270  0.3173 -0.9778
 3830TIP3    H132905   2.139   5.569  17.133  0.5754 -2.6235 -1.1086
 3830TIP3    H232906   2.115   5.532  16.988 -1.2110 -0.9243 -1.2924
 3831TIP3   OH232907   6.484   0.640  10.710 -0.1133 -0.1138 -0.2095
 3831TIP3    H132908   6.459   0.730  10.690  0.4167  0.7039  2.3985
 3831TIP3    H232909   6.556   0.621  10.650  2.5259  2.7559  1.6948
 3832TIP3   OH232910   3.189   0.217  15.184 -0.0811  0.3210  0.0144
 3832TIP3    H132911   3.101   0.239  15.215  0.2313 -0.3873  1.5047
 3832TIP3    H232912   3.205   0.278  15.113 -1.6513  0.6817 -0.0701
 3833TIP3   OH232913   4.037   1.475  12.935 -0.1578  0.0915 -0.1363
 3833TIP3    H132914   4.132   1.471  12.930 -0.1296  0.9617 -0.4192
 3833TIP3    H232915   4.009   1.487  12.845 -0.6236 -1.5115 -0.2323
 3834TIP3   OH232916   3.281   3.729   5.521 -0.4020  0.2187  0.3873
 3834TIP3    H132917   3.234   3.809   5.500  0.1735  0.1048 -1.4587
 3834TIP3    H232918   3.223   3.658   5.492  0.8945  0.0799 -2.1331
 3835TIP3   OH232919   2.650   3.466  11.898  0.2063 -0.3396  0.4767
 3835TIP3    H132920   2.594   3.517  11.840 -1.0946 -0.9478  1.1579
 3835TIP3    H232921   2.732   3.514  11.901  1.0151 -1.1894 -3.3035
 3836TIP3   OH232922   6.634   3.882   4.866 -0.0550 -0.0859 -0.2764
 3836TIP3    H132923   6.704   3.875   4.930 -0.5545  0.8931  0.4000
 3836TIP3    H232924   6.570   3.941   4.906 -1.0573 -0.5993 -1.0660
 3837TIP3   OH232925   1.095   1.574   0.878  0.1491  0.1522 -0.3662
 3837TIP3    H132926   1.011   1.528   0.880  1.0277 -1.5639  0.0039
 3837TIP3    H232927   1.151   1.523   0.938  1.3537  1.4468 -0.3262
 3838TIP3   OH232928   2.883   5.656  15.642 -0.2921  0.1081 -0.3330
 3838TIP3    H132929   2.831   5.720  15.592 -0.4583 -0.6315 -1.1423
 3838TIP3    H232930   2.884   5.690  15.731 -2.4809 -0.0162 -0.2087
 3839TIP3   OH232931   0.391   2.732  10.951 -0.2486  0.1227  0.0804
 3839TIP3    H132932   0.405   2.782  10.870 -0.1743  0.4388  0.2846
 3839TIP3    H232933   0.471   2.745  11.001 -0.5309  0.4263  0.4640
 3840TIP3   OH232934   4.160   4.074  17.050  0.2543 -0.4414 -0.0757
 3840TIP3    H132935   4.250   4.063  17.020 -0.0326 -2.1738 -0.4249
 3840TIP3    H232936   4.153   4.018  17.127 -0.0277  1.1617  1.1211
 3841TIP3   OH232937   2.260   3.884  14.839  0.0279  0.2801 -0.0992
 3841TIP3    H132938   2.169   3.881  14.809  0.3442  0.2327 -1.0754
 3841TIP3    H232939   2.305   3.941  14.776  0.8741 -0.4559 -0.1800
 3842TIP3   OH232940   2.911   3.946  10.748  0.4142 -0.7334 -0.1005
 3842TIP3    H132941   2.883   3.879  10.810 -0.6260 -1.5808 -1.4463
 3842TIP3    H232942   3.007   3.944  10.753  0.3690 -1.3500  0.8496
 3843TIP3   OH232943   3.955   5.522  11.497 -0.2663 -0.6994  0.0964
 3843TIP3    H132944   4.014   5.450  11.518 -0.7399 -1.9009 -2.3465
 3843TIP3    H232945   3.871   5.496  11.535  0.0078 -0.4391  0.9215
 3844TIP3   OH232946   4.131   0.050   0.292  0.7693 -0.2670  0.2444
 3844TIP3    H132947   4.035   0.055   0.283  0.7833  1.1875  0.7463
 3844TIP3    H232948   4.162   0.137   0.268  2.0820 -1.0454 -1.0184
 3845TIP3   OH232949   4.151   5.913   1.832  0.0193 -0.0808 -0.7849
 3845TIP3    H132950   4.148   5.819   1.816 -0.1829 -0.3308  0.5686
 3845TIP3    H232951   4.225   5.944   1.780  1.8130 -1.4443  0.8112
 3846TIP3   OH232952   3.220   2.611  16.432 -0.7553 -0.5614 -0.2398
 3846TIP3    H132953   3.258   2.544  16.375 -1.2946 -0.0639 -1.2321
 3846TIP3    H232954   3.294   2.647  16.481 -0.5585 -2.3515  0.8389
 3847TIP3   OH232955   3.059   5.035  15.628 -0.4090 -0.7363  0.3043
 3847TIP3    H132956   3.111   5.052  15.707 -0.3837 -0.5101  0.2377
 3847TIP3    H232957   2.978   4.996  15.661 -0.4282 -0.5754  0.4473
 3848TIP3   OH232958   4.173   2.620  16.371 -0.2554  0.7005  0.2384
 3848TIP3    H132959   4.221   2.639  16.290  0.4891  1.0839  0.7610
 3848TIP3    H232960   4.236   2.636  16.441 -0.7374 -0.1119  0.8801
 3849TIP3   OH232961   1.812   0.231  14.268  0.6319  0.1152  0.2140
 3849TIP3    H132962   1.836   0.154  14.320  1.1692  1.8007  2.6338
 3849TIP3    H232963   1.840   0.210  14.179  1.9421 -1.9589  1.0462
 3850TIP3   OH232964   5.371   4.368   1.693  0.1503 -0.0355  0.3602
 3850TIP3    H132965   5.393   4.454   1.729  0.3767 -0.0013  0.1451
 3850TIP3    H232966   5.276   4.367   1.688  0.1621  0.3339  0.0502
 3851TIP3   OH232967   1.541   1.827  11.627 -0.1393  0.1314  0.3112
 3851TIP3    H132968   1.531   1.798  11.536 -0.7680  1.2870 -0.0147
 3851TIP3    H232969   1.485   1.767  11.677 -0.0079 -0.3425 -0.0995
 3852TIP3   OH232970   4.962   6.121  14.516 -0.2785 -0.0413  0.0749
 3852TIP3    H132971   4.945   6.047  14.457 -2.6129  1.0928 -0.8104
 3852TIP3    H232972   4.929   6.093  14.601  2.0608 -1.2573  0.6629
 3853TIP3   OH232973   3.726   1.793  15.725 -0.6623 -0.0537 -0.0708
 3853TIP3    H132974   3.666   1.866  15.709 -1.6260 -1.0956 -1.3985
 3853TIP3    H232975   3.785   1.793  15.649 -2.1046 -1.9888 -1.2685
 3854TIP3   OH232976   3.513   2.753  16.776 -0.5067 -0.4577  1.0257
 3854TIP3    H132977   3.438   2.776  16.832 -1.2100 -1.0329  0.3482
 3854TIP3    H232978   3.589   2.785  16.823 -1.2625  1.0737  1.2424
 3855TIP3   OH232979   2.300   5.351   1.156 -0.0576 -0.0265 -0.4195
 3855TIP3    H132980   2.387   5.312   1.164  0.0657  0.6371  3.0930
 3855TIP3    H232981   2.307   5.411   1.083  2.2163 -0.5483 -0.6995
 3856TIP3   OH232982   3.101   1.471  15.091 -0.4540  0.0220  0.1779
 3856TIP3    H132983   3.006   1.483  15.091 -0.2783  1.6048  0.5999
 3856TIP3    H232984   3.137   1.558  15.072  0.9144 -0.5551  0.0023
 3857TIP3   OH232985   6.580   1.319  16.094  0.0280  0.1634 -0.2418
 3857TIP3    H132986   6.533   1.403  16.092 -0.5749 -0.0593  2.1780
 3857TIP3    H232987   6.512   1.253  16.105  0.7633 -0.2475  2.3025
 3858TIP3   OH232988   5.441   2.162  10.699  0.1226  0.3990  1.0391
 3858TIP3    H132989   5.520   2.122  10.663 -0.1116 -0.2998  1.2834
 3858TIP3    H232990   5.402   2.209  10.625  0.4708  0.2851  0.7802
 3859TIP3   OH232991   3.023   6.808   2.691  1.0099 -0.1334  0.2628
 3859TIP3    H132992   3.072   6.831   2.770  0.9795  0.0216  0.2376
 3859TIP3    H232993   3.035   6.714   2.681 -0.3140 -0.4443  1.3533
 3860TIP3   OH232994   2.282   1.932   0.766 -0.3731  0.7696 -0.0446
 3860TIP3    H132995   2.201   1.982   0.754 -1.0653 -0.6736 -2.0723
 3860TIP3    H232996   2.332   1.947   0.686 -0.0411 -0.7169 -0.1616
 3861TIP3   OH232997   0.405   2.784  15.811  0.1435 -0.7054 -0.3847
 3861TIP3    H132998   0.397   2.688  15.810 -0.2849 -0.6680 -0.7716
 3861TIP3    H232999   0.398   2.810  15.719  0.1536 -0.2961 -0.2717
 3862TIP3   OH233000   2.997   3.748   3.573  0.2755 -0.2622 -0.4443
 3862TIP3    H133001   2.935   3.694   3.622  0.4762  0.9001  1.1880
 3862TIP3    H233002   3.082   3.709   3.591  0.3276  0.0395 -0.0217
 3863TIP3   OH233003   3.655   3.516  15.607 -0.6800  0.4514 -0.4501
 3863TIP3    H133004   3.601   3.550  15.679  0.5757  1.9387 -0.1617
 3863TIP3    H233005   3.704   3.443  15.647 -0.3727  0.9341  0.0709
 3864TIP3   OH233006   0.628   3.470  16.186  0.3480 -0.3183  0.9302
 3864TIP3    H133007   0.647   3.550  16.136 -0.6800  0.2489  1.4230
 3864TIP3    H233008   0.648   3.399  16.126  1.9953  0.2740  0.7208
 3865TIP3   OH233009   2.555   5.016   5.565  0.7405  0.0847  0.1853
 3865TIP3    H133010   2.625   5.048   5.508  1.5371 -1.5746  0.1800
 3865TIP3    H233011   2.585   4.931   5.595 -1.1485 -0.5427  0.4385
 3866TIP3   OH233012   4.496   4.795   4.038 -0.4804 -0.1627  0.8958
 3866TIP3    H133013   4.559   4.723   4.038 -0.5640 -0.2407  0.4537
 3866TIP3    H233014   4.444   4.781   4.117  0.1525 -0.0046  1.3562
 3867TIP3   OH233015   4.855   0.001   0.272 -0.1240 -0.4803 -0.5170
 3867TIP3    H133016   4.950  -0.005   0.283 -0.2341 -0.3760  0.6030
 3867TIP3    H233017   4.825  -0.090   0.276 -0.0924 -0.4951 -0.6200
 3868TIP3   OH233018   6.441   5.646  16.703 -0.0892  0.1441 -0.3097
 3868TIP3    H133019   6.436   5.571  16.763  0.2172  0.5197  0.1999
 3868TIP3    H233020   6.353   5.685  16.707 -0.3893 -0.4542 -0.9377
 3869TIP3   OH233021   1.514   6.438  12.478 -0.0445  0.2316 -0.6100
 3869TIP3    H133022   1.543   6.467  12.565 -2.2614 -0.3913  0.4106
 3869TIP3    H233023   1.419   6.440  12.483 -0.2541 -2.1869 -2.2192
 3870TIP3   OH233024   0.983   5.596   2.240  0.4968  0.1802 -0.0263
 3870TIP3    H133025   0.975   5.561   2.151 -0.1228 -4.9264  1.7126
 3870TIP3    H233026   1.077   5.611   2.252  0.6187  0.6145 -1.4155
 3871TIP3   OH233027   4.363   6.504  12.233 -0.0163 -0.3210 -0.1866
 3871TIP3    H133028   4.424   6.502  12.307  0.1267 -0.9631 -0.3183
 3871TIP3    H233029   4.298   6.571  12.258  0.0307 -0.5261  0.5234
 3872TIP3   OH233030   3.401   4.696  10.854  0.7684 -0.3203 -0.0046
 3872TIP3    H133031   3.379   4.635  10.784  1.4877  0.6926 -1.1359
 3872TIP3    H233032   3.496   4.693  10.860  0.8678  1.1487 -0.5121
 3873TIP3   OH233033   6.246   2.254  12.259  0.2299  0.5096  0.3657
 3873TIP3    H133034   6.204   2.312  12.322 -0.5567  1.9662 -1.3992
 3873TIP3    H233035   6.203   2.274  12.176  2.6757  0.2494 -1.0658
 3874TIP3   OH233036   4.340   4.628   1.354  0.1615 -0.1550  0.3021
 3874TIP3    H133037   4.334   4.585   1.269  1.1072 -0.7846  0.5342
 3874TIP3    H233038   4.406   4.696   1.343 -0.4615  0.4591  0.2646
 3875TIP3   OH233039   1.348   6.404   0.749 -0.4396  0.1803 -0.4232
 3875TIP3    H133040   1.406   6.449   0.811 -0.3600 -1.2995  0.6193
 3875TIP3    H233041   1.275   6.465   0.737  0.4767  1.3230 -0.4060
 3876TIP3   OH233042   6.765   1.249   5.757 -0.3918  0.3381  0.0220
 3876TIP3    H133043   6.840   1.231   5.813 -0.0122 -0.3563 -0.6742
 3876TIP3    H233044   6.691   1.208   5.801 -0.0756 -0.3063 -0.0295
 3877TIP3   OH233045   6.006   0.257   5.964  0.0777 -0.3169  0.3647
 3877TIP3    H133046   6.001   0.195   5.892 -0.1508  1.0392 -0.8395
 3877TIP3    H233047   5.923   0.246   6.011  0.2361 -1.2259  0.4508
 3878TIP3   OH233048   0.874   0.100   0.965  0.2873 -0.3179 -0.0322
 3878TIP3    H133049   0.825   0.028   0.925  0.8900  0.0309 -1.4518
 3878TIP3    H233050   0.897   0.068   1.052  0.5516 -1.8549 -0.6415
 3879TIP3   OH233051   3.889   1.818  16.582  0.1661 -0.8729 -0.2022
 3879TIP3    H133052   3.941   1.788  16.657 -0.2819  0.4379  0.6469
 3879TIP3    H233053   3.819   1.753  16.574 -1.8453  0.7375  2.7380
 3880TIP3   OH233054   5.433   3.031   4.952 -0.6047 -0.0021  0.2146
 3880TIP3    H133055   5.340   3.008   4.957 -0.4389 -0.5255  1.3196
 3880TIP3    H233056   5.478   2.947   4.959 -0.0358  0.3730  1.3815
 3881TIP3   OH233057   3.931   0.876  16.123 -0.0328  0.0116  0.8407
 3881TIP3    H133058   3.961   0.967  16.124 -0.1528  0.1402 -1.8146
 3881TIP3    H233059   4.012   0.824  16.125  0.2335  0.2789 -1.1846
 3882TIP3   OH233060   4.546   3.863  10.931  0.3032 -0.5521 -0.1937
 3882TIP3    H133061   4.457   3.896  10.925  1.2740  2.5115  0.5366
 3882TIP3    H233062   4.563   3.825  10.844 -1.4746 -0.6278 -0.5387
 3883TIP3   OH233063   2.760   1.051   3.409 -0.5053 -0.4630 -0.1543
 3883TIP3    H133064   2.848   1.081   3.386 -0.6231 -1.3626 -1.8686
 3883TIP3    H233065   2.726   1.119   3.467  0.9903  0.3216 -0.1603
 3884TIP3   OH233066   2.426   2.746  14.844  0.1950 -0.0678  0.7725
 3884TIP3    H133067   2.499   2.771  14.788 -0.6170 -3.5311 -2.2180
 3884TIP3    H233068   2.357   2.808  14.823  0.7754  0.3405  0.0097
 3885TIP3   OH233069   6.222   5.140  13.151  0.3810  0.8565 -0.3872
 3885TIP3    H133070   6.230   5.134  13.055 -1.3536 -0.6871 -0.4852
 3885TIP3    H233071   6.137   5.181  13.166  1.4548  2.8802  0.5451
 3886TIP3   OH233072   4.295   0.334   5.500 -0.0506  0.7835  0.5827
 3886TIP3    H133073   4.266   0.366   5.414  0.2027 -1.0497 -0.2527
 3886TIP3    H233074   4.283   0.239   5.495  0.8171  0.5431  2.2599
 3887TIP3   OH233075   0.719   4.022   0.403 -0.2858 -0.2837  0.3671
 3887TIP3    H133076   0.748   3.933   0.424  2.2126  0.2042 -0.7314
 3887TIP3    H233077   0.710   4.023   0.308 -1.0353  0.4609  0.4325
 3888TIP3   OH233078   1.208   2.025   1.376 -0.1818 -0.0948  0.4709
 3888TIP3    H133079   1.225   1.955   1.312  0.7210  0.3141  0.2445
 3888TIP3    H233080   1.130   1.996   1.423 -0.4961 -0.7099 -0.3909
 3889TIP3   OH233081   1.296   4.807   3.986  0.2526 -0.8024  0.3895
 3889TIP3    H133082   1.251   4.849   4.059  0.4854 -1.9739  1.2460
 3889TIP3    H233083   1.261   4.718   3.984  0.3879 -0.8532 -0.8189
 3890TIP3   OH233084   2.446   1.571   0.890  0.2189 -0.3748  0.7084
 3890TIP3    H133085   2.397   1.649   0.917  0.2523 -0.1914  0.2428
 3890TIP3    H233086   2.448   1.516   0.969  1.7250  0.8517  1.5939
 3891TIP3   OH233087   0.679   2.710  14.967 -0.1598 -1.0575  0.1274
 3891TIP3    H133088   0.754   2.760  14.935 -1.0904  0.1780 -0.2083
 3891TIP3    H233089   0.716   2.627  14.997  1.4318 -0.2158  0.6034
 3892TIP3   OH233090   0.500   4.492   4.340  1.0032  0.0497  0.3802
 3892TIP3    H133091   0.437   4.420   4.342 -0.1332  1.0148  1.1443
 3892TIP3    H233092   0.575   4.458   4.291  0.4275 -1.5778  0.5746
 3893TIP3   OH233093   6.576   2.157   1.288 -0.0113  0.0750 -0.4710
 3893TIP3    H133094   6.575   2.230   1.225 -1.2291  0.6069  0.1327
 3893TIP3    H233095   6.536   2.085   1.240 -1.7904  0.7386 -0.0455
 3894TIP3   OH233096   3.374   6.607   3.934 -0.3672 -0.1428  0.2460
 3894TIP3    H133097   3.354   6.559   3.853  0.3586 -1.4507  0.8139
 3894TIP3    H233098   3.304   6.582   3.994 -0.2249 -0.1488  0.4094
 3895TIP3   OH233099   3.423   1.561  15.308  0.2417  0.3379  0.0248
 3895TIP3    H133100   3.332   1.565  15.337  0.1869 -1.3416  0.2187
 3895TIP3    H233101   3.418   1.523  15.221  0.7172  1.0354 -0.3150
 3896TIP3   OH233102   4.710   2.657   0.326 -0.0979  0.2188  0.5052
 3896TIP3    H133103   4.708   2.742   0.284 -1.7053 -1.3281 -2.9366
 3896TIP3    H233104   4.625   2.650   0.370  0.0067  0.3690  0.7309
 3897TIP3   OH233105   0.718   5.409  11.903  0.2961  0.1027 -0.3386
 3897TIP3    H133106   0.749   5.466  11.832 -1.2658  0.5502 -0.6994
 3897TIP3    H233107   0.772   5.432  11.978  1.2385  0.4021 -1.0875
 3898TIP3   OH233108   3.382   6.812   3.155 -0.0429  0.0567 -0.4122
 3898TIP3    H133109   3.391   6.761   3.235 -1.0382  0.0672 -0.2857
 3898TIP3    H233110   3.458   6.870   3.155 -1.2050  1.7241  1.7365
 3899TIP3   OH233111   6.484   2.769   1.182 -0.1308  0.0831  0.3237
 3899TIP3    H133112   6.539   2.737   1.253  1.4012 -1.2060 -1.3167
 3899TIP3    H233113   6.531   2.845   1.147  1.1871 -1.4952 -1.5943
 3900TIP3   OH233114   3.622   4.872  13.586 -0.1812 -1.4266 -0.4757
 3900TIP3    H133115   3.612   4.779  13.606  0.2939 -1.3960 -0.0871
 3900TIP3    H233116   3.702   4.898  13.631 -0.8134 -0.6001  0.2212
 3901TIP3   OH233117   1.757   2.690  14.678  0.7314  0.2596 -0.0410
 3901TIP3    H133118   1.801   2.665  14.597 -0.2513  0.4573 -0.6438
 3901TIP3    H233119   1.789   2.628  14.743 -0.1520 -1.3261 -1.0665
 3902TIP3   OH233120   6.226   3.026   6.667  0.2729 -0.6306  0.1164
 3902TIP3    H133121   6.143   2.987   6.640 -0.0607 -0.1413  0.4158
 3902TIP3    H233122   6.209   3.120   6.669  1.3319 -0.3465 -1.5638
 3903TIP3   OH233123   2.253   0.236   3.905  0.8053  0.1363  0.2258
 3903TIP3    H133124   2.196   0.189   3.966  1.9971 -0.2843  1.0675
 3903TIP3    H233125   2.222   0.210   3.818 -0.8276  0.6287  0.6230
 3904TIP3   OH233126   6.266   3.453  14.507  0.2072 -0.3524 -0.4647
 3904TIP3    H133127   6.295   3.534  14.549 -2.1096  0.2333  0.1445
 3904TIP3    H233128   6.310   3.452  14.422 -0.0318  1.7617 -0.6449
 3905TIP3   OH233129   1.041   0.549  12.940 -0.4033 -0.0085  0.1697
 3905TIP3    H133130   1.047   0.547  12.844  0.7275 -3.8650  0.1471
 3905TIP3    H233131   1.132   0.552  12.970 -0.7589  1.6880  1.1982
 3906TIP3   OH233132   1.691   2.934   0.995 -0.1148  0.3694 -0.1311
 3906TIP3    H133133   1.770   2.883   1.010 -0.8426 -0.8823 -0.4043
 3906TIP3    H233134   1.642   2.927   1.076 -0.3302  0.4262 -0.2555
 3907TIP3   OH233135   6.172   5.622  10.723 -0.0633 -0.5934 -0.2607
 3907TIP3    H133136   6.185   5.563  10.798 -3.5809  0.7593  1.6789
 3907TIP3    H233137   6.195   5.708  10.757  0.8909 -0.2780 -1.6579
 3908TIP3   OH233138   6.454   4.979   2.180 -0.1914 -0.1530 -0.0132
 3908TIP3    H133139   6.479   4.964   2.089  0.3268  1.2226 -0.1262
 3908TIP3    H233140   6.502   4.913   2.229 -0.1449 -0.6402 -0.7053
 3909TIP3   OH233141   5.599   1.677  15.690  0.1013 -0.5932 -0.8663
 3909TIP3    H133142   5.623   1.633  15.608  0.9771 -1.9682  0.0998
 3909TIP3    H233143   5.527   1.625  15.725 -1.6147  1.1030 -1.6635
 3910TIP3   OH233144   4.134   2.074   2.181  0.2820 -0.6532 -0.4292
 3910TIP3    H133145   4.125   2.084   2.086  1.4884 -0.2129 -0.5238
 3910TIP3    H233146   4.214   2.124   2.202  0.6707 -1.6930  0.6439
 3911TIP3   OH233147   2.398   0.548  12.704  0.0106 -0.2135  0.0406
 3911TIP3    H133148   2.315   0.549  12.751  0.0489  2.1695  0.1700
 3911TIP3    H233149   2.436   0.635  12.719  1.6917 -0.6128 -1.4904
 3912TIP3   OH233150   1.497   5.793   0.827 -0.1833 -0.3938  0.3585
 3912TIP3    H133151   1.520   5.826   0.740  0.0764 -3.0649 -0.6668
 3912TIP3    H233152   1.581   5.776   0.869 -0.2998 -0.4104  0.5826
 3913TIP3   OH233153   4.495   2.503   1.570 -0.8115  0.0358  0.0015
 3913TIP3    H133154   4.483   2.513   1.665  0.0334  0.5036  0.0715
 3913TIP3    H233155   4.517   2.591   1.539  0.5699 -0.4051 -0.3531
 3914TIP3   OH233156   1.722   1.878   0.403 -0.1200 -0.3425  0.3847
 3914TIP3    H133157   1.695   1.880   0.495 -0.4299  1.8511  0.2992
 3914TIP3    H233158   1.646   1.843   0.356 -2.0106  3.2144  0.4597
 3915TIP3   OH233159   4.303   5.005   5.236  0.0324 -0.4807  0.3379
 3915TIP3    H133160   4.308   5.009   5.331 -3.8007  2.5667  0.6870
 3915TIP3    H233161   4.226   4.950   5.218  0.0631 -0.1607 -0.9193
 3916TIP3   OH233162   5.481   5.095  12.791  0.4341  0.1135 -0.5038
 3916TIP3    H133163   5.435   5.146  12.858  2.2523  1.8909 -0.5297
 3916TIP3    H233164   5.418   5.028  12.765 -1.8698  1.9640 -0.0231
 3917TIP3   OH233165   5.223   6.406  13.182  0.4447  0.3952 -0.5111
 3917TIP3    H133166   5.197   6.382  13.271  0.4697  3.0650  0.3246
 3917TIP3    H233167   5.158   6.365  13.125  0.2024 -1.0481  0.7432
 3918TIP3   OH233168   2.677   5.702   2.297  0.0509 -0.0943  0.6600
 3918TIP3    H133169   2.769   5.708   2.274 -0.3425  1.0044 -0.7735
 3918TIP3    H233170   2.649   5.617   2.264  0.3041  0.0289  0.1220
 3919TIP3   OH233171   2.221   1.781  15.976 -0.4156 -0.5718 -0.5679
 3919TIP3    H133172   2.312   1.805  15.959 -0.6328  0.6618 -0.0965
 3919TIP3    H233173   2.173   1.815  15.900 -0.7903  1.0359  0.3289
 3920TIP3   OH233174   3.338   5.614  15.795  0.1370 -0.2929 -0.1913
 3920TIP3    H133175   3.337   5.634  15.702 -1.3728  1.2038  0.1115
 3920TIP3    H233176   3.311   5.522  15.800  1.4534 -0.7857 -1.2584
 3921TIP3   OH233177   4.533   2.206  11.251  0.1211  0.1905 -0.2121
 3921TIP3    H133178   4.626   2.219  11.234  0.3744 -0.2989  0.7116
 3921TIP3    H233179   4.495   2.185  11.166  1.1156 -1.0750 -0.3826
 3922TIP3   OH233180   1.461   1.582  10.476 -0.1979  0.2128 -0.0650
 3922TIP3    H133181   1.441   1.654  10.535 -0.8305  0.0301 -0.0552
 3922TIP3    H233182   1.430   1.611  10.391  1.3298  0.7628 -0.4768
 3923TIP3   OH233183   1.991   4.404   3.166 -0.3461 -0.0396  0.3999
 3923TIP3    H133184   1.972   4.458   3.243 -0.4527 -0.3567  0.5986
 3923TIP3    H233185   1.961   4.316   3.190 -0.2792 -0.1641  0.0366
 3924TIP3   OH233186   2.331   3.097  14.283 -0.6206  0.2565 -0.1767
 3924TIP3    H133187   2.329   3.117  14.190  0.5947  0.3827 -0.1967
 3924TIP3    H233188   2.332   3.182  14.327 -0.0122  0.2225 -0.1060
 3925TIP3   OH233189   0.692   4.102   5.842 -0.2887  0.0010  0.1205
 3925TIP3    H133190   0.753   4.138   5.778 -1.8644 -0.1734 -1.6057
 3925TIP3    H233191   0.677   4.173   5.904  1.2810  0.1883  0.3232
 3926TIP3   OH233192   6.493   5.327  12.774  0.1704 -0.2337  0.3435
 3926TIP3    H133193   6.537   5.258  12.724 -1.7995 -0.9345 -0.5319
 3926TIP3    H233194   6.468   5.392  12.709 -0.5804 -0.1420  0.7046
 3927TIP3   OH233195   3.789   5.259   3.319  0.0638  0.0004 -0.4958
 3927TIP3    H133196   3.823   5.335   3.366 -0.6224  1.1209 -1.7536
 3927TIP3    H233197   3.702   5.245   3.355  0.3319 -0.4293 -0.0068
 3928TIP3   OH233198   4.689   2.066  12.304 -0.0512  0.1781 -0.2499
 3928TIP3    H133199   4.727   1.984  12.274 -0.3389  0.7992 -2.5263
 3928TIP3    H233200   4.758   2.108  12.356  1.3312 -0.0190 -1.8535
 3929TIP3   OH233201   4.354   5.083  16.640 -0.0650  0.4321 -0.1704
 3929TIP3    H133202   4.275   5.034  16.618 -0.4539  0.8846  0.1915
 3929TIP3    H233203   4.426   5.024  16.617 -0.4627  0.5182 -1.7372
 3930TIP3   OH233204   5.802   1.311   4.484 -0.3242 -0.0201  0.4587
 3930TIP3    H133205   5.886   1.266   4.484 -0.4264 -0.3558 -1.9924
 3930TIP3    H233206   5.821   1.399   4.452 -0.5765  0.7740  2.3552
 3931TIP3   OH233207   5.232   4.530  14.731 -0.4520 -0.3474  0.2913
 3931TIP3    H133208   5.304   4.587  14.758 -1.4225  0.7600  0.5637
 3931TIP3    H233209   5.261   4.493  14.648  0.0389  0.8211 -0.0691
 3932TIP3   OH233210   3.874   6.084   4.530  0.0275 -0.4659 -0.4114
 3932TIP3    H133211   3.910   6.096   4.442  0.1756  0.9606 -0.1815
 3932TIP3    H233212   3.937   6.028   4.575  1.0304  0.5218 -0.5735
 3933TIP3   OH233213   5.837   5.267   5.034  0.6071  0.3391 -0.2045
 3933TIP3    H133214   5.795   5.265   5.120  0.4982 -0.9650 -0.2711
 3933TIP3    H233215   5.764   5.280   4.972  0.4334 -0.7341 -0.2352
 3934TIP3   OH233216   2.796   2.421  10.793 -0.5674  0.2240  0.3943
 3934TIP3    H133217   2.840   2.438  10.709  1.0601 -1.3506  0.8731
 3934TIP3    H233218   2.823   2.332  10.817 -1.7441  0.2952  2.1476
 3935TIP3   OH233219   0.602   5.609  14.032 -0.5552 -0.0564 -0.2583
 3935TIP3    H133220   0.537   5.575  14.093 -0.2541 -1.7988 -0.8391
 3935TIP3    H233221   0.552   5.630  13.953 -0.6132 -0.1138 -0.2368
 3936TIP3   OH233222   3.355   1.898   4.677 -0.6392  0.0560  0.7686
 3936TIP3    H133223   3.410   1.930   4.606 -1.4112 -2.1752 -0.9799
 3936TIP3    H233224   3.388   1.941   4.756  1.9102  0.6997 -0.5677
 3937TIP3   OH233225   2.622   6.505  11.193  0.0355  0.0885 -0.8981
 3937TIP3    H133226   2.569   6.584  11.194 -0.1928 -0.0504  0.3712
 3937TIP3    H233227   2.659   6.500  11.281  1.3884 -0.3383 -1.4666
 3938TIP3   OH233228   0.961   3.020   0.480 -0.0350  0.0661  0.1382
 3938TIP3    H133229   0.886   2.962   0.467  1.0011 -1.3395  0.2253
 3938TIP3    H233230   0.933   3.104   0.443 -1.7791 -0.3078  0.5225
 3939TIP3   OH233231   4.815   6.729   5.535  0.2862 -0.1725  0.0059
 3939TIP3    H133232   4.812   6.701   5.627 -1.8205 -0.8470 -0.2283
 3939TIP3    H233233   4.851   6.817   5.538 -0.3995  0.0838  1.5585
 3940TIP3   OH233234   5.636   3.013   1.740 -0.0830 -0.7067 -0.2291
 3940TIP3    H133235   5.546   3.018   1.707 -0.1076 -0.8705 -0.1912
 3940TIP3    H233236   5.691   3.031   1.663 -0.1593  1.3576  0.1513
 3941TIP3   OH233237   0.607   4.217  14.468  0.1237 -0.3082  0.6792
 3941TIP3    H133238   0.543   4.188  14.403 -0.5024  1.2636  0.5589
 3941TIP3    H233239   0.644   4.296  14.432  2.2484 -1.2311  0.7176
 3942TIP3   OH233240   1.906   5.375   4.957  0.9177 -0.1446  0.2334
 3942TIP3    H133241   1.948   5.458   4.980  1.4160  0.0842 -1.3830
 3942TIP3    H233242   1.876   5.339   5.041 -0.8119  2.4432  0.8365
 3943TIP3   OH233243   1.474   3.266   4.840  0.1982 -0.4819  0.0945
 3943TIP3    H133244   1.391   3.268   4.887  0.3060 -1.8567  0.3862
 3943TIP3    H233245   1.540   3.274   4.908  0.3316  0.1289 -0.0944
 3944TIP3   OH233246   0.668   2.674   3.848  0.0944  0.5837 -0.2347
 3944TIP3    H133247   0.581   2.685   3.888  0.6003 -1.0079  1.4116
 3944TIP3    H233248   0.658   2.600   3.789  0.5267 -0.1746  0.6251
 3945TIP3   OH233249   6.445   6.119   5.810 -0.1134 -0.4855 -0.1951
 3945TIP3    H133250   6.353   6.124   5.835  0.2048 -0.2908  0.9739
 3945TIP3    H233251   6.493   6.158   5.883  0.9771 -1.6266 -0.2570
 3946TIP3   OH233252   2.529   2.153  16.056 -0.2621 -0.4575 -0.0056
 3946TIP3    H133253   2.533   2.057  16.058 -0.3299 -0.4867 -0.8247
 3946TIP3    H233254   2.555   2.176  15.966 -0.1278  0.2985  0.2176
 3947TIP3   OH233255   1.302   5.829   6.281 -0.1951 -0.0584 -0.0082
 3947TIP3    H133256   1.239   5.832   6.353 -1.2454  0.0217 -0.9052
 3947TIP3    H233257   1.329   5.738   6.275 -3.7796 -1.1766 -2.5288
 3948TIP3   OH233258   6.230   3.020  11.603 -0.3162 -0.0547 -0.1424
 3948TIP3    H133259   6.189   3.105  11.616  0.7566  0.6200 -1.0204
 3948TIP3    H233260   6.322   3.039  11.586 -0.0250 -1.3941 -0.2144
 3949TIP3   OH233261   3.437   3.952   1.099  0.4110  0.0472 -0.4215
 3949TIP3    H133262   3.496   3.898   1.047  0.5247  0.2111 -0.4631
 3949TIP3    H233263   3.363   3.895   1.119  0.1873  0.0928 -1.0813
 3950TIP3   OH233264   2.432   2.481   2.833  0.5948 -0.0418  0.3944
 3950TIP3    H133265   2.376   2.483   2.910 -1.1142  0.5269 -0.8169
 3950TIP3    H233266   2.515   2.445   2.865 -0.3709 -0.7282  2.2790
 3951TIP3   OH233267   2.056   2.595   4.033  0.2700 -0.2272 -0.1557
 3951TIP3    H133268   2.025   2.528   3.971  0.5596 -0.7284  0.2381
 3951TIP3    H233269   2.150   2.580   4.039  0.5316  0.9658 -0.9523
 3952TIP3   OH233270   4.634   4.864   5.197  0.3196 -0.0924  0.4444
 3952TIP3    H133271   4.712   4.827   5.239  0.1681  0.5616  1.3460
 3952TIP3    H233272   4.604   4.930   5.259  0.5537  1.5024 -1.0641
 3953TIP3   OH233273   3.622   4.465  14.588  0.1454 -0.0418 -0.2956
 3953TIP3    H133274   3.717   4.469  14.599  0.6888  0.2948 -3.9619
 3953TIP3    H233275   3.602   4.372  14.587  0.7568 -0.1801 -1.2280
 3954TIP3   OH233276   5.721   2.794  14.379  0.2752  0.2681  0.2190
 3954TIP3    H133277   5.742   2.836  14.462 -2.0191  0.4419  0.7935
 3954TIP3    H233278   5.773   2.714  14.378  0.5056  0.3704  1.7213
 3955TIP3   OH233279   2.578   5.937   5.777  0.0089 -0.6160 -0.0847
 3955TIP3    H133280   2.490   5.972   5.763  0.4593 -0.0243 -1.7635
 3955TIP3    H233281   2.615   5.990   5.846 -0.1428  0.7316 -1.0061
 3956TIP3   OH233282   2.565   6.082   1.384  0.2437 -0.0730  0.2429
 3956TIP3    H133283   2.479   6.102   1.420 -0.3406  1.2468 -1.7214
 3956TIP3    H233284   2.620   6.155   1.411 -0.0339  0.5852 -0.8721
 3957TIP3   OH233285   5.469   3.800   4.827  0.1065  0.2112  0.5807
 3957TIP3    H133286   5.513   3.855   4.761  2.0507  0.6056  2.0927
 3957TIP3    H233287   5.503   3.712   4.810  1.8243  0.5528  1.8938
 3958TIP3   OH233288   1.131   5.380  13.675  0.3563 -0.3657 -0.2646
 3958TIP3    H133289   1.176   5.296  13.676  0.0721 -0.5214 -0.2124
 3958TIP3    H233290   1.186   5.438  13.728  0.9395 -0.3082 -0.9210
 3959TIP3   OH233291   4.573   4.439  14.534  0.2125  0.0991 -0.5707
 3959TIP3    H133292   4.648   4.412  14.480 -0.0391 -0.3584 -0.7003
 3959TIP3    H233293   4.550   4.526  14.501  0.8271  0.3351 -0.3770
 3960TIP3   OH233294   6.556   2.732   5.331  0.0772  0.4907  0.3917
 3960TIP3    H133295   6.485   2.795   5.340  0.5142  1.0219  0.1270
 3960TIP3    H233296   6.545   2.673   5.407 -1.3790 -0.1963 -0.3026
 3961TIP3   OH233297   5.919   1.068  15.467 -0.0345  0.1604  0.3722
 3961TIP3    H133298   5.833   1.110  15.477 -0.4579 -0.6402  0.2406
 3961TIP3    H233299   5.978   1.120  15.521 -0.6108  0.7027  0.4915
 3962TIP3   OH233300   5.991   4.027  14.406 -0.4511 -0.2294 -0.6294
 3962TIP3    H133301   6.056   4.089  14.441 -1.2501  0.8204 -0.9539
 3962TIP3    H233302   6.023   3.941  14.433  0.2462  0.3772  0.5809
 3963TIP3   OH233303   5.024   3.261   5.158  0.6765 -0.8120 -0.1854
 3963TIP3    H133304   4.956   3.199   5.183  0.8424 -0.5784  0.8922
 3963TIP3    H233305   5.095   3.246   5.221 -0.0929  1.8796  1.5070
 3964TIP3   OH233306   3.645   1.574  12.525 -0.1058  0.0254 -0.6887
 3964TIP3    H133307   3.589   1.503  12.554 -0.1792 -0.4143 -1.8779
 3964TIP3    H233308   3.708   1.533  12.466  1.1637  0.5969  0.2192
 3965TIP3   OH233309   3.860   3.538  12.272  0.4077  0.5375  0.0048
 3965TIP3    H133310   3.884   3.553  12.181  0.6369  1.7006  0.2408
 3965TIP3    H233311   3.840   3.626  12.306 -2.8863 -0.1532  0.1906
 3966TIP3   OH233312   6.010   1.857   1.156 -0.2987 -0.0984 -0.7390
 3966TIP3    H133313   5.948   1.784   1.158 -0.2399 -0.1334  0.0939
 3966TIP3    H233314   5.959   1.931   1.123 -0.3177 -0.5451 -1.7407
 3967TIP3   OH233315   4.049   2.359  10.750  0.0376 -0.8015  0.0084
 3967TIP3    H133316   4.106   2.417  10.700 -0.9407 -0.3249 -0.5938
 3967TIP3    H233317   4.072   2.374  10.841  1.2237 -1.0067 -0.2369
 3968TIP3   OH233318   3.988   5.416   5.095 -0.1925 -0.1610  0.1258
 3968TIP3    H133319   4.051   5.474   5.137  1.2101 -0.6187 -1.2700
 3968TIP3    H233320   3.915   5.473   5.070 -0.2134  0.4307  1.4451
 3969TIP3   OH233321   0.744   3.133  15.298 -0.2879  0.3729 -0.2446
 3969TIP3    H133322   0.804   3.166  15.366  0.3416  0.7662 -0.9649
 3969TIP3    H233323   0.689   3.069  15.343  2.3790 -2.0049 -0.0624
 3970TIP3   OH233324   4.793   4.825  11.602  0.0143  0.1025 -0.4726
 3970TIP3    H133325   4.739   4.786  11.671  1.5183 -2.6301 -0.6948
 3970TIP3    H233326   4.815   4.752  11.545  0.2681  1.9596 -2.9193
 3971TIP3   OH233327   4.498   6.737  14.167 -0.1470  0.5051 -0.0049
 3971TIP3    H133328   4.483   6.770  14.256  1.3730 -0.3705  0.6147
 3971TIP3    H233329   4.447   6.657  14.162  0.5816 -0.0056  0.4745
 3972TIP3   OH233330   0.823   1.444   2.141  0.3368 -0.0555 -0.3657
 3972TIP3    H133331   0.736   1.414   2.116 -0.9868  2.1046  1.3330
 3972TIP3    H233332   0.872   1.447   2.058 -1.6471  0.1117 -1.5996
 3973TIP3   OH233333   3.206   3.403   4.994 -0.4016  0.4514  0.1563
 3973TIP3    H133334   3.164   3.326   5.033  0.7811 -0.7465 -0.8066
 3973TIP3    H233335   3.202   3.470   5.062 -0.2987 -0.8798  1.5252
 3974TIP3   OH233336   4.930   0.337  16.407  0.6904 -0.4473  0.5601
 3974TIP3    H133337   4.931   0.242  16.419 -0.0920 -0.4021  1.0358
 3974TIP3    H233338   5.009   0.367  16.451  0.3565 -0.7720  1.3946
 3975TIP3   OH233339   2.043   6.012   3.104 -0.2956  0.6495 -0.3857
 3975TIP3    H133340   2.016   6.103   3.121 -0.4803  0.9460 -2.0708
 3975TIP3    H233341   2.136   6.010   3.126 -0.5692  0.9218  0.8267
 3976TIP3   OH233342   3.629   2.124  13.921  0.4284 -0.3251  0.0183
 3976TIP3    H133343   3.665   2.180  13.990  2.8050  0.8534 -2.0323
 3976TIP3    H233344   3.571   2.182  13.871  3.1848  0.6330 -2.3395
 3977TIP3   OH233345   6.091   2.129   2.077  0.1333  0.1816  0.0172
 3977TIP3    H133346   6.047   2.106   1.995  0.0947  0.4738 -0.0451
 3977TIP3    H233347   6.072   2.057   2.136 -1.4068  0.8516  0.3697
 3978TIP3   OH233348   1.144   0.639   1.535  0.1894 -0.1209  0.2965
 3978TIP3    H133349   1.095   0.635   1.453 -0.4367 -0.3320  0.6728
 3978TIP3    H233350   1.150   0.733   1.555  0.4192 -0.0648 -0.0335
 3979TIP3   OH233351   6.710   5.698  15.869  0.7401  0.0277 -0.6189
 3979TIP3    H133352   6.660   5.676  15.948 -0.6725  0.1557 -1.4356
 3979TIP3    H233353   6.727   5.791  15.876  2.8206 -0.3879  0.6981
 3980TIP3   OH233354   6.017   1.454  10.685 -0.3118  0.0301 -0.3558
 3980TIP3    H133355   5.994   1.439  10.594 -0.1920 -2.1290 -0.0870
 3980TIP3    H233356   5.935   1.477  10.728 -0.3218  1.3295 -1.0179
 3981TIP3   OH233357   2.057   3.412  10.652 -0.2257  0.1320 -0.0914
 3981TIP3    H133358   1.998   3.344  10.618  0.0653 -0.1271 -0.0720
 3981TIP3    H233359   1.998   3.482  10.680 -0.6043 -0.7050  1.2459
 3982TIP3   OH233360   5.014   5.231  16.606 -0.5268  0.0061 -0.6204
 3982TIP3    H133361   4.994   5.196  16.692  1.9624  1.1826  0.5454
 3982TIP3    H233362   5.009   5.326  16.617  2.0373  0.2754 -1.0557
 3983TIP3   OH233363   3.869   4.577   2.805 -0.4456  0.3981  0.0539
 3983TIP3    H133364   3.867   4.631   2.726  1.1560  0.2828 -0.1084
 3983TIP3    H233365   3.872   4.487   2.773  0.3503  0.3548  0.2120
 3984TIP3   OH233366   5.527   5.821   5.355  0.3100 -0.0803  0.7264
 3984TIP3    H133367   5.558   5.740   5.396 -0.3380 -1.6573 -1.7092
 3984TIP3    H233368   5.602   5.851   5.302 -0.0485 -0.0953  0.2063
 3985TIP3   OH233369   0.682   2.430   2.145 -0.1289 -0.1089  0.1593
 3985TIP3    H133370   0.764   2.474   2.165  0.2741 -0.2803 -1.0397
 3985TIP3    H233371   0.651   2.397   2.229  0.9518  0.0865  0.6460
 3986TIP3   OH233372   2.928   6.457  15.263 -0.3666 -0.3087 -0.3343
 3986TIP3    H133373   2.988   6.423  15.329 -0.5169  0.1320  0.0276
 3986TIP3    H233374   2.938   6.552  15.266 -3.3500  0.0704  1.9782
 3987TIP3   OH233375   2.135   6.180  15.128 -0.1204  0.0503  0.2258
 3987TIP3    H133376   2.142   6.274  15.111 -0.6904  0.1156  0.3351
 3987TIP3    H233377   2.072   6.149  15.062 -0.7338 -0.0631  0.8538
 3988TIP3   OH233378   4.980   1.874   1.365  0.0942 -0.2989  0.2131
 3988TIP3    H133379   4.933   1.800   1.325 -2.1198  0.1429  1.7966
 3988TIP3    H233380   5.046   1.898   1.300 -3.0816  0.2121 -3.1475
 3989TIP3   OH233381   3.257   4.822  12.078  0.2965 -0.2084 -0.3177
 3989TIP3    H133382   3.296   4.775  12.004 -0.5324  1.0179 -1.5880
 3989TIP3    H233383   3.332   4.846  12.133  1.4746  2.1536 -2.7247
 3990TIP3   OH233384   2.393   6.418  10.980 -0.0476  0.5532 -0.0032
 3990TIP3    H133385   2.357   6.330  10.968  1.2998  0.1048 -1.0384
 3990TIP3    H233386   2.488   6.404  10.988  0.1211  1.8615  0.5133
 3991TIP3   OH233387   3.340   2.830  13.234  0.2383  0.4943 -0.3197
 3991TIP3    H133388   3.376   2.772  13.167  0.4232 -1.1266  1.1195
 3991TIP3    H233389   3.363   2.788  13.317 -1.4663  1.5251  0.7379
 3992TIP3   OH233390   1.645   5.772   2.895  0.0676 -0.0688 -0.3495
 3992TIP3    H133391   1.665   5.737   2.982  0.1730 -0.8674 -0.6827
 3992TIP3    H233392   1.706   5.727   2.837 -1.2487 -0.9765 -1.0968
 3993TIP3   OH233393   0.515   0.060   4.842  0.6667  0.1492 -0.0662
 3993TIP3    H133394   0.460   0.138   4.844 -0.5734 -0.6350  3.5473
 3993TIP3    H233395   0.604   0.093   4.845  0.2882  1.3982 -1.4038
 3994TIP3   OH233396   5.882   0.568  15.709 -0.6777 -0.4645  0.3769
 3994TIP3    H133397   5.972   0.536  15.721 -0.2008  0.6595 -0.0297
 3994TIP3    H233398   5.842   0.504  15.650  1.2577  1.2266 -3.1230
 3995TIP3   OH233399   5.932   0.338   2.244  0.5498 -0.2265  0.2184
 3995TIP3    H133400   5.926   0.260   2.189 -1.9490  0.2324 -0.2817
 3995TIP3    H233401   5.868   0.323   2.314  2.4129 -0.0167  2.0514
 3996TIP3   OH233402   4.563   3.273  11.203 -0.6841 -0.3766  0.4119
 3996TIP3    H133403   4.518   3.323  11.135 -2.6808 -1.0797  1.1218
 3996TIP3    H233404   4.532   3.183  11.191  0.8203 -0.9715  0.7612
 3997TIP3   OH233405   1.950   0.004   4.359 -0.0925 -0.4285 -0.4712
 3997TIP3    H133406   2.016  -0.062   4.380  0.4111  0.4473  0.8518
 3997TIP3    H233407   1.992   0.087   4.381 -1.1761  0.2396 -0.8592
 3998TIP3   OH233408   3.129   5.211   2.098  0.1487 -0.2199 -0.7494
 3998TIP3    H133409   3.104   5.119   2.087 -1.1878  0.3208 -2.8287
 3998TIP3    H233410   3.069   5.244   2.165  0.2642 -0.7073 -0.3952
 3999TIP3   OH233411   0.076   0.666  16.117  0.4744 -0.1658 -0.1373
 3999TIP3    H133412   0.100   0.736  16.178  2.7405 -0.5001 -0.5357
 3999TIP3    H233413  -0.012   0.640  16.143  0.5641  1.1274  1.6274
 4000TIP3   OH233414   4.374   2.071  10.699  0.0777  0.8903 -0.3243
 4000TIP3    H133415   4.452   2.112  10.662 -0.2673  3.2497  1.3302
 4000TIP3    H233416   4.407   2.007  10.761  0.7545  1.9960  0.4953
 4001TIP3   OH233417   3.863   6.472   0.073  0.2314  0.2646  0.1430
 4001TIP3    H133418   3.848   6.487   0.166 -0.9163  0.5679 -0.0713
 4001TIP3    H233419   3.776   6.457   0.037  0.2436  3.0253 -1.3625
 4002TIP3   OH233420   0.320   6.145   0.549 -0.2066  0.0937  0.1996
 4002TIP3    H133421   0.271   6.102   0.479  1.5851 -0.6339 -0.6627
 4002TIP3    H233422   0.400   6.093   0.558  0.0952  0.8077  2.0694
 4003TIP3   OH233423   5.196   4.635   4.136  0.2179  0.3668 -0.2965
 4003TIP3    H133424   5.281   4.593   4.151  0.4654  0.6566 -0.8673
 4003TIP3    H233425   5.218   4.720   4.098 -0.3321  0.3789 -0.5891
 4004TIP3   OH233426   2.259   1.698   3.425 -0.0705 -0.3160  0.1146
 4004TIP3    H133427   2.308   1.704   3.342  0.8678 -1.8944  0.5084
 4004TIP3    H233428   2.196   1.628   3.410 -0.1228 -0.3786  0.6306
 4005TIP3   OH233429   2.630   4.455   4.036 -0.2505 -0.4205 -0.2917
 4005TIP3    H133430   2.598   4.461   3.947 -0.0406  2.9314 -0.2909
 4005TIP3    H233431   2.664   4.543   4.055  1.0225 -1.3995  2.6049
 4006TIP3   OH233432   3.460   0.500  16.283  0.1241 -0.0880  0.1274
 4006TIP3    H133433   3.385   0.529  16.231 -1.1036  0.6846  2.2373
 4006TIP3    H233434   3.508   0.580  16.304  1.6583 -0.5837 -1.2831
 4007TIP3   OH233435   3.646   2.959   1.178 -0.0136 -0.0561  0.3267
 4007TIP3    H133436   3.668   2.876   1.219 -0.3565  1.3566  3.6291
 4007TIP3    H233437   3.719   2.976   1.118  0.1261 -2.5908 -0.3193
 4008TIP3   OH233438   1.243   2.783  11.792  0.6913 -0.7518 -0.3946
 4008TIP3    H133439   1.199   2.709  11.750 -1.2103  0.3277 -0.4292
 4008TIP3    H233440   1.263   2.752  11.881 -0.7076 -1.1070 -0.1839
 4009TIP3   OH233441   3.500   5.462  11.082  0.0609  0.1724 -0.4126
 4009TIP3    H133442   3.488   5.390  11.143  0.1530 -0.5388 -1.2227
 4009TIP3    H233443   3.427   5.521  11.100  0.3105  0.1814  0.6516
 4010TIP3   OH233444   4.013   4.899   3.047  0.1587  0.3713  0.2726
 4010TIP3    H133445   4.048   4.811   3.035 -1.2209 -0.5301  2.3991
 4010TIP3    H233446   3.948   4.908   2.977 -1.3419 -1.2399  1.3810
 4011TIP3   OH233447   3.047   5.335   6.105 -0.5155  0.3438  0.1102
 4011TIP3    H133448   2.954   5.349   6.084 -0.4599 -2.7907 -3.1184
 4011TIP3    H233449   3.046   5.295   6.192 -2.0663  1.2891  0.5665
 4012TIP3   OH233450   5.848   2.601  16.527  0.2417 -0.1454  0.1262
 4012TIP3    H133451   5.821   2.596  16.435  2.6008 -2.2425 -0.5657
 4012TIP3    H233452   5.795   2.534  16.571 -1.1922  1.1504  0.4193
 4013TIP3   OH233453   6.518   6.515   4.553 -0.8175  0.4574  0.0049
 4013TIP3    H133454   6.582   6.443   4.547 -2.0522 -0.7145  0.3990
 4013TIP3    H233455   6.438   6.473   4.585 -2.2680  1.5950 -1.9540
 4014TIP3   OH233456   2.312   1.071   0.235  0.6245 -0.0800 -0.5789
 4014TIP3    H133457   2.267   1.119   0.304  1.6633 -1.4152  1.1250
 4014TIP3    H233458   2.350   1.139   0.179  0.4106  1.0628  0.6156
 4015TIP3   OH233459   0.595   2.096  16.518  0.1252  0.4198  0.0702
 4015TIP3    H133460   0.583   2.002  16.531  4.9935 -0.2271  2.4062
 4015TIP3    H233461   0.629   2.104  16.429  0.6081 -0.2241  0.1870
 4016TIP3   OH233462   3.829   2.476  14.252  0.4211  0.0563 -0.5553
 4016TIP3    H133463   3.736   2.484  14.270  0.4065 -1.0361 -0.0681
 4016TIP3    H233464   3.860   2.410  14.313  1.9487  1.8465  0.7119
 4017TIP3   OH233465   0.134   0.976   2.543  0.2989  0.0037  0.6737
 4017TIP3    H133466   0.090   0.976   2.628  0.5922  0.4903  0.8346
 4017TIP3    H233467   0.127   1.067   2.513 -2.3036 -0.7073 -1.1694
 4018TIP3   OH233468   6.484   3.640   4.361 -0.1387  0.7599  0.2966
 4018TIP3    H133469   6.545   3.653   4.288  0.2682 -1.9711  0.0501
 4018TIP3    H233470   6.404   3.684   4.333 -0.0946 -0.4634 -2.0021
 4019TIP3   OH233471   2.898   2.674   3.308  0.0452 -0.0987  0.4705
 4019TIP3    H133472   2.934   2.762   3.316  0.1198 -0.1112  0.2760
 4019TIP3    H233473   2.964   2.625   3.258 -1.5924  0.6918 -2.7279
 4020TIP3   OH233474   3.178   3.996   2.668 -0.0964 -0.0649  0.0054
 4020TIP3    H133475   3.095   3.980   2.623 -1.2761  0.7359  1.7728
 4020TIP3    H233476   3.239   4.017   2.598 -1.6898  0.5208 -1.2784
 4021TIP3   OH233477   4.328   5.665   5.804  0.2685 -0.4913 -0.1737
 4021TIP3    H133478   4.361   5.754   5.820 -0.3180 -0.4470  0.8621
 4021TIP3    H233479   4.406   5.611   5.800  0.5749 -0.1318  0.6169
 4022TIP3   OH233480   3.338   4.825   0.094  0.0039  0.0671  0.4060
 4022TIP3    H133481   3.286   4.903   0.116 -1.1774 -0.8314  0.9338
 4022TIP3    H233482   3.320   4.764   0.166 -1.2140 -1.6839 -1.2965
 4023TIP3   OH233483   0.612   2.152  10.815 -0.4407 -0.9037 -0.1340
 4023TIP3    H133484   0.609   2.245  10.792 -0.4680 -0.6385  0.9149
 4023TIP3    H233485   0.697   2.122  10.784  0.2222 -0.1482  0.9186
 4024TIP3   OH233486   4.132   4.223   3.291  0.4447  0.5067 -0.4629
 4024TIP3    H133487   4.077   4.245   3.365  0.8682  0.3274 -0.0895
 4024TIP3    H233488   4.121   4.296   3.229 -1.5201 -0.3167 -1.1551
 4025TIP3   OH233489   5.264   3.339   1.975 -0.0894 -0.2257  0.1770
 4025TIP3    H133490   5.239   3.251   2.002 -1.9276  0.6374  1.4579
 4025TIP3    H233491   5.286   3.385   2.056  1.5451  0.3275 -0.5319
 4026TIP3   OH233492   4.957   4.109   4.602  0.2600 -0.4526 -0.0953
 4026TIP3    H133493   5.026   4.048   4.629 -0.4677 -0.5065  1.7659
 4026TIP3    H233494   4.896   4.055   4.552  0.3268 -0.9505  0.3545
 4027TIP3   OH233495   5.152   5.202   4.629  0.2137  0.5699 -0.2338
 4027TIP3    H133496   5.162   5.297   4.616  0.6854  0.3604 -1.6690
 4027TIP3    H233497   5.093   5.175   4.559 -0.8353 -0.0452  0.8668
 4028TIP3   OH233498   0.056   3.646   5.682 -0.2667  0.3951  0.7660
 4028TIP3    H133499   0.140   3.659   5.727  0.9221  0.8159 -1.4180
 4028TIP3    H233500   0.037   3.731   5.642 -0.3427 -0.3835 -0.9390
 4029TIP3   OH233501   2.862   4.678   3.454  0.2995 -0.4205  0.0407
 4029TIP3    H133502   2.774   4.649   3.479 -0.8687  1.8134 -1.1119
 4029TIP3    H233503   2.921   4.621   3.503 -1.7835 -1.5384  1.4261
 4030TIP3   OH233504   3.142   6.165  16.042  1.1476  0.6295 -0.3534
 4030TIP3    H133505   3.181   6.193  16.125  0.5096 -0.2409  0.2630
 4030TIP3    H233506   3.095   6.242  16.011  0.5598  0.6771  0.6087
 4031TIP3   OH233507   3.575   4.484   2.821  0.2620 -0.4998 -0.3498
 4031TIP3    H133508   3.535   4.494   2.907  0.4441  2.2503 -0.4992
 4031TIP3    H233509   3.661   4.445   2.839  0.4451  0.3804  0.7775
 4032TIP3   OH233510   0.486   1.419   0.292 -0.9282  0.4297 -0.3322
 4032TIP3    H133511   0.494   1.510   0.264 -0.1420  0.8509  1.1589
 4032TIP3    H233512   0.575   1.391   0.310 -1.1579 -0.6598 -0.7842
 4033TIP3   OH233513   5.370   2.962  16.450  0.0506  0.1194 -0.2916
 4033TIP3    H133514   5.283   2.972  16.490  1.1184  1.5738  1.8528
 4033TIP3    H233515   5.395   2.872  16.470 -0.6678 -0.0893 -0.3022
 4034TIP3   OH233516   0.822   0.478   4.699  0.0187 -0.1655  0.2516
 4034TIP3    H133517   0.852   0.457   4.611  1.1802 -1.8469  1.0116
 4034TIP3    H233518   0.780   0.564   4.689  0.4661 -0.1221 -1.8428
 4035TIP3   OH233519   1.017   1.099  14.095 -0.4617 -0.5363 -0.0570
 4035TIP3    H133520   1.103   1.078  14.057 -0.9136 -0.7526 -0.9837
 4035TIP3    H233521   0.954   1.068  14.030 -1.3154 -2.2905  1.5192
 4036TIP3   OH233522   3.090   3.240  10.968 -0.2828  0.0427  0.1232
 4036TIP3    H133523   2.998   3.213  10.974 -0.0549 -0.8001 -0.1823
 4036TIP3    H233524   3.086   3.336  10.970 -1.0343  0.0156  2.0722
 4037TIP3   OH233525   3.579   5.381  14.649 -0.5144 -0.3146  0.0946
 4037TIP3    H133526   3.502   5.400  14.703 -0.6622  0.8025 -0.4712
 4037TIP3    H233527   3.653   5.412  14.700 -0.4059 -1.5510  0.7154
 4038TIP3   OH233528   2.604   2.389   3.885  0.5082 -0.0771 -0.0581
 4038TIP3    H133529   2.681   2.382   3.828  0.4887 -0.5197 -0.0350
 4038TIP3    H233530   2.630   2.345   3.966  0.3114 -0.0295  0.0316
 4039TIP3   OH233531   4.327   6.292   2.259 -0.1103  0.3792 -0.6198
 4039TIP3    H133532   4.383   6.280   2.182  0.1972 -0.1079 -0.3274
 4039TIP3    H233533   4.385   6.327   2.326  0.2821 -1.7233  0.2165
 4040TIP3   OH233534   0.303   4.741  10.982 -0.5707  0.8967  0.3053
 4040TIP3    H133535   0.239   4.800  11.021 -1.4505 -0.2709  0.6929
 4040TIP3    H233536   0.251   4.683  10.926  0.2312  0.3407  0.1142
 4041TIP3   OH233537   0.180   3.644   3.980 -0.0136 -0.9051 -0.2958
 4041TIP3    H133538   0.098   3.618   3.937 -0.1502 -1.0013  0.0181
 4041TIP3    H233539   0.239   3.571   3.966  0.1488 -0.6692 -0.8642
 4042TIP3   OH233540   5.280   0.172   3.790  0.5307  0.1793 -0.2141
 4042TIP3    H133541   5.218   0.116   3.836 -0.5416  2.2759  1.0401
 4042TIP3    H233542   5.277   0.142   3.699 -2.8052  0.5453 -0.3249
 4043TIP3   OH233543   6.758   3.502  13.558 -0.1599 -0.0586  0.1023
 4043TIP3    H133544   6.722   3.416  13.579  0.9126 -0.6466 -0.3911
 4043TIP3    H233545   6.737   3.556  13.634  1.0135 -1.3303  1.3927
 4044TIP3   OH233546   3.533   6.109   0.496 -0.1434 -0.0648 -0.5026
 4044TIP3    H133547   3.607   6.048   0.507 -0.9169 -0.9367  0.1231
 4044TIP3    H233548   3.524   6.119   0.402 -0.5765 -1.6860 -0.6644
 4045TIP3   OH233549   0.501   4.649   5.583  0.2678 -0.3049 -0.6071
 4045TIP3    H133550   0.558   4.627   5.510  0.5280 -2.0609  0.0772
 4045TIP3    H233551   0.561   4.678   5.652  0.0483  1.0217 -0.9454
 4046TIP3   OH233552   4.939   4.440  13.762 -0.1506  0.4172 -0.0216
 4046TIP3    H133553   4.996   4.365  13.744 -0.2289  0.2002  0.6142
 4046TIP3    H233554   4.862   4.426  13.707 -1.2080 -1.1857  1.7512
 4047TIP3   OH233555   5.946   0.221   4.425  0.1663 -0.4247 -0.4519
 4047TIP3    H133556   5.862   0.212   4.470  0.5095  0.0839  0.2984
 4047TIP3    H233557   5.972   0.131   4.405 -0.7016 -0.5703 -0.9698
 4048TIP3   OH233558   3.919   2.833   3.715 -0.3189 -0.1663 -0.2150
 4048TIP3    H133559   3.985   2.900   3.728 -0.0531 -0.1785 -1.4703
 4048TIP3    H233560   3.844   2.879   3.678 -0.9689 -0.1889  1.0048
 4049TIP3   OH233561   3.061   4.356  11.075 -0.3250 -0.0191  0.0339
 4049TIP3    H133562   3.147   4.349  11.117 -0.2507  1.2853  0.1295
 4049TIP3    H233563   3.005   4.296  11.126 -0.4002  1.9910  2.5089
 4050TIP3   OH233564   3.163   1.219   5.598 -0.9220 -0.3120 -0.1242
 4050TIP3    H133565   3.124   1.305   5.580 -2.4945 -0.7114  1.1556
 4050TIP3    H233566   3.233   1.211   5.534 -1.5740  1.3769 -1.1154
 4051TIP3   OH233567   2.752   4.387   1.442  0.2623 -0.5758  0.3984
 4051TIP3    H133568   2.666   4.429   1.446  0.6191  0.1180  1.1563
 4051TIP3    H233569   2.806   4.439   1.501  0.5731 -2.4455  1.8471
 4052TIP3   OH233570   6.393   6.039  12.485 -0.3508  0.1219 -0.3663
 4052TIP3    H133571   6.408   6.014  12.394  0.1688 -0.6331 -0.0793
 4052TIP3    H233572   6.424   5.965  12.536 -0.7857  0.4709  0.4287
 4053TIP3   OH233573   1.414   6.714   0.459  0.0027  0.5828  0.3282
 4053TIP3    H133574   1.456   6.629   0.474 -1.5359 -0.0794  1.1742
 4053TIP3    H233575   1.479   6.778   0.488  1.3830 -0.2533 -0.7687
 4054TIP3   OH233576   4.808   4.868   2.402  0.4303 -0.6826  0.4213
 4054TIP3    H133577   4.807   4.954   2.358  1.2098 -0.9113 -0.0554
 4054TIP3    H233578   4.774   4.886   2.490 -1.5134 -0.2778 -0.3635
 4055TIP3   OH233579   4.488   2.438  15.339 -0.3730 -0.4406 -0.3216
 4055TIP3    H133580   4.494   2.503  15.408 -0.6576 -1.2839  0.5220
 4055TIP3    H233581   4.395   2.417  15.333 -0.2078 -1.3375 -0.0142
 4056TIP3   OH233582   2.396   5.424  16.145  0.2487 -0.2825  0.1681
 4056TIP3    H133583   2.356   5.481  16.079  1.0304  1.8875  1.4983
 4056TIP3    H233584   2.323   5.397  16.200 -0.2092 -1.0713 -0.7869
 4057TIP3   OH233585   0.092   2.678   2.534  0.4413 -0.0043 -0.3480
 4057TIP3    H133586   0.118   2.652   2.445  1.7957  1.1010 -0.3097
 4057TIP3    H233587   0.056   2.598   2.573  0.0551 -0.5693 -1.8012
 4058TIP3   OH233588   1.195   3.489  11.772 -0.1470 -0.4664  0.4858
 4058TIP3    H133589   1.179   3.542  11.850 -1.5144 -0.2191  0.0695
 4058TIP3    H233590   1.255   3.420  11.801 -0.5057 -0.2819  1.7130
 4059TIP3   OH233591   2.346   6.096  16.233  0.8714  0.5421 -0.0138
 4059TIP3    H133592   2.347   6.151  16.311  0.9543  0.5289 -0.0045
 4059TIP3    H233593   2.299   6.147  16.168 -0.5196 -0.0562  0.4878
 4060TIP3   OH233594   3.092   6.446  16.530  0.0903 -0.1723 -0.2706
 4060TIP3    H133595   3.098   6.447  16.626 -0.8643 -1.7558 -0.1507
 4060TIP3    H233596   3.000   6.425  16.513  0.4465 -0.7716 -1.5306
 4061TIP3   OH233597   1.783   0.747   1.537  0.0199  0.2728 -0.2760
 4061TIP3    H133598   1.769   0.837   1.507  1.6833  1.0897  1.2145
 4061TIP3    H233599   1.697   0.706   1.531 -0.7021  1.8451 -1.3357
 4062TIP3   OH233600   4.154   2.812  16.056 -0.0604 -0.1770 -0.3518
 4062TIP3    H133601   4.203   2.878  16.106 -0.0809 -0.3337 -0.1207
 4062TIP3    H233602   4.213   2.737  16.052 -0.2419 -0.3350 -0.1486
 4063TIP3   OH233603   3.655   3.145   4.181  0.0593  0.6920 -0.4592
 4063TIP3    H133604   3.726   3.135   4.117 -0.4227  0.8154 -1.0252
 4063TIP3    H233605   3.686   3.100   4.259  1.3477  1.9138 -0.2297
 4064TIP3   OH233606   2.644   4.989  15.961 -0.8244  0.0852 -0.3565
 4064TIP3    H133607   2.618   5.079  15.981 -2.5142 -0.4710  0.1522
 4064TIP3    H233608   2.676   4.954  16.044  0.4032  0.3727 -0.6895
 4065TIP3   OH233609   3.892   2.976   6.149 -0.4601 -0.9739 -0.1089
 4065TIP3    H133610   3.963   3.018   6.100 -1.9829  1.8475 -0.1104
 4065TIP3    H233611   3.815   2.988   6.094 -1.4839 -1.2972  1.2003
 4066TIP3   OH233612   6.759   6.636   1.161 -0.2557 -0.0478 -0.0556
 4066TIP3    H133613   6.671   6.644   1.123 -0.8346 -0.1073  1.2109
 4066TIP3    H233614   6.744   6.601   1.249  0.7408  2.6873  1.3400
 4067TIP3   OH233615   3.395   3.133  16.692 -0.2943 -0.0560 -0.1693
 4067TIP3    H133616   3.426   3.127  16.601 -0.2459 -2.7387 -0.0610
 4067TIP3    H233617   3.451   3.073  16.741 -1.0569  0.4691  1.4289
 4068TIP3   OH233618   0.824   4.684   4.688  0.2319  0.3486  0.0672
 4068TIP3    H133619   0.740   4.704   4.729 -1.2977 -1.7387 -1.7805
 4068TIP3    H233620   0.800   4.638   4.607  3.1746 -0.4087 -0.4732
 4069TIP3   OH233621   0.694   1.494  16.597  0.2529  0.2863  0.3481
 4069TIP3    H133622   0.663   1.504  16.507 -0.6905  1.0281  0.7312
 4069TIP3    H233623   0.777   1.446  16.589 -0.5318 -0.9731 -0.7970
 4070TIP3   OH233624   5.123   0.598   1.060 -0.1230 -0.7771  0.2843
 4070TIP3    H133625   5.035   0.571   1.088 -0.2828 -2.1279 -1.3154
 4070TIP3    H233626   5.113   0.689   1.034 -1.2400 -1.1022 -0.5121
 4071TIP3   OH233627   5.057   3.543  10.755 -0.5814 -0.7162  0.2581
 4071TIP3    H133628   5.007   3.572  10.831  0.6324 -1.5547  1.4449
 4071TIP3    H233629   5.143   3.585  10.766  0.0966 -2.0232  0.2042
 4072TIP3   OH233630   4.090   1.969  11.904 -0.1155 -0.1588 -0.1685
 4072TIP3    H133631   4.150   1.913  11.856 -0.4950 -1.3385  0.6991
 4072TIP3    H233632   4.006   1.922  11.902 -0.6060  0.6854  0.0118
 4073TIP3   OH233633   2.641   6.105  11.231  0.0655  0.5675 -0.6678
 4073TIP3    H133634   2.589   6.182  11.254  2.4371  1.9841  0.3933
 4073TIP3    H233635   2.690   6.084  11.311  0.4471 -1.2509 -1.3251
 4074TIP3   OH233636   0.493   5.357   2.013 -0.2210  0.0691  0.5368
 4074TIP3    H133637   0.570   5.343   1.959 -0.7201  0.6778 -0.3575
 4074TIP3    H233638   0.516   5.430   2.070  0.4636 -0.8577  1.4760
 4075TIP3   OH233639   1.216   0.005  10.367 -0.2928  0.5441 -0.4852
 4075TIP3    H133640   1.227   0.053  10.449  1.6788  0.7385 -0.8133
 4075TIP3    H233641   1.163   0.062  10.312 -0.7554  0.8645  0.2680
 4076TIP3   OH233642   4.375   6.003  12.998  0.0374  0.0257  0.4133
 4076TIP3    H133643   4.316   5.999  12.923 -2.0662  0.6396  1.9074
 4076TIP3    H233644   4.316   5.999  13.074  2.0436 -0.3958  2.0283
 4077TIP3   OH233645   0.254   1.486  16.957  0.1736  0.0301 -0.7412
 4077TIP3    H133646   0.302   1.557  17.000 -0.6533 -0.2731  0.7354
 4077TIP3    H233647   0.316   1.449  16.894  0.8198  1.6545 -1.1134
 4078TIP3   OH233648   4.445   2.242   3.182 -0.0887 -0.3202 -0.0512
 4078TIP3    H133649   4.509   2.308   3.156  0.9626 -1.6908 -1.0901
 4078TIP3    H233650   4.489   2.191   3.250  0.0161 -1.3764 -0.8899
 4079TIP3   OH233651   4.959   5.539   1.833 -0.0620  0.5927 -0.2693
 4079TIP3    H133652   4.928   5.611   1.778 -0.4967 -0.1900 -1.0813
 4079TIP3    H233653   5.035   5.504   1.786 -0.7120 -0.3793 -0.6404
 4080TIP3   OH233654   3.912   6.158   2.594  0.0129  0.1829  0.2795
 4080TIP3    H133655   3.879   6.088   2.538  0.0774 -0.4546  1.0174
 4080TIP3    H233656   3.947   6.113   2.671  2.1338  0.8593 -0.2315
 4081TIP3   OH233657   4.814   5.162  10.645  0.8097 -0.5217 -0.6443
 4081TIP3    H133658   4.879   5.142  10.577 -0.2391  0.0772 -1.8785
 4081TIP3    H233659   4.758   5.084  10.648  1.2156 -0.7931 -0.0190
 4082TIP3   OH233660   4.343   1.648  12.911 -0.0863  0.5216  0.4002
 4082TIP3    H133661   4.329   1.553  12.912 -0.2857  0.5035  3.1951
 4082TIP3    H233662   4.437   1.659  12.927 -0.0188  0.8223 -0.1528
 4083TIP3   OH233663   2.449   3.006   5.194  0.1296  0.3555  0.5471
 4083TIP3    H133664   2.354   3.012   5.195  0.0312 -0.8833 -0.3304
 4083TIP3    H233665   2.476   3.049   5.275 -1.1871  0.3911  0.9892
 4084TIP3   OH233666   5.831   4.336   1.239 -0.2766 -0.0953  0.1987
 4084TIP3    H133667   5.898   4.278   1.203 -0.7456 -0.1420 -0.6279
 4084TIP3    H233668   5.830   4.412   1.180  1.9770  1.9378  2.5511
 4085TIP3   OH233669   5.795   5.931  12.392  0.1431  0.4006 -0.1548
 4085TIP3    H133670   5.821   5.879  12.468  0.2308  0.7655  0.0697
 4085TIP3    H233671   5.846   5.895  12.319 -0.1012 -0.0928 -0.0854
 4086TIP3   OH233672   5.124   3.280   3.904  0.2949 -0.0324 -0.7213
 4086TIP3    H133673   5.208   3.325   3.907 -0.4728  1.4421  0.4980
 4086TIP3    H233674   5.138   3.199   3.952  0.6429  0.9733  0.9676
 4087TIP3   OH233675   4.870   6.304  15.708  0.0000 -0.4933 -0.4415
 4087TIP3    H133676   4.954   6.345  15.686  0.0288  0.1712  0.7881
 4087TIP3    H233677   4.805   6.373  15.693 -0.1139 -0.4326  0.3123
 4088TIP3   OH233678   1.440   2.828   3.736  0.0396 -0.0749 -0.2491
 4088TIP3    H133679   1.453   2.762   3.804 -0.5417  0.8023  0.7385
 4088TIP3    H233680   1.511   2.811   3.673 -0.4348 -1.9932 -0.3310
 4089TIP3   OH233681   4.834   4.954  14.949  0.8009 -0.1528  0.6321
 4089TIP3    H133682   4.771   5.026  14.954 -1.3284 -1.9838  1.9790
 4089TIP3    H233683   4.858   4.937  15.040 -0.1734 -2.2751  0.5459
 4090TIP3   OH233684   0.563   4.711   0.266 -0.5203  0.2130  0.8158
 4090TIP3    H133685   0.575   4.620   0.294  2.0226  0.1242 -0.2638
 4090TIP3    H233686   0.476   4.735   0.297 -0.6576 -2.1045  2.4417
 4091TIP3   OH233687   6.235   5.461  12.327  0.1795 -0.1162  0.7266
 4091TIP3    H133688   6.231   5.373  12.290  1.5201  0.4752 -0.9718
 4091TIP3    H233689   6.184   5.515  12.266  3.1374  1.0263 -0.9377
 4092TIP3   OH233690   6.819   2.138   1.813 -0.0585 -0.0155 -0.3102
 4092TIP3    H133691   6.801   2.097   1.728 -1.2771  0.5087 -0.3223
 4092TIP3    H233692   6.733   2.151   1.852  0.5452 -2.7863  2.2908
 4093TIP3   OH233693   1.847   3.321   4.394  0.6187 -0.2500 -0.4195
 4093TIP3    H133694   1.848   3.375   4.315  2.6146 -0.3683 -0.5435
 4093TIP3    H233695   1.807   3.377   4.461 -0.7753 -0.0297 -1.4186
 4094TIP3   OH233696   4.599   1.786   5.551 -0.2410 -0.0102  0.0308
 4094TIP3    H133697   4.636   1.775   5.638  0.1972  0.7847 -0.0430
 4094TIP3    H233698   4.663   1.745   5.492 -0.2956 -0.1089  0.0397
 4095TIP3   OH233699   6.588   4.404  13.402 -0.2462  0.0360  0.4888
 4095TIP3    H133700   6.506   4.401  13.453 -0.9560 -0.8612 -0.6436
 4095TIP3    H233701   6.561   4.439  13.317  0.7755  0.7876  0.4666
 4096TIP3   OH233702   2.608   5.305   1.198  0.3295 -0.6540  1.0724
 4096TIP3    H133703   2.636   5.372   1.136 -0.3753 -0.2707  1.1625
 4096TIP3    H233704   2.637   5.223   1.159 -1.7527 -0.6205 -0.7554
 4097TIP3   OH233705   3.090   0.303   3.095  0.6102 -0.2695  0.3253
 4097TIP3    H133706   3.006   0.266   3.124  0.5143 -2.2324 -2.1265
 4097TIP3    H233707   3.152   0.231   3.103  1.4831  0.3834 -0.3551
 4098TIP3   OH233708   3.735   1.790   0.657 -0.2478  0.1450  0.2908
 4098TIP3    H133709   3.665   1.855   0.661 -1.7946 -1.4447  0.6040
 4098TIP3    H233710   3.783   1.811   0.577  0.2975  2.5624  1.1634
 4099TIP3   OH233711   5.180   1.791   4.010  0.1391 -0.5815  0.3989
 4099TIP3    H133712   5.245   1.766   4.076  0.3522 -0.1200  0.3620
 4099TIP3    H233713   5.195   1.884   3.995 -0.0687 -0.6302 -0.1262
 4100TIP3   OH233714   0.594   5.111  13.147 -0.0438  0.2035 -0.0037
 4100TIP3    H133715   0.578   5.107  13.241  0.1463 -0.1090  0.0185
 4100TIP3    H233716   0.552   5.192  13.118 -0.0353  0.3372  0.3629
 4101TIP3   OH233717   4.510   5.157  15.597 -0.4402  0.5467  0.0245
 4101TIP3    H133718   4.541   5.175  15.508  0.8800  1.6431  0.6605
 4101TIP3    H233719   4.590   5.153  15.650 -1.1312 -1.0368  1.0277
 4102TIP3   OH233720   5.604   1.136   0.001 -0.0282 -0.0862  0.1165
 4102TIP3    H133721   5.525   1.148  -0.050 -1.0912 -0.1268  1.6767
 4102TIP3    H233722   5.676   1.159  -0.058 -1.2771  1.4158 -0.8703
 4103TIP3   OH233723   2.027   1.234   4.064 -0.5092 -0.4935 -0.5796
 4103TIP3    H133724   2.101   1.182   4.032 -0.0920 -0.6022  0.4963
 4103TIP3    H233725   2.028   1.219   4.159 -0.3474  1.5253 -0.2303
 4104TIP3   OH233726   6.213   4.100   2.170 -0.0551 -0.3435 -0.6722
 4104TIP3    H133727   6.121   4.116   2.192 -0.1055 -1.1586 -0.2922
 4104TIP3    H233728   6.249   4.055   2.246  0.6580 -0.0625 -0.8354
 4105TIP3   OH233729   3.654   6.551  11.097 -0.0514 -0.1579  0.2269
 4105TIP3    H133730   3.735   6.557  11.147 -1.6448  0.2042  2.9560
 4105TIP3    H233731   3.636   6.641  11.069  0.3744 -0.2147 -0.2506
 4106TIP3   OH233732   3.862   1.874  11.340  0.2772  0.1165 -0.2485
 4106TIP3    H133733   3.857   1.946  11.277  0.7404 -0.1395 -0.5785
 4106TIP3    H233734   3.808   1.805  11.302 -1.5449  0.8489  0.8474
 4107TIP3   OH233735   2.315   2.289  16.093  0.1548 -0.0528 -0.3445
 4107TIP3    H133736   2.387   2.227  16.080  0.7062  0.3844  0.4750
 4107TIP3    H233737   2.303   2.292  16.188 -0.9382 -0.0967 -0.4665
 4108TIP3   OH233738   6.116   6.013  13.567 -0.9052  0.4005 -0.3124
 4108TIP3    H133739   6.128   6.041  13.658 -0.6253 -0.6670 -0.0012
 4108TIP3    H233740   6.027   6.040  13.545 -2.3560 -2.3961  1.5017
 4109TIP3   OH233741   3.836   4.737  11.319 -0.1671  0.4202  0.3874
 4109TIP3    H133742   3.905   4.742  11.385 -0.2827  0.9899  0.4660
 4109TIP3    H233743   3.868   4.790  11.246 -0.1729  0.0366  0.0979
 4110TIP3   OH233744   0.679   0.394   0.538  0.0919  0.4826  0.2205
 4110TIP3    H133745   0.715   0.323   0.591  0.8219 -0.8037 -1.8990
 4110TIP3    H233746   0.586   0.397   0.562 -0.0673 -1.5305  0.0217
 4111TIP3   OH233747   1.882   4.129   3.233  0.0646 -0.0278 -0.2593
 4111TIP3    H133748   1.948   4.125   3.163  0.8341  1.7876  0.3026
 4111TIP3    H233749   1.809   4.076   3.200  1.0308 -0.5157 -1.7398
 4112TIP3   OH233750   2.512   3.652   5.971 -0.5853 -0.0083  0.0172
 4112TIP3    H133751   2.534   3.673   6.062 -1.4473  2.1548 -0.2297
 4112TIP3    H233752   2.425   3.611   5.976 -1.4112  1.6834  0.0598
 4113TIP3   OH233753   6.016   1.218   0.921 -0.0770  0.0872 -0.1170
 4113TIP3    H133754   6.112   1.227   0.916 -0.1362  1.4943  0.6902
 4113TIP3    H233755   5.992   1.268   0.999 -1.5521  0.4172 -0.7579
 4114TIP3   OH233756   1.903   6.618  12.879  0.3633 -0.0684 -0.2376
 4114TIP3    H133757   1.841   6.689  12.897  0.9941  0.0107  1.8729
 4114TIP3    H233758   1.870   6.543  12.928  1.3554 -0.3365  0.0522
 4115TIP3   OH233759   5.590   5.030  13.718 -0.1381 -0.1509  0.2416
 4115TIP3    H133760   5.603   4.976  13.640  0.5398 -0.8400  0.8106
 4115TIP3    H233761   5.668   5.087  13.721 -0.4524  0.2951  0.0950
 4116TIP3   OH233762   3.529   0.525   4.344  0.2780 -0.1608 -0.4224
 4116TIP3    H133763   3.478   0.606   4.339 -4.1351 -2.5563  0.2604
 4116TIP3    H233764   3.556   0.520   4.435  1.6514  1.0248 -0.7290
 4117TIP3   OH233765   5.923   6.635  15.282 -0.0361 -0.2507  0.3252
 4117TIP3    H133766   5.888   6.608  15.197 -2.2863  0.1857  1.0520
 4117TIP3    H233767   5.983   6.564  15.307  0.2321 -0.6576 -1.3429
 4118TIP3   OH233768   0.873   1.693   3.080 -0.1949 -0.4135  0.2288
 4118TIP3    H133769   0.804   1.687   3.014 -0.4289 -1.6670  0.5702
 4118TIP3    H233770   0.954   1.689   3.030 -0.3616  0.2497 -0.1079
 4119TIP3   OH233771   6.230   3.324   2.040 -0.6287 -0.0022 -0.4499
 4119TIP3    H133772   6.166   3.339   1.969 -1.3402  0.9293  0.3591
 4119TIP3    H233773   6.315   3.339   1.998 -0.9285 -1.0223 -1.4879
 4120TIP3   OH233774   2.175   3.795   3.611  0.0821 -0.5524  0.5884
 4120TIP3    H133775   2.159   3.710   3.572 -1.8858 -0.0239  0.1103
 4120TIP3    H233776   2.125   3.794   3.693  0.3559  0.0176  0.7715
 4121TIP3   OH233777   2.324   1.355   4.100 -0.3761 -0.1810  0.2356
 4121TIP3    H133778   2.363   1.439   4.074 -0.4002 -0.7199 -1.6222
 4121TIP3    H233779   2.279   1.375   4.182 -1.2817  1.8832 -0.6959
 4122TIP3   OH233780   5.984   0.187   3.438  0.0123  0.5186  0.6628
 4122TIP3    H133781   6.035   0.205   3.359  2.2778  1.8614  2.3054
 4122TIP3    H233782   5.990   0.092   3.449  0.3198  0.4086 -0.3450
 4123TIP3   OH233783   2.115   6.495  13.748  0.0487  0.3406  0.0927
 4123TIP3    H133784   2.171   6.559  13.793  2.0635  0.2929 -2.1294
 4123TIP3    H233785   2.144   6.410  13.780 -0.1745  0.3916  0.4358
 4124TIP3   OH233786   2.605   2.667   3.965 -0.2270  0.4018 -0.3080
 4124TIP3    H133787   2.528   2.723   3.969 -0.1283  0.4688  1.5431
 4124TIP3    H233788   2.574   2.586   3.923 -0.9098  0.9806 -0.9403
 4125TIP3   OH233789   4.054   5.699   0.149 -0.1388  0.2553 -0.0797
 4125TIP3    H133790   4.043   5.659   0.063  2.3395  0.7440 -0.7147
 4125TIP3    H233791   3.970   5.738   0.170 -0.7787  0.1369 -2.2882
 4126TIP3   OH233792   2.727   2.266   5.758  0.0504 -0.5181 -0.0758
 4126TIP3    H133793   2.656   2.252   5.695  0.2064  1.7082 -0.8245
 4126TIP3    H233794   2.807   2.247   5.709  0.1280  0.3590 -0.2976
 4127TIP3   OH233795   2.387   1.974   3.116  0.0541  0.1360  0.4370
 4127TIP3    H133796   2.387   1.889   3.160 -0.3416 -0.1093 -0.0333
 4127TIP3    H233797   2.444   2.029   3.171  0.3200 -0.4302  0.7375
 4128TIP3   OH233798   2.821   1.743  11.158  0.0598 -0.1539 -0.0228
 4128TIP3    H133799   2.859   1.655  11.164 -0.4673 -0.3886 -0.0406
 4128TIP3    H233800   2.793   1.750  11.066 -1.1003 -0.4884  0.2835
 4129TIP3   OH233801   6.201   2.664  14.729 -0.5608 -0.3235  0.3031
 4129TIP3    H133802   6.182   2.731  14.794 -0.5680 -0.5364  0.5247
 4129TIP3    H233803   6.294   2.646  14.740  0.5810  2.7008 -2.6403
 4130TIP3   OH233804   2.865   4.513   3.816 -0.9367 -0.0398  0.0549
 4130TIP3    H133805   2.788   4.541   3.865 -1.2008 -1.2280  0.3588
 4130TIP3    H233806   2.906   4.594   3.787 -2.2053  0.6225  0.0379
 4131TIP3   OH233807   6.767   4.956  16.449 -0.2178  0.2264  0.1682
 4131TIP3    H133808   6.842   4.897  16.441 -1.4107 -1.3370  0.0427
 4131TIP3    H233809   6.792   5.016  16.520  1.8955  0.9848 -1.1100
 4132TIP3   OH233810   5.203   5.657  16.546  0.6084 -0.0995  0.2882
 4132TIP3    H133811   5.256   5.660  16.625 -1.4111  2.9641  1.7121
 4132TIP3    H233812   5.129   5.601  16.569  0.1425  0.5994  0.5259
 4133TIP3   OH233813   2.481   5.333  17.043 -0.8466  0.0070  0.1325
 4133TIP3    H133814   2.443   5.413  17.080  0.8866  0.4157  1.1356
 4133TIP3    H233815   2.452   5.333  16.952 -1.8713  1.1369  0.4335
 4134TIP3   OH233816   1.371   5.339  10.817  0.4791  0.1721  0.3527
 4134TIP3    H133817   1.444   5.381  10.772  0.5262 -0.0978  0.1756
 4134TIP3    H233818   1.328   5.286  10.750  1.4890 -1.4994  0.9686
 4135TIP3   OH233819   4.858   2.679   0.776 -0.0930  0.3688  0.0678
 4135TIP3    H133820   4.776   2.673   0.826 -0.3776  1.1695 -0.2797
 4135TIP3    H233821   4.843   2.751   0.715  1.6374  1.9721  1.4347
 4136TIP3   OH233822   0.673   6.815  11.819  0.5903 -0.1938  0.1110
 4136TIP3    H133823   0.618   6.746  11.855 -2.7030  1.6500 -0.9532
 4136TIP3    H233824   0.719   6.775  11.746  0.5830 -1.7766  0.9404
 4137TIP3   OH233825   2.089   4.558  16.294  0.3277 -0.3616  0.3093
 4137TIP3    H133826   1.994   4.548  16.286  0.1945  0.1460  1.1250
 4137TIP3    H233827   2.114   4.490  16.357  0.4254 -0.1371  0.5117
 4138TIP3   OH233828   0.677   0.934   1.863 -0.0611  0.0663 -0.5292
 4138TIP3    H133829   0.645   0.993   1.795 -1.7230  1.1634  1.1090
 4138TIP3    H233830   0.682   0.848   1.820  0.0572  0.9140 -2.3012
 4139TIP3   OH233831   0.962   3.742   1.829 -0.0217  0.3126 -0.0716
 4139TIP3    H133832   0.972   3.834   1.804  2.1221  0.6146  1.6409
 4139TIP3    H233833   0.995   3.692   1.754  1.8257  1.0545  0.2022
 4140TIP3   OH233834   0.028   0.807   3.387 -1.0106 -0.2246 -0.0289
 4140TIP3    H133835  -0.060   0.811   3.424 -1.6640 -1.2219 -1.3749
 4140TIP3    H233836   0.076   0.751   3.449 -1.4674 -0.1138  0.4404
 4141TIP3   OH233837   5.732   1.524  15.482  0.2246  0.4819 -0.1002
 4141TIP3    H133838   5.683   1.544  15.403 -2.0055 -0.0345  1.0804
 4141TIP3    H233839   5.748   1.430  15.478  1.0369  0.6253 -0.4135
 4142TIP3   OH233840   3.151   4.876   1.227  0.6246 -0.2771  0.5421
 4142TIP3    H133841   3.101   4.950   1.194  2.1112 -0.0660 -1.4774
 4142TIP3    H233842   3.166   4.821   1.149 -0.8204 -2.9915  2.0371
 4143TIP3   OH233843   6.298   0.133  12.796 -0.2029  0.6354  0.0347
 4143TIP3    H133844   6.214   0.114  12.755  0.3948 -0.7112 -0.6060
 4143TIP3    H233845   6.338   0.199  12.739  0.4013 -0.8437 -1.3065
 4144TIP3   OH233846   2.030   6.387  11.665  0.0385 -0.0503  0.1880
 4144TIP3    H133847   2.030   6.390  11.761 -1.9580  0.7950  0.2023
 4144TIP3    H233848   2.116   6.422  11.640  0.9529 -1.1359  1.6444
 4145TIP3   OH233849   0.465   4.299   5.183  0.5506  0.2165  0.3814
 4145TIP3    H133850   0.478   4.375   5.126  0.2444 -0.7331 -1.0167
 4145TIP3    H233851   0.538   4.242   5.163  0.1710 -0.3447  0.5782
 4146TIP3   OH233852   3.519   6.042   5.781 -0.0834 -0.0167 -0.2651
 4146TIP3    H133853   3.554   6.002   5.701 -0.5512 -2.4816  0.6885
 4146TIP3    H233854   3.587   6.026   5.847 -0.6988 -0.1044  0.3555
 4147TIP3   OH233855   2.442   6.615  12.875 -0.4935 -0.5347 -0.3434
 4147TIP3    H133856   2.492   6.543  12.837 -0.3653 -1.6021  1.7401
 4147TIP3    H233857   2.350   6.590  12.862 -0.5585  0.5090 -2.4333
 4148TIP3   OH233858   2.859   1.027  16.976  0.1165 -0.4089  0.2914
 4148TIP3    H133859   2.822   1.102  17.021 -1.9859 -0.9831 -0.3686
 4148TIP3    H233860   2.952   1.048  16.967 -0.1765  1.5193  1.2345
 4149TIP3   OH233861   2.197   3.268  14.828 -0.0765 -0.1860 -0.1335
 4149TIP3    H133862   2.264   3.215  14.872 -0.7458 -0.5044  0.5275
 4149TIP3    H233863   2.114   3.227  14.854 -0.6271  1.3466  0.5978
 4150TIP3   OH233864   1.590   4.918  11.535  0.7913  0.4478 -0.1473
 4150TIP3    H133865   1.552   4.948  11.617  0.4273  1.1099 -0.5449
 4150TIP3    H233866   1.656   4.853  11.561  0.0115 -0.0634  0.5992
 4151TIP3   OH233867   0.121   5.868  13.873 -0.4912  0.4327  0.4132
 4151TIP3    H133868   0.204   5.840  13.912 -0.5596  1.1466  1.1131
 4151TIP3    H233869   0.124   5.835  13.784  0.2286 -0.1766  0.6479
 4152TIP3   OH233870   4.128   5.733  12.608  0.0565 -0.2214 -0.0861
 4152TIP3    H133871   4.167   5.674  12.672 -0.9340  0.2179  0.9501
 4152TIP3    H233872   4.040   5.698  12.594 -0.3294  0.6581  0.0928
 4153TIP3   OH233873   0.691   4.283  16.970 -0.5970 -0.1070  0.2768
 4153TIP3    H133874   0.677   4.373  16.998 -3.3636 -0.3277 -0.1068
 4153TIP3    H233875   0.647   4.277  16.885  1.0499 -1.3958 -0.5451
 4154TIP3   OH233876   4.374   2.593   4.876  0.7005  0.5965 -0.0434
 4154TIP3    H133877   4.415   2.629   4.797  0.1453 -0.4712 -0.8453
 4154TIP3    H233878   4.442   2.540   4.917  0.6801  0.3216 -0.3643
 4155TIP3   OH233879   2.026   4.019   4.269  0.3242 -0.1476  0.1220
 4155TIP3    H133880   2.048   4.084   4.203  0.8254 -0.5745 -0.1349
 4155TIP3    H233881   1.939   4.045   4.300 -0.0644 -0.1400 -0.9445
 4156TIP3   OH233882   3.656   0.312  14.307  0.2708 -0.3376  0.4502
 4156TIP3    H133883   3.746   0.341  14.323  0.2797 -0.1862  0.1301
 4156TIP3    H233884   3.604   0.392  14.313  0.1679 -0.4134  0.5593
 4157TIP3   OH233885   4.163   5.162   1.933  0.6781 -0.6305  0.1720
 4157TIP3    H133886   4.196   5.184   2.020 -0.6676 -0.4035  0.6544
 4157TIP3    H233887   4.210   5.220   1.874  0.9854 -0.1834  0.8450
 4158TIP3   OH233888   5.009   0.247  17.043 -0.0007 -0.5246  0.1286
 4158TIP3    H133889   5.079   0.225  17.104  0.4602 -0.2565 -0.2935
 4158TIP3    H233890   5.053   0.251  16.957 -0.5029 -0.1961 -0.1141
 4159TIP3   OH233891   5.572   6.070  15.681 -0.5388 -0.1130 -0.3025
 4159TIP3    H133892   5.582   6.146  15.624  2.2104 -0.3845 -0.3120
 4159TIP3    H233893   5.568   5.995  15.622  3.3125 -0.4990 -0.3631
 4160TIP3   OH233894   2.826   0.439   5.299  0.1570 -0.2217  0.1534
 4160TIP3    H133895   2.739   0.465   5.267 -0.7058 -0.9699  1.7543
 4160TIP3    H233896   2.828   0.471   5.389  1.3566 -0.6533  0.2932
 4161TIP3   OH233897   5.470   2.065  13.296  0.0223  0.6686 -0.1695
 4161TIP3    H133898   5.550   2.086  13.247 -0.2583 -0.0114 -0.9617
 4161TIP3    H233899   5.399   2.089  13.236 -0.3516 -4.0562 -2.0154
 4162TIP3   OH233900   4.541   3.278  17.018 -0.2555 -0.0587 -0.5293
 4162TIP3    H133901   4.532   3.195  16.972  0.9763  0.4045 -1.6538
 4162TIP3    H233902   4.455   3.291  17.060 -0.9750 -1.1426 -1.5915
 4163TIP3   OH233903   4.041   4.122   0.883 -0.0976 -0.3431  0.4366
 4163TIP3    H133904   4.110   4.186   0.898 -0.0981  0.3423 -2.0522
 4163TIP3    H233905   4.082   4.056   0.826 -1.0066 -0.8393  0.3432
 4164TIP3   OH233906   6.448   6.457  11.256 -0.0999  0.2956  0.1674
 4164TIP3    H133907   6.393   6.498  11.324  0.4333  0.4979  0.4796
 4164TIP3    H233908   6.426   6.505  11.176 -1.6747 -0.7786 -0.0840
 4165TIP3   OH233909   0.531   3.465  10.283  0.1483 -0.0591  0.4184
 4165TIP3    H133910   0.506   3.373  10.288  0.5390 -0.3466 -1.9187
 4165TIP3    H233911   0.617   3.469  10.325  0.2893 -0.8204  0.2126
 4166TIP3   OH233912   0.478   2.404   5.973  0.1420 -0.0699  0.5154
 4166TIP3    H133913   0.564   2.394   5.933  0.0528  0.1439  0.2698
 4166TIP3    H233914   0.441   2.482   5.932 -0.2197 -0.2318  0.5271
 4167TIP3   OH233915   4.957   2.063  16.107 -0.1544  0.2936  0.0282
 4167TIP3    H133916   4.893   2.116  16.154  0.6308  0.3474  1.0992
 4167TIP3    H233917   4.939   2.077  16.015 -0.5765  1.6667  0.3013
 4168TIP3   OH233918   4.503   1.716   4.254 -0.0255  0.4933 -0.7959
 4168TIP3    H133919   4.482   1.669   4.173 -0.9145  0.3867 -0.5093
 4168TIP3    H233920   4.452   1.797   4.248  1.2806  1.3258 -1.1570
 4169TIP3   OH233921   1.467   1.666   1.440 -0.2579  0.1407  0.0769
 4169TIP3    H133922   1.408   1.688   1.368  0.3174  0.1570 -0.3964
 4169TIP3    H233923   1.452   1.735   1.505 -0.1457  0.6205 -0.4047
 4170TIP3   OH233924   0.224   2.998   3.963  0.4101  0.5693 -0.1935
 4170TIP3    H133925   0.291   2.930   3.971 -0.1414 -0.0565 -0.7476
 4170TIP3    H233926   0.141   2.951   3.966  0.0263  1.1423 -1.1378
 4171TIP3   OH233927   0.269   3.576  10.566  0.4316  0.3169 -0.1058
 4171TIP3    H133928   0.268   3.489  10.527 -0.6365  0.2848 -0.0457
 4171TIP3    H233929   0.284   3.635  10.492 -1.6518  0.2613 -0.6251
 4172TIP3   OH233930   2.077   4.522   2.918  0.7850 -0.2113 -0.6480
 4172TIP3    H133931   2.054   4.507   3.010  0.0242  1.1339 -0.5871
 4172TIP3    H233932   1.994   4.515   2.871  0.7881  1.1827 -0.9207
 4173TIP3   OH233933   4.825   4.701   5.311  0.2212 -0.1627  0.5125
 4173TIP3    H133934   4.784   4.615   5.302  1.1888 -0.4406 -1.7794
 4173TIP3    H233935   4.914   4.682   5.341 -0.0723  0.1914  1.6731
 4174TIP3   OH233936   6.519   1.153   1.449 -0.0197  0.2886 -0.2541
 4174TIP3    H133937   6.444   1.113   1.404 -1.5230  2.7614 -0.1209
 4174TIP3    H233938   6.499   1.143   1.542  0.6847 -0.5293 -0.1797
 4175TIP3   OH233939   6.683   0.795   0.606 -0.1756  0.0941  0.4402
 4175TIP3    H133940   6.671   0.742   0.527  0.2245  0.4075  0.1628
 4175TIP3    H233941   6.640   0.746   0.675  0.1485 -0.5735  0.1759
 4176TIP3   OH233942   1.001   1.901  16.059  0.0071  0.4881  0.8972
 4176TIP3    H133943   1.015   1.823  16.005  3.1129  0.6632  1.2718
 4176TIP3    H233944   0.975   1.867  16.144  0.1068 -0.0683  0.7122
 4177TIP3   OH233945   0.186   2.896  14.773 -0.1140  0.0331 -0.5579
 4177TIP3    H133946   0.158   2.829  14.835  1.6559  0.9502  1.3372
 4177TIP3    H233947   0.157   2.978  14.811 -0.6831  0.5184 -1.9554
 4178TIP3   OH233948   5.299   6.317   4.851  0.0317  0.6467 -0.0183
 4178TIP3    H133949   5.274   6.262   4.778  2.7097  0.3728 -0.8113
 4178TIP3    H233950   5.215   6.351   4.884 -1.6635 -2.8886 -0.1794
 4179TIP3   OH233951   4.360   0.165   2.519 -0.3655 -0.2292 -0.1639
 4179TIP3    H133952   4.314   0.129   2.595 -1.5170  1.2547 -0.1019
 4179TIP3    H233953   4.302   0.234   2.487  2.6134  3.2249  1.1465
 4180TIP3   OH233954   3.702   1.327   0.159 -0.9172  0.4323  0.5822
 4180TIP3    H133955   3.733   1.324   0.068 -1.6816 -1.0858  0.3491
 4180TIP3    H233956   3.607   1.317   0.151 -1.1390  1.5906  1.4943
 4181TIP3   OH233957   4.617   4.063   3.088 -0.0951 -0.4062 -0.5852
 4181TIP3    H133958   4.521   4.071   3.092 -0.2749 -0.7332 -2.8143
 4181TIP3    H233959   4.648   4.107   3.167 -2.1281 -1.5549  0.9617
 4182TIP3   OH233960   0.790   0.240   2.188  0.0387  0.2502  0.3168
 4182TIP3    H133961   0.815   0.290   2.265 -0.6165 -0.4629  1.0090
 4182TIP3    H233962   0.757   0.157   2.223 -0.1092 -0.1494 -0.7383
 4183TIP3   OH233963   5.297   5.159   2.037  0.4592  0.2795 -0.3239
 4183TIP3    H133964   5.350   5.238   2.022  1.5377 -0.5306 -0.9605
 4183TIP3    H233965   5.289   5.154   2.132  1.5440  0.4350 -0.2075
 4184TIP3   OH233966   5.303   4.732   1.199 -0.0364 -0.0826 -0.3617
 4184TIP3    H133967   5.334   4.650   1.238 -0.9685 -0.4878 -0.4356
 4184TIP3    H233968   5.370   4.796   1.221  0.7312 -0.8738 -0.3342
 4185TIP3   OH233969   0.847   2.947  14.472 -0.2908  0.0243 -0.5462
 4185TIP3    H133970   0.825   3.011  14.404  1.0277  2.3448  1.0596
 4185TIP3    H233971   0.796   2.974  14.548  0.0741 -1.0234  0.0860
 4186TIP3   OH233972   1.387   1.152   3.761  0.3738  0.2648  0.1728
 4186TIP3    H133973   1.334   1.177   3.837 -0.4909  0.6261 -0.5391
 4186TIP3    H233974   1.334   1.087   3.715  0.2381  1.1365 -0.9188
 4187TIP3   OH233975   1.076   6.371   5.333 -0.6732 -0.1528  0.5706
 4187TIP3    H133976   1.120   6.456   5.333 -0.8837 -0.0330 -0.7124
 4187TIP3    H233977   1.142   6.311   5.368 -0.1568  0.3479  0.4749
 4188TIP3   OH233978   6.363   6.030   0.476 -0.1801 -0.1603  0.0067
 4188TIP3    H133979   6.278   5.988   0.487 -0.8486  0.8144 -1.2678
 4188TIP3    H233980   6.399   6.034   0.565 -2.5230  1.5864  0.9657
 4189TIP3   OH233981   5.093   3.251  11.660 -0.0630  0.0556  0.0512
 4189TIP3    H133982   5.096   3.223  11.751 -0.4339  0.4852  0.2003
 4189TIP3    H233983   5.048   3.180  11.615  1.6991 -0.9978 -0.1377
 4190TIP3   OH233984   0.373   0.815  16.185  0.7419  0.4585  0.0722
 4190TIP3    H133985   0.298   0.772  16.226  0.1320  0.7470 -0.7283
 4190TIP3    H233986   0.376   0.902  16.224 -0.3786  1.0525 -1.1119
 4191TIP3   OH233987   2.240   2.625   6.349  0.1151 -0.5450 -0.0824
 4191TIP3    H133988   2.156   2.658   6.316  0.2896 -0.5849 -0.5750
 4191TIP3    H233989   2.299   2.699   6.342 -0.5275  0.3634  2.8862
 4192TIP3   OH233990   5.348   6.717   3.908 -0.6701 -0.4182  0.2854
 4192TIP3    H133991   5.316   6.735   3.820  1.3833  3.0661  0.0780
 4192TIP3    H233992   5.284   6.655   3.944 -2.9400 -0.0952 -2.7794
 4193TIP3   OH233993   1.902   4.451  13.123  0.3838 -0.1895 -0.0190
 4193TIP3    H133994   1.831   4.500  13.164  0.3460  1.9090 -2.3705
 4193TIP3    H233995   1.860   4.370  13.093 -0.8266  0.5973 -0.5342
 4194TIP3   OH233996   2.204   3.700   1.503 -0.4310 -0.6983 -0.2220
 4194TIP3    H133997   2.246   3.763   1.562 -0.2040 -1.0870  0.0387
 4194TIP3    H233998   2.169   3.753   1.432 -0.6065 -0.2338  0.2069
 4195TIP3   OH233999   3.745   5.808   4.535 -0.3194  0.2606  0.1723
 4195TIP3    H134000   3.797   5.858   4.599  2.4389 -1.6557 -0.3783
 4195TIP3    H234001   3.810   5.770   4.476 -2.2754 -3.0612 -0.0762
 4196TIP3   OH234002   6.740   5.481   3.383  0.1682 -0.0474 -0.0877
 4196TIP3    H134003   6.744   5.536   3.461  1.5014 -0.1490 -0.0523
 4196TIP3    H234004   6.699   5.399   3.413 -0.3893  0.3383  0.2209
 4197TIP3   OH234005   4.084   5.920  16.236 -0.2778 -0.0986  0.6649
 4197TIP3    H134006   4.071   5.917  16.141  1.4993  1.1122  0.3519
 4197TIP3    H234007   4.157   5.861  16.252  0.2292  0.6454  1.1163
 4198TIP3   OH234008   0.521   5.407  15.024 -0.3719 -0.0197 -0.4683
 4198TIP3    H134009   0.545   5.497  15.004  0.6137 -0.3290 -0.6993
 4198TIP3    H234010   0.535   5.359  14.943  1.3442 -0.8135  0.2563
 4199TIP3   OH234011   2.820   3.143  14.047 -0.2418 -0.2074 -0.1989
 4199TIP3    H134012   2.828   3.136  13.952 -3.9883  0.6058 -0.7487
 4199TIP3    H234013   2.848   3.232  14.068 -0.1604 -0.1161 -0.6884
 4200TIP3   OH234014   3.454   4.921   1.033  0.3596  0.0881 -0.4330
 4200TIP3    H134015   3.465   4.834   1.071  0.5461 -0.2278 -1.1890
 4200TIP3    H234016   3.380   4.912   0.973 -0.9465  0.9660  0.9614
 4201TIP3   OH234017   3.062   1.603  16.666 -0.9145 -0.6544 -0.5191
 4201TIP3    H134018   3.017   1.674  16.711  0.6184  1.0082 -1.5041
 4201TIP3    H234019   3.059   1.627  16.573 -1.0139 -2.2819 -0.9819
 4202TIP3   OH234020   2.938   6.321   5.043 -0.4510  0.1228  0.4989
 4202TIP3    H134021   2.994   6.395   5.066 -0.1532 -0.0110  0.2194
 4202TIP3    H234022   2.947   6.313   4.948 -1.1782  0.2846  0.4050
 4203TIP3   OH234023   5.883   3.452   5.663 -0.6400  0.1025 -0.5076
 4203TIP3    H134024   5.867   3.518   5.731  0.9275 -0.4407  0.4669
 4203TIP3    H234025   5.853   3.370   5.702 -0.8609 -0.0366 -0.9672
 4204TIP3   OH234026   0.191   5.173   0.550  0.0473 -0.1264 -0.0815
 4204TIP3    H134027   0.160   5.138   0.634  1.7564 -3.0737 -0.5632
 4204TIP3    H234028   0.272   5.125   0.532 -0.0144  0.7492 -3.2139
 4205TIP3   OH234029   5.916   5.414   4.127 -0.3331  0.0995 -0.0541
 4205TIP3    H134030   5.872   5.391   4.045 -1.7337  1.2669  0.3311
 4205TIP3    H234031   5.873   5.360   4.193 -0.7555  0.7623  0.2233
 4206TIP3   OH234032   0.829   3.044   3.983 -0.4112 -0.2021  0.0493
 4206TIP3    H134033   0.829   2.952   4.008  1.3757 -0.4024 -0.5566
 4206TIP3    H234034   0.888   3.048   3.907 -0.8968  1.3551 -0.2765
 4207TIP3   OH234035   4.477   6.735   5.326  0.2085 -0.2037 -0.0613
 4207TIP3    H134036   4.405   6.745   5.389  0.8357  0.6985  0.5415
 4207TIP3    H234037   4.535   6.670   5.367 -0.1523 -0.7721 -0.4461
 4208TIP3   OH234038   2.075   1.252   1.981 -0.5034 -0.6490 -0.0923
 4208TIP3    H134039   2.091   1.313   2.052 -1.5821  1.0830 -1.2606
 4208TIP3    H234040   2.160   1.211   1.965  0.5841  1.4976 -0.0919
 4209TIP3   OH234041   3.795   4.522   2.468  0.5012  0.0134  0.0548
 4209TIP3    H134042   3.770   4.532   2.376  0.0796 -0.8855  0.0545
 4209TIP3    H234043   3.725   4.564   2.517  0.0304 -0.6679 -0.0107
 4210TIP3   OH234044   0.413   5.605  13.812  0.2465 -0.5810  0.0151
 4210TIP3    H134045   0.397   5.699  13.824 -2.1134 -0.6196 -2.1458
 4210TIP3    H234046   0.336   5.562  13.848 -0.0421 -1.4708 -1.5647
 4211TIP3   OH234047   3.419   1.755   3.886 -0.4884  0.1218  0.2081
 4211TIP3    H134048   3.467   1.768   3.968  1.2067  1.5995 -0.9410
 4211TIP3    H234049   3.398   1.843   3.856  0.2442 -0.2873 -1.6536
 4212TIP3   OH234050   2.477   0.761   6.058 -0.0728  0.1613  0.3206
 4212TIP3    H134051   2.393   0.757   6.012  0.4591  2.0579 -0.9261
 4212TIP3    H234052   2.486   0.675   6.099 -1.8143 -0.6693 -0.9229
 4213TIP3   OH234053   2.673   4.902   6.001  0.5197  0.1431 -0.6118
 4213TIP3    H134054   2.635   4.988   6.014  1.0910  0.9359 -3.5127
 4213TIP3    H234055   2.757   4.905   6.047  0.5647  1.1807 -0.7458
 4214TIP3   OH234056   5.975   0.272  11.464 -0.0945 -0.0533 -0.3205
 4214TIP3    H134057   5.883   0.251  11.481 -0.6184  1.0314 -1.6778
 4214TIP3    H234058   6.017   0.186  11.452 -1.5695 -0.5198 -2.7358
 4215TIP3   OH234059   6.260   5.040  10.849 -0.5073 -0.4146 -0.0992
 4215TIP3    H134060   6.271   4.968  10.786 -0.9629 -0.3014 -0.3138
 4215TIP3    H234061   6.348   5.057  10.882  0.0126  0.5668 -1.8635
 4216TIP3   OH234062   0.211   3.825   0.564 -0.5672 -0.4705  0.5648
 4216TIP3    H134063   0.200   3.732   0.546 -0.5596 -0.0846 -1.6166
 4216TIP3    H234064   0.135   3.848   0.618  0.3912 -2.0680  2.7792
 4217TIP3   OH234065   1.249   0.728   3.804 -0.1656 -0.1494 -0.1464
 4217TIP3    H134066   1.298   0.650   3.777  0.9188  0.6692 -0.6469
 4217TIP3    H234067   1.256   0.787   3.729  0.5789  1.1230  0.8915
 4218TIP3   OH234068   4.988   6.303   4.596 -0.0823  0.1061 -0.5377
 4218TIP3    H134069   5.000   6.307   4.501 -1.5525  0.3703 -0.7351
 4218TIP3    H234070   4.973   6.394   4.622 -4.7312 -0.3370 -0.8458
 4219TIP3   OH234071   2.349   0.612  15.336  0.1480  0.2195  0.6132
 4219TIP3    H134072   2.326   0.700  15.364  0.9822  0.3033  1.0899
 4219TIP3    H234073   2.353   0.617  15.241 -1.4017  0.2767  0.5405
 4220TIP3   OH234074   3.930   1.333   0.327  0.5562  0.4170 -0.2339
 4220TIP3    H134075   3.997   1.328   0.260 -0.2389 -0.2558 -1.0053
 4220TIP3    H234076   3.847   1.330   0.279 -0.0348  0.5705  0.7336
 4221TIP3   OH234077   5.787   2.280  14.610 -0.1766 -0.5236 -0.8728
 4221TIP3    H134078   5.825   2.345  14.551  0.6476  0.1346  0.3300
 4221TIP3    H234079   5.704   2.256  14.569 -0.7507  1.6676 -1.1504
 4222TIP3   OH234080   2.100   5.775   2.048  0.0175 -0.0391  0.2213
 4222TIP3    H134081   2.159   5.746   2.117 -0.2361  0.9194  0.8512
 4222TIP3    H234082   2.035   5.706   2.042  0.7699 -0.7518  0.0281
 4223TIP3   OH234083   2.640   3.998  16.238  0.1295 -0.2576  0.4888
 4223TIP3    H134084   2.693   3.970  16.313 -0.9760 -0.3124  1.2745
 4223TIP3    H234085   2.592   4.074  16.270  0.1682  0.1472 -0.3963
 4224TIP3   OH234086   2.401   2.847   2.217 -0.4896  0.2847 -0.0249
 4224TIP3    H134087   2.394   2.919   2.154 -0.9073  0.8888  0.7017
 4224TIP3    H234088   2.440   2.887   2.295  0.4262 -0.5493 -0.0390
 4225TIP3   OH234089   4.631   1.791   3.492 -0.0953 -0.1939  0.1269
 4225TIP3    H134090   4.570   1.720   3.471 -0.0668  0.0403 -0.7696
 4225TIP3    H234091   4.606   1.819   3.580 -0.8512 -0.5506  0.0297
 4226TIP3   OH234092   4.741   6.533   5.005 -0.1802  0.7721 -0.1572
 4226TIP3    H134093   4.719   6.540   4.912 -2.0917  0.3756  0.2095
 4226TIP3    H234094   4.692   6.456   5.035 -0.4466  1.4937  1.3767
 4227TIP3   OH234095   1.333   4.732   5.095 -0.1729 -0.2832 -0.7878
 4227TIP3    H134096   1.401   4.687   5.146 -1.2586 -0.6636  0.3670
 4227TIP3    H234097   1.263   4.667   5.085 -1.8878  1.1474  1.1228
 4228TIP3   OH234098   0.148   6.360   0.132 -0.1317  0.5388  0.2536
 4228TIP3    H134099   0.120   6.405   0.052  0.3687 -1.1897 -0.9674
 4228TIP3    H234100   0.243   6.351   0.122 -0.1441 -0.2496  0.7129
 4229TIP3   OH234101   4.401   0.433   2.671 -0.2303  0.5180  0.2184
 4229TIP3    H134102   4.379   0.395   2.756 -0.8474  0.0346 -0.1498
 4229TIP3    H234103   4.403   0.358   2.611  2.4577  0.5069  0.2179
 4230TIP3   OH234104   1.861   2.423  14.670 -0.3828  0.1223 -0.2198
 4230TIP3    H134105   1.947   2.400  14.705 -1.0317 -0.4074  1.0941
 4230TIP3    H234106   1.879   2.456  14.582  1.1064 -0.5083 -0.1810
 4231TIP3   OH234107   3.444   4.650  12.273 -0.4178 -0.2795 -0.3213
 4231TIP3    H134108   3.410   4.599  12.200 -0.0980  0.4123 -0.9626
 4231TIP3    H234109   3.502   4.714  12.233  0.6099 -0.5756  0.6302
 4232TIP3   OH234110   1.970   5.727  14.525 -0.5018  0.2865  0.5185
 4232TIP3    H134111   1.991   5.792  14.458 -0.0066 -0.5002 -0.1015
 4232TIP3    H234112   1.880   5.746  14.550 -0.8683  0.2643 -0.7417
 4233TIP3   OH234113   0.407   1.342  16.507  0.0438  0.3418 -0.4714
 4233TIP3    H134114   0.446   1.254  16.507 -0.5225  0.0834 -0.6223
 4233TIP3    H234115   0.414   1.371  16.416  1.3949  0.9884 -0.1694
 4234TIP3   OH234116   5.052   4.576  11.238 -0.1727  0.5130 -0.2558
 4234TIP3    H134117   4.970   4.625  11.232  1.0649  3.0769  1.9118
 4234TIP3    H234118   5.058   4.550  11.330  0.8496 -0.7800 -0.6520
 4235TIP3   OH234119   3.450   4.488   3.912 -0.7283 -0.3292 -0.4516
 4235TIP3    H134120   3.446   4.466   3.819  0.6845 -1.1530 -0.3558
 4235TIP3    H234121   3.459   4.404   3.957 -0.8224  0.0888  0.3848
 4236TIP3   OH234122   3.010   0.262   1.623 -0.1371  0.3690  0.0417
 4236TIP3    H134123   2.987   0.315   1.700  0.6792  0.2135  0.3993
 4236TIP3    H234124   3.105   0.253   1.627 -0.1472 -0.1572 -0.6549
 4237TIP3   OH234125   6.820   0.812  12.032  0.5157 -0.5443 -0.1595
 4237TIP3    H134126   6.766   0.845  11.961 -1.0695 -0.2537  1.1250
 4237TIP3    H234127   6.792   0.721  12.044 -0.2372 -0.1761  0.9871
 4238TIP3   OH234128   4.681   5.654   5.150  0.0113 -0.3293  0.6486
 4238TIP3    H134129   4.594   5.661   5.190 -0.6227 -1.2278 -0.5259
 4238TIP3    H234130   4.664   5.631   5.059  1.4818 -0.2396  0.3320
 4239TIP3   OH234131   3.213   5.269  11.608  0.3218  0.3150  0.3053
 4239TIP3    H134132   3.283   5.205  11.626  0.1575  0.8978  3.7099
 4239TIP3    H234133   3.201   5.265  11.513  3.9011 -0.9218 -0.2570
 4240TIP3   OH234134   6.697   5.079   5.585  0.0626 -0.1740  0.2705
 4240TIP3    H134135   6.703   5.175   5.583 -0.6049 -0.0270  2.5538
 4240TIP3    H234136   6.788   5.049   5.595  0.1297  0.3311  1.2997
 4241TIP3   OH234137   1.707   0.297   4.773  0.2205 -0.1759  0.0176
 4241TIP3    H134138   1.757   0.234   4.825  0.3726  1.2005  1.6287
 4241TIP3    H234139   1.632   0.318   4.828 -0.3410  0.3356 -0.9193
 4242TIP3   OH234140   2.727   2.223  14.710 -0.2778  0.0092  0.1385
 4242TIP3    H134141   2.739   2.243  14.617 -1.5411  1.7497  0.2975
 4242TIP3    H234142   2.780   2.288  14.755 -0.6980  0.0018  0.6478
 4243TIP3   OH234143   4.195   6.714  15.704 -0.4363 -0.0660 -0.2015
 4243TIP3    H134144   4.164   6.804  15.715 -0.1245 -0.0940  1.0125
 4243TIP3    H234145   4.171   6.670  15.785  0.9733 -0.6253 -0.0638
 4244TIP3   OH234146   5.558   0.475  14.944  0.1156  0.3622 -0.3435
 4244TIP3    H134147   5.631   0.501  15.000 -0.4837  0.1742  0.5508
 4244TIP3    H234148   5.567   0.381  14.935 -0.2096  0.2902  0.0586
 4245TIP3   OH234149   0.744   2.828  13.439  0.0398  0.1239  0.6356
 4245TIP3    H134150   0.777   2.747  13.400 -0.4616  1.1449 -2.1393
 4245TIP3    H234151   0.767   2.896  13.376 -3.2149  1.5353  0.7470
 4246TIP3   OH234152   2.883   3.794   2.178 -0.2529  0.3422  0.4524
 4246TIP3    H134153   2.925   3.776   2.262 -0.7912 -0.8836  0.4664
 4246TIP3    H234154   2.944   3.759   2.113  0.0143  1.0117  0.3257
 4247TIP3   OH234155   0.408   2.284   4.419 -0.0811 -0.6892  0.0691
 4247TIP3    H134156   0.465   2.328   4.356 -0.8904 -0.6235 -0.6220
 4247TIP3    H234157   0.373   2.208   4.372 -1.7237  0.0828 -0.0193
 4248TIP3   OH234158   0.580   1.143  15.607 -0.0116  0.2218  0.3653
 4248TIP3    H134159   0.488   1.142  15.631 -0.1499  0.8063 -0.1192
 4248TIP3    H234160   0.624   1.096  15.678 -0.7705 -0.7738  0.1962
 4249TIP3   OH234161   5.430   3.173   4.175  0.3439 -0.5530 -0.0049
 4249TIP3    H134162   5.507   3.130   4.211 -0.3603 -0.2897  1.8965
 4249TIP3    H234163   5.358   3.145   4.231 -0.6823  0.5327 -0.7226
 4250TIP3   OH234164   1.865   2.475   1.700  0.4774  0.2348  0.2763
 4250TIP3    H134165   1.810   2.540   1.744  0.4530 -0.2558  0.9925
 4250TIP3    H234166   1.804   2.405   1.676  0.4673  0.5606 -0.6743
 4251TIP3   OH234167   1.239   4.686   2.905 -0.1404  0.0524 -0.0226
 4251TIP3    H134168   1.199   4.643   2.981  0.2962 -0.7607 -0.2385
 4251TIP3    H234169   1.319   4.726   2.939  1.4912 -2.5766 -0.5026
 4252TIP3   OH234170   1.146   3.132   2.868 -0.5531  0.7753 -0.5922
 4252TIP3    H134171   1.223   3.175   2.833  1.7043 -4.0424 -2.4688
 4252TIP3    H234172   1.175   3.094   2.951  0.0982 -2.9030 -2.3074
 4253TIP3   OH234173   5.458   2.043   1.128  0.3083 -0.5854 -0.8139
 4253TIP3    H134174   5.452   1.949   1.145  0.2658 -0.3076  0.9184
 4253TIP3    H234175   5.372   2.077   1.152  0.8280  0.0930  0.1924
 4254TIP3   OH234176   1.194   3.416  10.515 -0.1127  0.0552 -0.0878
 4254TIP3    H134177   1.278   3.451  10.487  1.0415 -0.6928  2.1881
 4254TIP3    H234178   1.130   3.479  10.481  1.5522  2.0560  0.2556
 4255TIP3   OH234179   4.933   4.706   3.159  0.4844  0.2649 -0.0344
 4255TIP3    H134180   4.983   4.787   3.173  1.8349 -0.7104  1.1386
 4255TIP3    H234181   4.937   4.661   3.243  1.5930 -1.9789 -1.2016
 4256TIP3   OH234182   3.810   5.476   1.729 -0.4012 -0.0642 -0.3067
 4256TIP3    H134183   3.847   5.557   1.695 -0.3718 -0.4594 -1.2527
 4256TIP3    H234184   3.751   5.503   1.799 -2.2274  0.9780 -2.1679
 4257TIP3   OH234185   5.671   0.507   4.328  0.4259 -0.0271  0.1609
 4257TIP3    H134186   5.738   0.528   4.263  0.4442  3.8009  1.1324
 4257TIP3    H234187   5.718   0.505   4.411 -0.3774  1.4552  0.7057
 4258TIP3   OH234188   5.161   0.040  12.372 -0.1755 -0.4837  0.1176
 4258TIP3    H134189   5.232   0.075  12.319  0.2434 -1.4067  0.0529
 4258TIP3    H234190   5.204  -0.000  12.447 -0.7688  1.0024  1.3212
 4259TIP3   OH234191   3.310   6.235  16.818  0.5287  0.0505 -0.1729
 4259TIP3    H134192   3.252   6.185  16.760  0.0162 -1.1014  1.2796
 4259TIP3    H234193   3.323   6.318  16.772 -1.4442 -0.0503 -1.0303
 4260TIP3   OH234194   0.760   4.592  14.572  0.1989 -0.1159  0.4257
 4260TIP3    H134195   0.809   4.515  14.604  0.7380  1.2112  3.0523
 4260TIP3    H234196   0.707   4.619  14.647  0.3235  2.3046 -0.2944
 4261TIP3   OH234197   0.424   4.611   5.934  0.4528  0.1002  0.0148
 4261TIP3    H134198   0.360   4.681   5.918 -0.9559 -1.1701 -0.1628
 4261TIP3    H234199   0.484   4.648   5.999 -1.1258  0.9889  1.0608
 4262TIP3   OH234200   5.209   3.890   3.121  0.0851 -0.1838 -0.7149
 4262TIP3    H134201   5.267   3.889   3.198 -0.2737  0.2715 -0.4402
 4262TIP3    H234202   5.243   3.819   3.066  0.8736  0.0350 -0.5342
 4263TIP3   OH234203   0.343   0.788   2.186  0.2161  0.0674  0.0702
 4263TIP3    H134204   0.349   0.694   2.171  1.3448  0.0984  0.2991
 4263TIP3    H234205   0.433   0.817   2.200 -0.2513  0.9063  1.6254
 4264TIP3   OH234206   2.134   2.654  15.217 -0.2925 -0.1700 -0.1572
 4264TIP3    H134207   2.230   2.656  15.213 -0.2630  1.0098  0.6201
 4264TIP3    H234208   2.114   2.673  15.309 -1.2878  1.5419 -0.6927
 4265TIP3   OH234209   4.173   0.192  15.870  0.4010  0.5399 -0.3129
 4265TIP3    H134210   4.193   0.164  15.959 -0.3581  0.4033 -0.1730
 4265TIP3    H234211   4.241   0.255  15.848  0.8405  0.2483  0.2032
 4266TIP3   OH234212   2.973   1.922   3.615  0.2585 -0.4026 -0.2594
 4266TIP3    H134213   2.951   1.890   3.702  0.8527 -0.5010 -0.1371
 4266TIP3    H234214   2.927   1.863   3.555  1.0159 -1.2607 -0.0272
 4267TIP3   OH234215   3.351   2.802   0.536  0.1308  0.1996 -0.5952
 4267TIP3    H134216   3.384   2.713   0.521  0.0580 -0.4996  2.7003
 4267TIP3    H234217   3.275   2.809   0.478 -0.3092 -2.1902 -0.4043
 4268TIP3   OH234218   1.865   6.295  11.106 -0.1970  0.2335  0.4834
 4268TIP3    H134219   1.804   6.231  11.069  0.0861  0.4313 -0.3564
 4268TIP3    H234220   1.916   6.245  11.170 -2.0448  0.3415  2.1597
 4269TIP3   OH234221   0.780   1.132  11.235  0.3713 -0.0702 -0.4906
 4269TIP3    H134222   0.858   1.133  11.181  0.4165 -0.1416 -0.4271
 4269TIP3    H234223   0.811   1.111  11.323  0.8012  3.6584  0.3938
 4270TIP3   OH234224   3.907   0.987  11.730 -0.3975 -0.2192  0.1902
 4270TIP3    H134225   3.979   0.927  11.750  0.0327  0.4079  0.5575
 4270TIP3    H234226   3.867   1.006  11.814  1.1688  2.1040  0.5196
 4271TIP3   OH234227   1.956   4.181  10.568 -0.4425 -0.2212  0.3934
 4271TIP3    H134228   1.941   4.167  10.661  0.7304 -1.0994  0.4860
 4271TIP3    H234229   2.022   4.250  10.565 -0.1282 -0.5245  0.2408
 4272TIP3   OH234230   1.591   6.241   2.772 -0.1550 -0.4261  0.2377
 4272TIP3    H134231   1.584   6.274   2.861 -2.2408  0.9889 -0.3729
 4272TIP3    H234232   1.571   6.148   2.778  0.9593 -0.6124  1.3707
 4273TIP3   OH234233   2.274   4.815   2.043  0.0374 -0.0908  0.8026
 4273TIP3    H134234   2.281   4.905   2.012 -1.8941 -0.0541  0.3661
 4273TIP3    H234235   2.362   4.778   2.030  0.3616  1.1471 -0.7998
 4274TIP3   OH234236   3.794   5.797  15.316 -0.0552 -0.0835  0.1675
 4274TIP3    H134237   3.850   5.866  15.281  0.7363 -0.6902  0.2064
 4274TIP3    H234238   3.705   5.826  15.297  0.1072  2.0134  2.0933
 4275TIP3   OH234239   3.838   3.814  13.155 -0.0364 -0.5917 -0.6091
 4275TIP3    H134240   3.858   3.879  13.223  1.0594 -0.9646 -0.5601
 4275TIP3    H234241   3.858   3.730  13.196  1.0061 -0.8014 -1.5106
 4276TIP3   OH234242   0.771   5.501  16.479 -0.1276  0.3811 -0.2428
 4276TIP3    H134243   0.789   5.513  16.386  1.0481  0.1752 -0.0601
 4276TIP3    H234244   0.677   5.488  16.484 -0.2796  0.9578 -1.3450
 4277TIP3   OH234245   1.600   2.613   5.920  0.2891  0.0773  1.0914
 4277TIP3    H134246   1.619   2.641   6.009  1.9457 -1.0176  1.1276
 4277TIP3    H234247   1.662   2.542   5.903 -1.5503 -1.3528 -0.1164
 4278TIP3   OH234248   3.493   1.413  16.808 -0.1690 -0.2304  0.3984
 4278TIP3    H134249   3.582   1.416  16.774 -1.0529 -0.1907 -2.1427
 4278TIP3    H234250   3.482   1.323  16.839  1.0212  0.0233  1.6315
 4279TIP3   OH234251   1.328   2.541   5.222 -0.6690 -0.0987  0.4864
 4279TIP3    H134252   1.281   2.597   5.161  0.2993  0.7430  0.4881
 4279TIP3    H234253   1.268   2.469   5.240 -1.0017 -0.3289 -1.3919
 4280TIP3   OH234254   2.063   5.168  15.600  0.7654  0.1755 -0.1213
 4280TIP3    H134255   2.045   5.261  15.614  0.4405  0.2250 -0.7859
 4280TIP3    H234256   2.075   5.132  15.688  2.6432  1.1688  0.0619
 4281TIP3   OH234257   2.188   4.128   6.068  0.0193  0.3557 -0.2849
 4281TIP3    H134258   2.220   4.043   6.096 -2.1905 -0.3290  0.3856
 4281TIP3    H234259   2.242   4.151   5.993 -0.0027 -2.1508 -1.1437
 4282TIP3   OH234260   3.676   4.969  15.823  0.0316  0.5951  0.5986
 4282TIP3    H134261   3.581   4.954  15.826 -0.2542  1.1722 -2.2116
 4282TIP3    H234262   3.688   5.053  15.868 -0.6596  0.1469  1.6662
 4283TIP3   OH234263   1.806   2.519   3.107 -0.1217 -0.0115  0.5664
 4283TIP3    H134264   1.732   2.458   3.108 -1.3720  1.4453  1.3855
 4283TIP3    H234265   1.882   2.464   3.121 -0.8328 -1.7862 -1.8883
 4284TIP3   OH234266   0.365   0.231   1.331 -0.0508  0.4068 -0.0767
 4284TIP3    H134267   0.321   0.190   1.256 -0.0744  0.1741  0.0652
 4284TIP3    H234268   0.301   0.228   1.402  0.2805 -0.1530  0.1996
 4285TIP3   OH234269   0.198   6.190   4.462  0.4726  0.2716  0.2517
 4285TIP3    H134270   0.285   6.168   4.428  0.5130  1.5884 -0.6152
 4285TIP3    H234271   0.180   6.124   4.529  1.5384 -0.8528 -0.5269
 4286TIP3   OH234272   6.137   2.194  11.001  0.3323  0.0616 -0.2831
 4286TIP3    H134273   6.105   2.234  11.082  3.2980  1.8680  0.1617
 4286TIP3    H234274   6.086   2.235  10.931  0.0230  1.0485  0.5059
 4287TIP3   OH234275   0.218   2.454   2.747  0.8813  0.2795  0.1489
 4287TIP3    H134276   0.130   2.423   2.727  0.6948  1.6830 -1.4350
 4287TIP3    H234277   0.204   2.537   2.793  1.3922  0.1059  0.6281
 4288TIP3   OH234278   0.590   5.796   6.114  0.7781  0.1836 -0.1328
 4288TIP3    H134279   0.669   5.848   6.098  0.7124  0.8448  1.4530
 4288TIP3    H234280   0.624   5.712   6.147  0.9110  1.3669  3.1375
 4289TIP3   OH234281   0.363   2.374   3.976 -0.9030  0.1638 -0.4369
 4289TIP3    H134282   0.419   2.375   4.054  0.3931  0.0133 -1.3456
 4289TIP3    H234283   0.405   2.311   3.917 -2.2145 -0.1917 -1.0294
 4290TIP3   OH234284   1.025   1.826  13.504  0.5000  0.0612 -0.3748
 4290TIP3    H134285   1.059   1.846  13.417 -0.6780  1.8390 -0.4733
 4290TIP3    H234286   1.083   1.872  13.564 -0.0889  0.8403 -0.3855
 4291TIP3   OH234287   6.126   1.621   4.083 -0.2220 -0.2312  0.1530
 4291TIP3    H134288   6.062   1.554   4.106 -0.6992  0.3691  0.6063
 4291TIP3    H234289   6.209   1.589   4.120 -0.1299 -1.2490 -0.8571
 4292TIP3   OH234290   4.627   0.964  11.897 -0.2629 -0.1083  0.9592
 4292TIP3    H134291   4.544   0.929  11.867  0.1967  0.1490 -0.7011
 4292TIP3    H234292   4.628   1.055  11.866  0.7855 -0.2167  0.6261
 4293TIP3   OH234293   4.529   3.124  12.049  0.9522  0.5009  0.1493
 4293TIP3    H134294   4.475   3.203  12.050  2.2062  1.4449  2.7382
 4293TIP3    H234295   4.478   3.060  12.098  1.4244  0.8799  1.1695
 4294TIP3   OH234296   3.428   3.673   4.331  0.2313 -0.2426 -0.2741
 4294TIP3    H134297   3.337   3.681   4.363  0.2433  1.5733 -0.5494
 4294TIP3    H234298   3.448   3.580   4.339 -0.8461 -0.3603  2.0520
 4295TIP3   OH234299   1.492   2.415   3.380  0.0211  0.0684  0.2368
 4295TIP3    H134300   1.480   2.415   3.285  0.3975 -1.2822  0.1663
 4295TIP3    H234301   1.524   2.327   3.400  1.5076  0.8292  1.4183
 4296TIP3   OH234302   5.016   5.843   5.648  0.4628  0.0522 -0.0754
 4296TIP3    H134303   4.956   5.821   5.576  0.5947  0.0000 -0.1697
 4296TIP3    H234304   5.028   5.760   5.695  1.0365 -0.1037 -0.4883
 4297TIP3   OH234305   1.265   3.007   1.092  0.3740 -0.1892  0.0673
 4297TIP3    H134306   1.204   3.057   1.038 -0.6863 -1.7317 -0.2356
 4297TIP3    H234307   1.266   2.919   1.052  2.7126 -0.2707  0.1324
 4298TIP3   OH234308   4.872   5.263   4.945 -0.4505  0.1573  0.1134
 4298TIP3    H134309   4.835   5.186   4.900 -1.9000  0.1864  1.1991
 4298TIP3    H234310   4.838   5.258   5.034 -1.8817  2.8799 -0.1695
 4299TIP3   OH234311   4.125   3.384   3.650  0.3652 -0.0422  0.0409
 4299TIP3    H134312   4.111   3.332   3.571 -0.8741  0.9863 -0.4515
 4299TIP3    H234313   4.152   3.470   3.618  0.4085  0.2196  0.7598
 4300TIP3   OH234314   5.673   2.198   0.309 -0.0355 -0.2245 -0.0002
 4300TIP3    H134315   5.679   2.243   0.393  0.4554 -2.4815  1.2569
 4300TIP3    H234316   5.735   2.125   0.315 -3.0506 -3.1263 -0.5194
 4301TIP3   OH234317   0.219   3.296  10.919 -0.5724  0.0752 -0.4822
 4301TIP3    H134318   0.158   3.348  10.867 -1.3120  0.4618  0.7345
 4301TIP3    H234319   0.259   3.359  10.979  0.4136 -0.3274 -0.6964
 4302TIP3   OH234320   2.634   5.145   4.068 -0.8021  0.6756 -0.2097
 4302TIP3    H134321   2.637   5.240   4.059 -1.8236  0.7784  0.3742
 4302TIP3    H234322   2.550   5.120   4.029 -0.7145  0.0599 -0.0078
 4303TIP3   OH234323   0.845   4.120   4.308 -0.5351 -0.0062  0.4368
 4303TIP3    H134324   0.936   4.148   4.317 -0.0091 -1.4058 -0.2650
 4303TIP3    H234325   0.831   4.111   4.214 -1.0690 -0.8072  0.5781
 4304TIP3   OH234326   2.655   1.900   5.669 -0.3596 -0.0191 -0.2246
 4304TIP3    H134327   2.592   1.971   5.683 -2.1152 -1.3573 -1.0312
 4304TIP3    H234328   2.626   1.858   5.589  1.2640 -1.0469 -0.3112
 4305TIP3   OH234329   4.761   4.072   1.784  0.1799  0.2318 -0.9342
 4305TIP3    H134330   4.699   4.130   1.828 -0.3042 -1.0296  0.0978
 4305TIP3    H234331   4.706   4.007   1.740  0.7434 -0.4220 -0.6910
 4306TIP3   OH234332   6.114   6.204   2.611 -0.3257  0.8793  0.3449
 4306TIP3    H134333   6.132   6.276   2.550  0.0334 -1.3265 -2.3265
 4306TIP3    H234334   6.200   6.179   2.645  0.1362 -0.7675 -1.8265
 4307TIP3   OH234335   0.678   0.674  14.063  0.5551  0.0035 -0.0412
 4307TIP3    H134336   0.719   0.710  13.984 -1.3434  1.3676 -0.4996
 4307TIP3    H234337   0.656   0.752  14.115 -2.4368 -0.4680 -0.3995
 4308TIP3   OH234338   0.401   0.888   3.750 -0.1202 -0.1166 -0.2610
 4308TIP3    H134339   0.415   0.936   3.668  0.3595  0.1245 -0.0428
 4308TIP3    H234340   0.319   0.842   3.737 -0.5129  0.6434 -0.5419
 4309TIP3   OH234341   0.767   0.416   2.443 -0.0156 -0.3461 -0.0592
 4309TIP3    H134342   0.751   0.510   2.434 -1.1609 -0.5758 -0.6380
 4309TIP3    H234343   0.699   0.385   2.503  2.2508 -0.3248  2.7518
 4310TIP3   OH234344   3.772   6.774   3.385 -0.5778  0.6117  0.2114
 4310TIP3    H134345   3.799   6.855   3.429 -1.3589  1.1150 -0.2097
 4310TIP3    H234346   3.853   6.741   3.344 -0.0618  0.6765  1.1583
 4311TIP3   OH234347   2.677   6.641   0.198 -0.9581 -0.2593 -0.0097
 4311TIP3    H134348   2.743   6.669   0.135 -1.8951 -1.9365 -1.8494
 4311TIP3    H234349   2.597   6.686   0.169 -1.7700 -2.2863 -1.1308
 4312TIP3   OH234350   5.709   4.072   6.729 -0.1776  0.5900  0.1980
 4312TIP3    H134351   5.668   4.091   6.644 -0.1284  2.1979  0.4889
 4312TIP3    H234352   5.711   3.977   6.735  1.2091  0.3803 -2.2800
 4313TIP3   OH234353   6.605   4.795   6.368  0.0730  0.5419 -0.2505
 4313TIP3    H134354   6.552   4.859   6.320 -1.3769 -0.2765  0.1892
 4313TIP3    H234355   6.552   4.715   6.369  1.2359 -0.2615  0.4020
 4314TIP3   OH234356   4.970   4.026   0.241 -0.6410  0.5606 -0.4877
 4314TIP3    H134357   5.017   4.027   0.158 -0.0096 -0.3936 -0.1601
 4314TIP3    H234358   5.025   4.077   0.301 -0.5726  0.3696 -0.3873
 4315TIP3   OH234359   2.200   1.919   1.901  0.1149 -0.5765  0.0707
 4315TIP3    H134360   2.115   1.895   1.940  0.1366 -0.5250  0.1507
 4315TIP3    H234361   2.265   1.880   1.958  0.1464 -0.5655  0.0427
 4316TIP3   OH234362   2.788   4.636   6.001  0.1860 -0.7362  0.3038
 4316TIP3    H134363   2.706   4.684   5.994  0.2120 -0.6565  0.5376
 4316TIP3    H234364   2.802   4.626   6.095  0.5591 -0.5571  0.2671
 4317TIP3   OH234365   2.948   1.442   5.716 -0.3610  0.0217 -0.4658
 4317TIP3    H134366   3.000   1.390   5.777  0.4916 -0.9080 -1.9267
 4317TIP3    H234367   2.861   1.444   5.755  0.2914  0.0318  1.0997
 4318TIP3   OH234368   3.865   2.639   5.917  0.7014 -0.0837 -0.2263
 4318TIP3    H134369   3.843   2.730   5.900  1.9026  0.0494 -1.1408
 4318TIP3    H234370   3.882   2.601   5.831  2.4250 -0.5798  0.2901
 4319TIP3   OH234371   4.560   6.400  11.968  0.1775  0.3674 -0.3227
 4319TIP3    H134372   4.612   6.466  12.014 -2.3968  2.8680 -0.7119
 4319TIP3    H234373   4.546   6.330  12.033  1.5833  0.9719  0.6738
 4320TIP3   OH234374   0.213   0.262  12.681  0.1068 -0.4947 -0.5525
 4320TIP3    H134375   0.151   0.334  12.684 -0.5727 -1.0531 -0.9069
 4320TIP3    H234376   0.212   0.225  12.770  0.0211 -0.4280 -0.5265
 4321TIP3   OH234377   0.288   1.415  11.348 -0.1277  0.1788  0.5404
 4321TIP3    H134378   0.318   1.476  11.415 -0.4629 -0.2551  1.1016
 4321TIP3    H234379   0.210   1.375  11.385 -1.5490  1.4311 -0.9769
 4322TIP3   OH234380   0.922   6.575  15.266 -0.3486  0.1784  0.1884
 4322TIP3    H134381   0.989   6.567  15.198 -1.5337 -0.1021 -0.9939
 4322TIP3    H234382   0.932   6.664  15.300  1.3512 -0.2309  0.8574
 4323TIP3   OH234383   0.461   2.184   3.802  0.4515 -0.3880  0.2070
 4323TIP3    H134384   0.550   2.150   3.814  0.0415 -1.2994  0.7802
 4323TIP3    H234385   0.444   2.172   3.709  0.8091 -0.5073  0.1528
 4324TIP3   OH234386   4.787   0.047  12.551 -0.3462 -0.1034  0.3990
 4324TIP3    H134387   4.859   0.105  12.528 -1.2984  0.4461 -1.4997
 4324TIP3    H234388   4.814   0.005  12.632  2.1853 -0.0778 -0.3376
 4325TIP3   OH234389   3.258   4.612   3.415  0.0450  0.0013  0.3467
 4325TIP3    H134390   3.318   4.541   3.440 -0.5457 -0.6546 -0.0577
 4325TIP3    H234391   3.300   4.653   3.339 -0.6280 -1.3081 -0.7762
 4326TIP3   OH234392   4.225   3.902  12.225 -0.3637  0.4480 -0.7283
 4326TIP3    H134393   4.200   3.816  12.258  1.5988 -1.4565 -3.7547
 4326TIP3    H234394   4.308   3.921  12.268 -0.5796  0.6245 -0.3889
 4327TIP3   OH234395   3.108   5.523   0.669 -0.4198 -0.1275  0.4602
 4327TIP3    H134396   3.154   5.571   0.738  2.1021 -0.1335 -1.0847
 4327TIP3    H234397   3.101   5.434   0.703  1.2582 -0.2564  0.5679
 4328TIP3   OH234398   2.153   6.625   2.481  0.4624  0.3068 -0.3602
 4328TIP3    H134399   2.114   6.539   2.466  0.0962  0.2818  0.6939
 4328TIP3    H234400   2.242   6.607   2.510  0.4003  0.2862 -0.1831
 4329TIP3   OH234401   3.943   2.552   2.164 -0.0207 -0.0248  0.2325
 4329TIP3    H134402   3.990   2.625   2.124  0.4988 -0.6988 -0.4412
 4329TIP3    H234403   3.875   2.530   2.101  0.6095 -0.8998 -0.1654
 4330TIP3   OH234404   5.497   4.293  12.337 -0.0505 -0.6245  0.1461
 4330TIP3    H134405   5.512   4.207  12.298  1.0941  0.1083 -1.1829
 4330TIP3    H234406   5.408   4.317  12.310  0.6697 -0.1757 -2.1284
 4331TIP3   OH234407   4.094   6.816   4.763 -0.2013 -0.2508  0.1737
 4331TIP3    H134408   4.138   6.883   4.816  0.3701 -1.5568  1.3921
 4331TIP3    H234409   4.081   6.859   4.678  2.5305  0.5470  0.0586
 4332TIP3   OH234410   6.484   5.224  13.103  0.5013 -0.4517  0.0359
 4332TIP3    H134411   6.448   5.288  13.042  2.0063 -1.2600 -1.7872
 4332TIP3    H234412   6.408   5.192  13.152 -0.8645 -0.2434 -1.8475
 4333TIP3   OH234413   5.221   4.353  10.741 -0.8006 -0.0744 -0.0058
 4333TIP3    H134414   5.264   4.296  10.804 -0.1011  2.5302  2.0568
 4333TIP3    H234415   5.151   4.300  10.703  0.4569 -2.5576  0.9625
 4334TIP3   OH234416   5.271   0.114   3.234  0.6800 -0.2502 -0.4065
 4334TIP3    H134417   5.211   0.048   3.198  0.8968 -0.8323  0.2783
 4334TIP3    H234418   5.214   0.186   3.260  0.7200  1.9643 -5.2996
 4335TIP3   OH234419   5.892   0.426  14.379  0.3166 -0.2961  0.0654
 4335TIP3    H134420   5.877   0.336  14.349 -0.1245 -0.3819  0.5323
 4335TIP3    H234421   5.813   0.474  14.351 -0.3236 -0.4835  1.4868
 4336TIP3   OH234422   3.301   5.610  16.513  0.1430 -0.2801  0.1417
 4336TIP3    H134423   3.243   5.677  16.478 -1.0366 -1.2250  0.2477
 4336TIP3    H234424   3.243   5.545  16.552  1.2596 -1.2771  0.2037
 4337TIP3   OH234425   6.500   3.366   2.010 -0.1517  0.4034  0.3339
 4337TIP3    H134426   6.510   3.357   2.105  1.0292  0.7277  0.2565
 4337TIP3    H234427   6.584   3.338   1.975 -0.2491  1.1994 -0.5605
 4338TIP3   OH234428   3.739   1.743   1.973 -0.0134  0.2696 -0.3327
 4338TIP3    H134429   3.712   1.830   2.004 -0.3593  0.4382 -1.0670
 4338TIP3    H234430   3.831   1.753   1.951  0.0330  0.3605 -0.0986
 4339TIP3   OH234431   6.349   5.845  11.996  0.4483 -0.0044 -0.3679
 4339TIP3    H134432   6.424   5.861  11.939 -0.4824  1.4924 -1.2142
 4339TIP3    H234433   6.299   5.926  11.996 -1.3919 -1.0572 -0.1253
 4340TIP3   OH234434   2.575   0.200   3.517 -0.1540  0.3745 -0.2708
 4340TIP3    H134435   2.653   0.147   3.503  1.2064  2.2696 -0.2373
 4340TIP3    H234436   2.599   0.288   3.487 -2.8027  0.6990 -1.7416
 4341TIP3   OH234437   0.543   6.359   4.835 -0.7398  0.1909 -0.0264
 4341TIP3    H134438   0.520   6.319   4.751 -0.8795  1.3844 -0.5820
 4341TIP3    H234439   0.601   6.432   4.812  0.3133 -0.2634  1.0305
 4342TIP3   OH234440   2.963   1.795  12.499  0.8761  0.0526  0.0363
 4342TIP3    H134441   2.991   1.725  12.440 -0.6309 -1.6104  1.1669
 4342TIP3    H234442   2.999   1.770  12.584  0.2999  0.6218  0.4594
 4343TIP3   OH234443   4.617   3.382  11.862  0.0640  0.2424  0.2041
 4343TIP3    H134444   4.549   3.314  11.854 -0.0184  0.1506  1.4976
 4343TIP3    H234445   4.568   3.461  11.882  0.2527  0.4678 -0.2056
 4344TIP3   OH234446   0.425   4.990   0.544 -0.0995 -0.2092  0.2222
 4344TIP3    H134447   0.520   4.992   0.554 -0.1691  0.2072  0.8682
 4344TIP3    H234448   0.410   4.996   0.450  0.5824 -2.9591 -0.1537
 4345TIP3   OH234449   4.032   5.333  15.728  0.4021 -0.9729  0.2595
 4345TIP3    H134450   4.078   5.314  15.647 -0.6632 -2.3731 -0.0532
 4345TIP3    H234451   4.029   5.249  15.775 -0.1726 -0.4863  1.1291
 4346TIP3   OH234452   0.298   1.507   1.098  0.3569 -0.2654 -0.4938
 4346TIP3    H134453   0.331   1.423   1.127 -0.6383 -0.6247 -0.3692
 4346TIP3    H234454   0.256   1.545   1.175  1.4355  0.6842 -0.3483
 4347TIP3   OH234455   2.428   3.261  11.654  0.2532 -0.6366 -0.1923
 4347TIP3    H134456   2.491   3.316  11.607 -0.4228 -0.1333 -0.5233
 4347TIP3    H234457   2.481   3.213  11.717  0.9287  0.0038 -0.2588
 4348TIP3   OH234458   3.807   2.287  14.791  0.0972 -0.5113  0.1950
 4348TIP3    H134459   3.762   2.272  14.874 -0.6607 -1.0523 -0.3053
 4348TIP3    H234460   3.761   2.232  14.728  0.5447  0.0375 -0.6302
 4349TIP3   OH234461   6.571   1.209  15.369 -0.0491  0.2632  0.3913
 4349TIP3    H134462   6.587   1.303  15.364 -0.2885  0.2483 -1.1205
 4349TIP3    H234463   6.489   1.201  15.419 -1.0449  0.9961 -1.0570
 4350TIP3   OH234464   0.070   3.550   5.176 -0.0969 -0.7128 -0.2615
 4350TIP3    H134465  -0.009   3.603   5.184  0.9248  0.8587 -0.0931
 4350TIP3    H234466   0.142   3.614   5.180  1.2164 -2.1827  0.6852
 4351TIP3   OH234467   5.419   5.439  12.028  0.2661  0.3816  0.2377
 4351TIP3    H134468   5.512   5.432  12.004 -0.0395  0.7400 -1.1680
 4351TIP3    H234469   5.419   5.440  12.124  1.8015  1.4862  0.2665
 4352TIP3   OH234470   4.879   2.810   5.196 -0.4422  0.1230 -0.4936
 4352TIP3    H134471   4.815   2.749   5.161  0.4634 -0.8038 -0.5908
 4352TIP3    H234472   4.829   2.890   5.214 -1.2252  0.1266 -2.4483
 4353TIP3   OH234473   0.025   4.242   1.919 -0.3867 -0.0945 -0.1073
 4353TIP3    H134474  -0.068   4.230   1.904 -0.2044  0.6097 -2.0827
 4353TIP3    H234475   0.055   4.295   1.845  1.5637 -0.2121  0.5343
 4354TIP3   OH234476   3.261   6.304  12.829  0.3644 -0.2873 -0.1422
 4354TIP3    H134477   3.334   6.249  12.857  0.1267 -1.1045 -1.0703
 4354TIP3    H234478   3.191   6.242  12.806  0.0004  0.3966 -0.9633
 4355TIP3   OH234479   5.615   0.210   1.958 -0.6916  0.5217  0.3098
 4355TIP3    H134480   5.698   0.247   1.926  0.0794 -2.1586 -1.0335
 4355TIP3    H234481   5.550   0.240   1.894 -0.2515  0.3378 -0.2349
 4356TIP3   OH234482   1.275   4.718   3.585 -0.3057  0.5030 -0.1651
 4356TIP3    H134483   1.190   4.745   3.621  0.0817 -0.0922  1.2917
 4356TIP3    H234484   1.339   4.751   3.649  0.6575  1.6714 -1.6619
 4357TIP3   OH234485   4.189   2.159   3.195 -0.0253  0.6202  0.3030
 4357TIP3    H134486   4.216   2.095   3.130  0.3003 -3.0664  3.7019
 4357TIP3    H234487   4.270   2.201   3.223  0.0321  1.0340 -0.4596
 4358TIP3   OH234488   4.274   3.336   5.461 -0.1505 -0.0145  0.5028
 4358TIP3    H134489   4.194   3.318   5.511 -0.5276  0.9388  0.2502
 4358TIP3    H234490   4.313   3.249   5.446 -0.5639 -0.3951  1.5628
 4359TIP3   OH234491   5.921   0.101  13.158 -0.1649  0.3096 -0.8051
 4359TIP3    H134492   5.995   0.160  13.173 -1.3402  1.9017 -1.0879
 4359TIP3    H234493   5.946   0.020  13.202  1.4083  1.0701 -0.2319
 4360TIP3   OH234494   1.910   3.349   3.934 -0.3965 -0.4957  0.2529
 4360TIP3    H134495   1.833   3.314   3.978 -1.8278  2.3891  0.2796
 4360TIP3    H234496   1.875   3.417   3.876  2.1550  1.3387  0.7184
 4361TIP3   OH234497   5.052   3.302  10.524 -0.1668  0.0786 -0.2480
 4361TIP3    H134498   5.012   3.386  10.502  2.3617  1.8985  1.4013
 4361TIP3    H234499   5.110   3.282  10.451  0.9950  1.0782  0.3588
 4362TIP3   OH234500   5.696   3.448  11.189  0.1211 -0.5565  0.0597
 4362TIP3    H134501   5.695   3.421  11.281 -1.1879  0.6446  0.4359
 4362TIP3    H234502   5.789   3.451  11.166  0.4770 -0.7126  1.3902
 4363TIP3   OH234503   4.033   3.875  10.377  0.6791 -0.4678 -0.0982
 4363TIP3    H134504   4.018   3.967  10.401  0.2241 -0.9702  1.6746
 4363TIP3    H234505   4.112   3.877  10.322  2.1352  0.7367  1.9056
 4364TIP3   OH234506   1.396   6.083   3.454  0.3513  0.4996 -0.7243
 4364TIP3    H134507   1.448   6.116   3.528  1.9743 -1.2066 -1.0216
 4364TIP3    H234508   1.319   6.044   3.495  0.3218  1.1847 -0.0965
 4365TIP3   OH234509   4.915   3.408  14.374  0.1654 -0.1129 -0.0088
 4365TIP3    H134510   4.893   3.494  14.338  0.2055  1.1392  2.6989
 4365TIP3    H234511   5.010   3.401  14.364  0.3140  0.6725  0.6935
 4366TIP3   OH234512   5.455   3.622  11.890 -0.0670  0.1501  0.6004
 4366TIP3    H134513   5.490   3.690  11.947  1.9216  2.1647 -2.7148
 4366TIP3    H234514   5.532   3.582  11.850 -1.3020  0.4506 -2.3484
 4367TIP3   OH234515   3.058   6.252   5.414  0.3768 -0.5912  0.3109
 4367TIP3    H134516   3.046   6.232   5.322  0.8198 -0.2936  0.1842
 4367TIP3    H234517   2.980   6.303   5.438 -0.4904 -1.9608  0.5031
 4368TIP3   OH234518   5.175   5.308   5.485 -0.1432 -0.0811 -0.1591
 4368TIP3    H134519   5.221   5.227   5.463 -1.5045 -0.8349 -0.3416
 4368TIP3    H234520   5.181   5.313   5.581  0.9545  0.2457 -0.2294
 4369TIP3   OH234521   5.059   1.706  16.174 -0.1265 -0.3064  0.2452
 4369TIP3    H134522   4.988   1.763  16.143  0.6358  0.8482  0.5753
 4369TIP3    H234523   5.099   1.673  16.094  0.6516  1.1852 -0.0165
 4370TIP3   OH234524   0.363   1.007   6.045  0.4210  0.1773 -0.2222
 4370TIP3    H134525   0.408   1.090   6.058 -2.0656  1.6162 -0.2807
 4370TIP3    H234526   0.430   0.941   6.063  3.3319  2.0647 -2.9017
 4371TIP3   OH234527   3.823   4.173  15.438  0.1986 -0.3986  0.2357
 4371TIP3    H134528   3.913   4.147  15.419  0.7118  1.5547 -0.1918
 4371TIP3    H234529   3.784   4.095  15.478  1.5967 -1.8072 -0.9873
 4372TIP3   OH234530   6.372   4.453   1.393 -0.3964  0.0626  0.2673
 4372TIP3    H134531   6.457   4.453   1.438  0.8585  0.3967 -1.9659
 4372TIP3    H234532   6.330   4.372   1.422  1.7143 -1.3496 -0.3336
 4373TIP3   OH234533   4.014   2.755   3.467  0.2620  0.0969  0.5923
 4373TIP3    H134534   3.978   2.667   3.456  0.1224  0.3729 -1.5619
 4373TIP3    H234535   3.983   2.783   3.553  0.6561 -2.0865  1.5066
 4374TIP3   OH234536   0.599   6.672  15.012  0.5475  0.3405  0.1800
 4374TIP3    H134537   0.611   6.581  15.037  1.1804  0.8638  1.9045
 4374TIP3    H234538   0.668   6.690  14.949  0.4590 -0.3471 -0.1123
 4375TIP3   OH234539   6.498   2.660  11.812 -0.3210 -0.5350  0.2357
 4375TIP3    H134540   6.437   2.722  11.852  0.9949  0.2501  1.1397
 4375TIP3    H234541   6.532   2.609  11.886  1.3120  0.1704  0.0341
 4376TIP3   OH234542   3.179   4.771  15.715 -0.1230 -0.9841 -0.2480
 4376TIP3    H134543   3.113   4.718  15.671 -0.7265  1.4341 -2.4918
 4376TIP3    H234544   3.246   4.786  15.648  0.6849  0.0123  0.7438
 4377TIP3   OH234545   1.479   6.534  14.925 -0.2614 -0.2181 -0.1396
 4377TIP3    H134546   1.524   6.617  14.907 -0.5049 -0.1665 -0.5392
 4377TIP3    H234547   1.532   6.491  14.992 -0.8250  0.8308  1.0092
 4378TIP3   OH234548   0.440   1.548  11.594  0.2494 -0.2073  0.5461
 4378TIP3    H134549   0.375   1.617  11.600 -0.1172 -0.5448  0.5446
 4378TIP3    H234550   0.515   1.581  11.643 -0.2116 -0.1371  1.2245
 4379TIP3   OH234551   3.606   0.482   3.382 -0.3499 -0.3185  0.2468
 4379TIP3    H134552   3.662   0.427   3.327  1.6632  0.2584  1.6300
 4379TIP3    H234553   3.624   0.572   3.354  0.2794 -0.0553  1.4482
 4380TIP3   OH234554   5.682   2.767   1.487  0.2921 -0.1235 -0.2852
 4380TIP3    H134555   5.723   2.693   1.444  0.5732  0.8510 -1.7593
 4380TIP3    H234556   5.663   2.829   1.416 -0.2836  1.0511  0.8476
 4381TIP3   OH234557   5.579   1.433  16.931  0.4651 -0.2415  0.5056
 4381TIP3    H134558   5.659   1.405  16.976  0.3677 -0.6323  0.4413
 4381TIP3    H234559   5.588   1.528  16.922  0.5345 -0.1733  1.2524
 4382TIP3   OH234560   3.593   5.207   1.995  0.6483 -0.9584 -0.2976
 4382TIP3    H134561   3.615   5.300   2.003 -0.5706 -0.5772 -1.0349
 4382TIP3    H234562   3.637   5.165   2.069  0.8002  0.2821  0.3401
 4383TIP3   OH234563   6.780   3.933  13.539 -0.6086 -0.0460 -0.6566
 4383TIP3    H134564   6.756   4.024  13.523  0.2610  0.1611 -0.8651
 4383TIP3    H234565   6.802   3.898  13.452 -0.1488 -0.2042 -0.4831
 4384TIP3   OH234566   6.616   3.118  16.870 -0.1402  0.1947 -0.1808
 4384TIP3    H134567   6.647   3.038  16.829  2.2498  0.0969  1.5514
 4384TIP3    H234568   6.684   3.139  16.935 -3.0784  0.8824  2.9367
 4385TIP3   OH234569   0.436   1.335   3.127  0.3402  0.4975 -0.3266
 4385TIP3    H134570   0.514   1.390   3.124  0.5215  0.2114 -1.0604
 4385TIP3    H234571   0.466   1.249   3.097 -0.3952  0.5626 -1.2852
 4386TIP3   OH234572   3.235   3.734  14.180 -0.6017  0.0199  0.2143
 4386TIP3    H134573   3.191   3.746  14.264  0.2235  0.6401  0.5701
 4386TIP3    H234574   3.328   3.725  14.202 -0.2146  1.3841 -0.7000
 4387TIP3   OH234575   5.472   4.868  11.207  0.0805  0.0302 -0.3372
 4387TIP3    H134576   5.471   4.925  11.284  0.6821 -0.8011  0.3102
 4387TIP3    H234577   5.496   4.926  11.135  0.6064  0.6136  0.2923
 4388TIP3   OH234578   6.171   1.626  16.760  0.2416 -0.8364 -0.2225
 4388TIP3    H134579   6.241   1.561  16.764  0.2759 -0.9229 -1.5450
 4388TIP3    H234580   6.192   1.689  16.828 -0.3693 -2.7341  1.8320
 4389TIP3   OH234581   4.287   2.982   0.527 -0.0707 -0.6102  0.0754
 4389TIP3    H134582   4.266   2.889   0.537 -0.7409 -0.2235  3.1255
 4389TIP3    H234583   4.372   2.992   0.569  0.0615  0.1603 -0.3460
 4390TIP3   OH234584   0.328   4.796   4.066  0.1633 -0.1426 -0.0243
 4390TIP3    H134585   0.377   4.713   4.073 -1.8912 -1.3256  1.3273
 4390TIP3    H234586   0.246   4.771   4.023  0.5931  1.7657 -2.1078
 4391TIP3   OH234587   3.455   5.329   4.218  0.3393 -0.3227 -0.0949
 4391TIP3    H134588   3.506   5.401   4.181  0.0178 -0.6018 -1.1148
 4391TIP3    H234589   3.441   5.270   4.145 -0.2760 -0.9236  0.4975
 4392TIP3   OH234590   2.048   0.572  14.934 -0.3640  0.4681 -0.3911
 4392TIP3    H134591   2.063   0.483  14.902  0.1369  0.0918  0.8336
 4392TIP3    H234592   2.092   0.629  14.870  0.7765 -0.2676 -0.2773
 4393TIP3   OH234593   5.091   4.142  11.454  0.0087  0.1667  0.0263
 4393TIP3    H134594   5.163   4.194  11.417  0.1951  0.3308  0.6035
 4393TIP3    H234595   5.084   4.066  11.396 -0.0893  0.6950 -0.6757
 4394TIP3   OH234596   5.051   3.598   1.058  0.1305 -0.0757  0.2616
 4394TIP3    H134597   4.975   3.612   1.114 -0.0887 -0.3801  0.0450
 4394TIP3    H234598   5.125   3.633   1.108 -0.2126  0.6375  0.2729
 4395TIP3   OH234599   5.563   5.127   4.466  0.6201  0.1549  0.4839
 4395TIP3    H134600   5.640   5.100   4.417  1.8597  3.5353  0.3210
 4395TIP3    H234601   5.575   5.087   4.553  0.7514 -2.0867 -0.4902
 4396TIP3   OH234602   6.215   5.547   3.712  0.2277  0.8861  0.4354
 4396TIP3    H134603   6.148   5.612   3.731 -2.3766 -1.8907  1.7146
 4396TIP3    H234604   6.261   5.535   3.795 -0.4054  0.0456  0.6887
 4397TIP3   OH234605   2.330   1.723  13.002 -0.2182  0.7678 -0.4205
 4397TIP3    H134606   2.414   1.703  13.043 -0.4860  1.5129  0.5140
 4397TIP3    H234607   2.351   1.737  12.910  0.4295 -0.6943 -0.5262
 4398TIP3   OH234608   4.192   6.311  13.111 -0.1123 -0.4146 -0.0828
 4398TIP3    H134609   4.288   6.321  13.111 -0.0749 -0.4097 -1.8833
 4398TIP3    H234610   4.163   6.366  13.038 -1.2647 -2.1187 -0.9672
 4399TIP3   OH234611   2.114   3.631  11.904 -0.2919  0.3174  0.0318
 4399TIP3    H134612   2.058   3.644  11.981  0.0670  0.3899  0.2833
 4399TIP3    H234613   2.163   3.551  11.923 -0.8502 -0.1590 -0.5163
 4400TIP3   OH234614   2.760   4.150   5.123  0.2170 -0.2550 -0.1251
 4400TIP3    H134615   2.849   4.172   5.151  0.6355 -1.1600 -0.7079
 4400TIP3    H234616   2.743   4.207   5.049  0.4877 -0.4021 -0.3010
 4401TIP3   OH234617   1.677   1.683  16.923 -0.2619  0.0280  0.4237
 4401TIP3    H134618   1.681   1.618  16.853 -1.5166 -0.0066  0.3558
 4401TIP3    H234619   1.707   1.636  17.001 -1.8936 -0.9141  0.5398
 4402TIP3   OH234620   4.468   1.410   0.046  0.1803  0.1461 -0.3215
 4402TIP3    H134621   4.528   1.389   0.118 -0.3903 -1.4396 -0.2668
 4402TIP3    H234622   4.479   1.338  -0.016 -0.7219  0.5025 -0.9099
 4403TIP3   OH234623   4.045   0.926   2.290 -0.3789  0.0131  0.1072
 4403TIP3    H134624   4.106   0.868   2.334  1.8941  2.6540  0.7466
 4403TIP3    H234625   4.057   0.909   2.197  0.4096 -0.3806  0.2739
 4404TIP3   OH234626   1.486   3.263  15.737 -0.4264 -0.0679  0.3600
 4404TIP3    H134627   1.505   3.356  15.744 -0.9633 -0.0222  1.3965
 4404TIP3    H234628   1.390   3.258  15.738 -0.5010 -0.4721 -2.1148
 4405TIP3   OH234629   2.422   2.029  16.530  0.3511  0.5963  0.4675
 4405TIP3    H134630   2.362   1.956  16.546  0.8481 -0.1232 -0.7614
 4405TIP3    H234631   2.507   1.987  16.512  0.4648  1.3983 -1.0495
 4406TIP3   OH234632   3.224   6.729  15.208  0.0428 -0.3531 -0.3183
 4406TIP3    H134633   3.220   6.657  15.145  0.3799  1.4224 -2.5209
 4406TIP3    H234634   3.298   6.781  15.179 -0.5585  1.2065  0.8211
 4407TIP3   OH234635   0.941   0.397   4.944  0.5286 -0.1091  0.8319
 4407TIP3    H134636   0.922   0.457   5.016  1.5767 -0.0303  1.0553
 4407TIP3    H234637   0.879   0.421   4.875  1.0023  1.3139  0.8690
 4408TIP3   OH234638   3.201   0.407   3.547 -0.1403 -0.7408 -0.4523
 4408TIP3    H134639   3.263   0.470   3.585  0.4958 -0.6734 -1.5545
 4408TIP3    H234640   3.232   0.395   3.458 -0.3800 -2.4742 -0.3259
 4409TIP3   OH234641   1.988   5.456   0.425  0.0286 -0.1876 -0.1663
 4409TIP3    H134642   1.996   5.366   0.393  1.4526 -0.7390  1.6190
 4409TIP3    H234643   1.895   5.477   0.412 -0.3128 -1.8529 -0.7377
 4410TIP3   OH234644   6.439   4.507  11.517 -0.1779  0.1009  0.2328
 4410TIP3    H134645   6.412   4.596  11.540 -0.3111  0.2065 -0.3400
 4410TIP3    H234646   6.407   4.453  11.590 -0.7041  0.4200  0.2394
 4411TIP3   OH234647   4.598   3.784  11.814 -0.0232  0.1919  0.4425
 4411TIP3    H134648   4.692   3.769  11.822  0.4131  2.2116 -0.2436
 4411TIP3    H234649   4.560   3.744  11.892  1.3273 -1.1156  0.4760
 4412TIP3   OH234650   3.521   3.748   5.444 -0.1984  0.1818 -0.2974
 4412TIP3    H134651   3.430   3.754   5.474 -0.1091  2.8874 -0.3002
 4412TIP3    H234652   3.573   3.777   5.519  0.5888 -0.1899 -0.6838
 4413TIP3   OH234653   4.492   0.692   2.105 -0.7912  0.2898 -0.2843
 4413TIP3    H134654   4.398   0.709   2.100 -0.8592  0.0925  0.2945
 4413TIP3    H234655   4.530   0.749   2.037 -1.4455 -0.5945 -1.4243
 4414TIP3   OH234656   2.374   3.982   0.039  0.5508 -0.0905  0.1147
 4414TIP3    H134657   2.449   3.963   0.095  0.3510  1.8904  1.1346
 4414TIP3    H234658   2.329   3.898   0.030  1.5899 -0.8238  1.4502
 4415TIP3   OH234659   4.055   2.007  17.001  0.8883 -0.6621 -0.3730
 4415TIP3    H134660   4.128   1.985  17.058  0.9567 -1.2693 -0.6920
 4415TIP3    H234661   4.093   2.064  16.934  0.7318  0.3737  0.3861
 4416TIP3   OH234662   3.395   2.676   3.076 -0.9434 -0.1087 -0.7378
 4416TIP3    H134663   3.385   2.664   3.171 -0.8836  1.6064 -0.4813
 4416TIP3    H234664   3.481   2.638   3.057 -1.0585 -0.6935 -0.1601
 4417TIP3   OH234665   6.024   5.578   5.690 -0.5486  0.2528 -0.0082
 4417TIP3    H134666   6.011   5.485   5.710  1.0411  0.2428  1.1893
 4417TIP3    H234667   6.068   5.613   5.767 -0.0989  1.7516 -0.9118
 4418TIP3   OH234668   0.150   4.117  14.281  0.6627  0.5351 -0.2495
 4418TIP3    H134669   0.133   4.174  14.356  2.2515  1.5427 -0.6009
 4418TIP3    H234670   0.080   4.052  14.283  0.9450  0.2101  2.4063
 4419TIP3   OH234671   4.822   3.263   4.671  0.3271 -0.0681 -0.3861
 4419TIP3    H134672   4.878   3.220   4.606  1.9903  1.7724 -0.2729
 4419TIP3    H234673   4.755   3.198   4.692  1.4125 -1.7450 -1.8294
 4420TIP3   OH234674   2.456   1.031  11.783 -0.5628 -0.1967 -0.2211
 4420TIP3    H134675   2.367   1.014  11.814 -0.4988  0.4279  0.3240
 4420TIP3    H234676   2.449   1.114  11.735 -0.3961 -0.4795 -0.7461
 4421TIP3   OH234677   4.480   3.927   0.198 -0.6760 -0.1193 -0.3633
 4421TIP3    H134678   4.528   3.860   0.149  0.7169  1.8907 -1.9747
 4421TIP3    H234679   4.543   3.999   0.206 -2.2486  1.1801  0.8497
 4422TIP3   OH234680   5.777   1.837  15.363  0.1524  0.0892  0.4850
 4422TIP3    H134681   5.757   1.902  15.295  0.9909  0.3443  0.4603
 4422TIP3    H234682   5.727   1.760  15.339 -2.7792  1.4422  1.8031
 4423TIP3   OH234683   5.135   5.731  12.656 -0.1569  0.5297  0.3827
 4423TIP3    H134684   5.144   5.693  12.569  3.0943 -0.7366  1.1170
 4423TIP3    H234685   5.172   5.664  12.715 -0.0950  2.2939  2.4669
 4424TIP3   OH234686   2.691   0.332   0.327  0.2729 -0.1659 -0.0170
 4424TIP3    H134687   2.640   0.254   0.306  0.0997 -0.2095  0.5255
 4424TIP3    H234688   2.759   0.301   0.386  0.2753  0.0680  0.1067
 4425TIP3   OH234689   2.040   1.258   0.122  0.1218 -0.1256  0.0567
 4425TIP3    H134690   1.963   1.275   0.069 -0.1821 -0.7280  0.2860
 4425TIP3    H234691   2.096   1.203   0.067  0.3912  0.3073 -0.1081
 4426TIP3   OH234692   1.063   6.594   3.802  0.3039 -0.4032  0.6613
 4426TIP3    H134693   0.983   6.564   3.758  1.4729 -0.8304 -1.3084
 4426TIP3    H234694   1.096   6.517   3.848 -0.3800 -0.2344  1.4542
 4427TIP3   OH234695   4.619   0.783  14.829 -0.4218 -0.9396  0.1917
 4427TIP3    H134696   4.525   0.784  14.811  0.0274 -0.9898 -2.5330
 4427TIP3    H234697   4.648   0.695  14.806  0.4767 -0.5749 -0.1371
 4428TIP3   OH234698   2.840   4.733  11.311  0.2348  0.3500 -0.3435
 4428TIP3    H134699   2.794   4.683  11.243  0.1470  1.2560 -0.9532
 4428TIP3    H234700   2.917   4.768  11.267  1.4164 -0.9253  0.6044
 4429TIP3   OH234701   4.460   2.409  12.194 -0.1475 -0.1858 -0.5913
 4429TIP3    H134702   4.433   2.449  12.111 -1.8383  0.1364  0.0854
 4429TIP3    H234703   4.492   2.322  12.169 -0.8730 -0.1879 -1.5624
 4430TIP3   OH234704   4.476   1.246   0.701  0.0439  0.4978 -0.4047
 4430TIP3    H134705   4.443   1.311   0.762 -1.2785 -1.0264  0.5982
 4430TIP3    H234706   4.429   1.262   0.619  1.1680  1.9892 -0.7906
 4431TIP3   OH234707   2.182   2.569   3.397 -0.0520 -0.5628 -0.1053
 4431TIP3    H134708   2.225   2.647   3.362  0.1537 -0.8748 -0.5562
 4431TIP3    H234709   2.199   2.573   3.491  0.5078 -0.4036 -0.2099
 4432TIP3   OH234710   3.413   1.053  15.990  0.2367 -0.0380  1.5252
 4432TIP3    H134711   3.412   1.003  15.909  0.7318  0.7538  1.0172
 4432TIP3    H234712   3.352   1.125  15.976 -1.2440 -1.0187  2.6205
 4433TIP3   OH234713   5.481   1.775  12.369  0.4075 -0.1348 -0.3951
 4433TIP3    H134714   5.526   1.705  12.415 -2.0548 -0.4646  1.7159
 4433TIP3    H234715   5.532   1.854  12.390  0.5442 -0.6054  1.1356
 4434TIP3   OH234716   0.134   3.983   1.063 -0.0099  0.1718  0.2016
 4434TIP3    H134717   0.158   3.916   1.127  0.3873  0.6907  0.6077
 4434TIP3    H234718   0.096   4.053   1.116  0.0306  0.4726 -0.1682
 4435TIP3   OH234719   0.213   4.542  13.826 -0.5860 -0.0161 -0.2481
 4435TIP3    H134720   0.306   4.519  13.816 -0.3254  1.1665 -0.7351
 4435TIP3    H234721   0.202   4.556  13.920  0.1242  1.3095 -0.3314
 4436TIP3   OH234722   5.912   2.444  14.957  0.3387  0.0962  0.2619
 4436TIP3    H134723   5.938   2.375  15.018 -1.4154 -1.1312 -0.2890
 4436TIP3    H234724   5.880   2.515  15.013  1.2743  0.1022  0.8087
 4437TIP3   OH234725   3.761   2.829  11.579 -0.3702 -0.8414 -0.1436
 4437TIP3    H134726   3.832   2.892  11.584 -2.3313  1.4988  0.4385
 4437TIP3    H234727   3.749   2.813  11.485 -0.0087 -0.1162 -0.3140
 4438TIP3   OH234728   3.722   1.057  14.487 -0.2925 -0.0658  0.0043
 4438TIP3    H134729   3.702   1.142  14.525  0.8032 -0.4728  1.5742
 4438TIP3    H234730   3.806   1.069  14.443  1.4531 -1.0000  2.8425
 4439TIP3   OH234731   1.496   0.377   2.040  0.2505  0.4757 -0.0657
 4439TIP3    H134732   1.434   0.313   2.075 -1.5171  2.1909  0.1192
 4439TIP3    H234733   1.582   0.344   2.065 -0.5027 -2.3581 -0.9186
 4440TIP3   OH234734   1.136   3.305  11.296  0.1074  0.2271  0.4672
 4440TIP3    H134735   1.224   3.336  11.315  0.4491  0.1078 -0.8228
 4440TIP3    H234736   1.148   3.235  11.232 -1.0605  2.2175 -2.0869
 4441TIP3   OH234737   3.801   6.608   3.675  0.2873  0.1945 -0.5827
 4441TIP3    H134738   3.868   6.560   3.625 -0.4413 -0.5269 -0.9029
 4441TIP3    H234739   3.742   6.642   3.608  0.1254  0.5050 -0.2832
 4442TIP3   OH234740   2.818   5.362   0.134 -0.4061 -0.7749 -0.2219
 4442TIP3    H134741   2.900   5.403   0.163 -0.5969 -0.5244 -0.0419
 4442TIP3    H234742   2.751   5.428   0.150 -0.4964 -0.5713 -1.3490
 4443TIP3   OH234743   2.454   1.115  14.036 -0.4589 -0.0168  0.2144
 4443TIP3    H134744   2.386   1.073  14.088 -0.1017 -0.2721  0.4869
 4443TIP3    H234745   2.508   1.042  14.005  0.5511  0.2626  1.2245
 4444TIP3   OH234746   4.487   2.950   3.561 -0.2784 -0.8091  0.0128
 4444TIP3    H134747   4.576   2.920   3.578 -0.6574 -1.4109  1.0693
 4444TIP3    H234748   4.440   2.870   3.538 -0.5549 -0.4980 -0.5132
 4445TIP3   OH234749   0.884   0.698  10.466  0.2766 -0.2495 -0.6594
 4445TIP3    H134750   0.951   0.651  10.417  4.6952  4.2757  0.3017
 4445TIP3    H234751   0.873   0.781  10.420 -0.5365  1.3700  2.1906
 4446TIP3   OH234752   0.858   0.242   3.723 -0.2674 -0.0419  0.4190
 4446TIP3    H134753   0.791   0.311   3.719 -0.6445 -0.4447 -1.9142
 4446TIP3    H234754   0.818   0.171   3.772 -0.9511  0.3423  0.4201
 4447TIP3   OH234755   0.877   0.160  16.154 -0.1814  0.1239  0.4301
 4447TIP3    H134756   0.807   0.129  16.096 -1.5443  1.5924  1.2182
 4447TIP3    H234757   0.957   0.151  16.102 -0.9190 -1.5695 -0.5121
 4448TIP3   OH234758   3.596   0.268  16.089 -0.1205 -0.2806  0.2836
 4448TIP3    H134759   3.503   0.254  16.072 -0.3954  3.2542 -2.1349
 4448TIP3    H234760   3.601   0.357  16.124  2.4533  0.3467 -1.4239
 4449TIP3   OH234761   6.626   6.580  15.961  0.2531  0.2401  0.0598
 4449TIP3    H134762   6.661   6.538  16.040 -1.6135  2.1353  2.0392
 4449TIP3    H234763   6.690   6.647  15.939  0.8595 -0.3992 -0.1460
 4450TIP3   OH234764   5.276   4.126  13.992  0.2928  0.2511 -0.0345
 4450TIP3    H134765   5.313   4.192  13.932 -0.8421 -0.1045 -1.1556
 4450TIP3    H234766   5.243   4.177  14.066 -0.9509  1.0322 -1.0782
 4451TIP3   OH234767   4.337   0.579  15.678 -0.5441  0.8660 -0.4244
 4451TIP3    H134768   4.431   0.598  15.667  0.2119 -1.8347  0.5405
 4451TIP3    H234769   4.303   0.572  15.589  0.3333  1.1365 -0.7954
 4452TIP3   OH234770   1.349   0.863   4.290  0.2604 -0.0881  1.0444
 4452TIP3    H134771   1.360   0.781   4.242 -0.4368 -0.0667  0.8345
 4452TIP3    H234772   1.270   0.849   4.342 -0.6965  0.9510 -0.0730
 4453TIP3   OH234773   3.457   5.774  16.795  0.2136 -0.1420  0.1790
 4453TIP3    H134774   3.429   5.691  16.836 -1.3567  1.0882  1.7440
 4453TIP3    H234775   3.376   5.816  16.768  1.0898  0.1807 -2.1859
 4454TIP3   OH234776   2.622   1.399   0.762  0.2547  0.2460  0.2569
 4454TIP3    H134777   2.577   1.446   0.832  0.1215 -0.7720  0.8854
 4454TIP3    H234778   2.556   1.337   0.729  0.1820  1.0035 -1.0717
 4455TIP3   OH234779   3.409   0.946   0.032  0.6307  0.0050 -0.3285
 4455TIP3    H134780   3.343   0.898  -0.018  1.4851  0.3805 -1.8907
 4455TIP3    H234781   3.416   1.030  -0.012  1.2858  0.4307  0.5649
 4456TIP3   OH234782   0.896   6.429  15.500 -0.2417 -0.9335  0.0969
 4456TIP3    H134783   0.920   6.468  15.415 -0.0283  0.5505  0.7908
 4456TIP3    H234784   0.801   6.421  15.497 -0.1938 -1.3211 -0.4581
 4457TIP3   OH234785   4.259   0.596  11.967 -0.4063  0.3074  0.1219
 4457TIP3    H134786   4.329   0.570  11.907 -0.3720  0.5836  0.0422
 4457TIP3    H234787   4.304   0.613  12.050 -0.3915  0.3896  0.0971
 4458TIP3   OH234788   5.411   0.073   6.387 -0.1514 -0.3862  0.2433
 4458TIP3    H134789   5.383  -0.018   6.381 -0.6584 -0.1986 -0.3177
 4458TIP3    H234790   5.486   0.079   6.329  0.0699 -0.5176  0.5158
 4459TIP3   OH234791   6.122   1.619  16.284  0.4526  0.5258 -0.8342
 4459TIP3    H134792   6.188   1.688  16.282  0.1404  0.8307 -0.7114
 4459TIP3    H234793   6.163   1.549  16.336  0.0120  1.4190  0.7660
 4460TIP3   OH234794   4.633   2.684  16.564 -0.1282  0.9308  0.0934
 4460TIP3    H134795   4.551   2.733  16.559  0.5394  1.9266 -2.1625
 4460TIP3    H234796   4.619   2.620  16.634 -1.5870  3.3076  2.0988
 4461TIP3   OH234797   6.187   5.892  14.514 -0.0030 -0.2493  0.7248
 4461TIP3    H134798   6.148   5.909  14.600 -0.6494  2.9457 -0.0625
 4461TIP3    H234799   6.258   5.955  14.508 -0.2118 -0.1588 -1.2083
 4462TIP3   OH234800   5.882   5.097  16.571  0.2031 -0.1641 -0.0925
 4462TIP3    H134801   5.850   5.181  16.540  0.4007 -0.4943 -1.2304
 4462TIP3    H234802   5.951   5.073  16.509  1.2634 -0.4140  1.1520
 4463TIP3   OH234803   0.244   6.181  13.507 -0.3859  0.1018  0.5873
 4463TIP3    H134804   0.308   6.172  13.437 -0.3730  1.4472  0.4095
 4463TIP3    H234805   0.166   6.217  13.464 -0.6401  0.2132  1.1325
 4464TIP3   OH234806   3.552   1.834  15.153 -0.4103  0.1372  0.0964
 4464TIP3    H134807   3.547   1.739  15.164  1.6161 -0.0911 -0.5884
 4464TIP3    H234808   3.623   1.847  15.090 -0.8208  2.1017 -0.0006
 4465TIP3   OH234809   5.748   6.280   1.183  0.1068  0.4300 -0.1579
 4465TIP3    H134810   5.832   6.263   1.227  0.6509  0.3540 -1.1802
 4465TIP3    H234811   5.710   6.353   1.231  0.9229  0.6849  0.1226
 4466TIP3   OH234812   4.798   3.384  13.204  0.3289  0.2181  0.0363
 4466TIP3    H134813   4.869   3.355  13.262  1.8033  0.1688 -1.7147
 4466TIP3    H234814   4.813   3.478  13.193 -2.1837  1.1124  2.6164
 4467TIP3   OH234815   1.676   2.660  16.667  0.2043 -0.3949 -0.1073
 4467TIP3    H134816   1.649   2.602  16.596  1.0944 -0.0094 -0.7804
 4467TIP3    H234817   1.720   2.602  16.729  0.2074 -0.6004 -0.2971
 4468TIP3   OH234818   0.320   5.133  10.876 -0.4525 -0.7422  0.7138
 4468TIP3    H134819   0.313   5.085  10.794 -1.1098 -2.1582  1.5562
 4468TIP3    H234820   0.358   5.070  10.937 -0.6699  0.0403  1.6802
 4469TIP3   OH234821   0.849   4.347  14.690 -0.4873 -0.0910 -0.2957
 4469TIP3    H134822   0.921   4.337  14.752 -1.1562  2.8947  1.1639
 4469TIP3    H234823   0.774   4.308  14.735 -0.6302  0.6383  0.1266
 4470TIP3   OH234824   0.516   6.077  11.257 -0.3672  0.2411  0.6620
 4470TIP3    H134825   0.473   6.043  11.336  0.7122 -2.2652  0.2759
 4470TIP3    H234826   0.570   6.004  11.227  0.6002  1.7416 -1.4244
 4471TIP3   OH234827   4.757   3.799   4.054  0.4499 -0.7721 -0.3744
 4471TIP3    H134828   4.686   3.819   4.115  1.6369  0.5103  0.6351
 4471TIP3    H234829   4.812   3.736   4.101  1.2048 -0.0139 -0.2259
 4472TIP3   OH234830   4.709   0.253  14.498 -0.2562 -0.2298  0.0492
 4472TIP3    H134831   4.733   0.303  14.420 -1.8767  0.7598  0.1435
 4472TIP3    H234832   4.750   0.301  14.570  0.6495 -0.7393 -0.1171
 4473TIP3   OH234833   3.192   3.378  16.516 -0.8034  0.5155  0.1201
 4473TIP3    H134834   3.223   3.338  16.597 -2.0916 -2.3133 -0.6500
 4473TIP3    H234835   3.213   3.471  16.525  2.0772 -0.2065  2.2474
 4474TIP3   OH234836   6.290   6.449  17.008 -0.2127  0.2563  0.4329
 4474TIP3    H134837   6.270   6.527  16.957 -2.2353 -0.2777  0.3484
 4474TIP3    H234838   6.368   6.413  16.966  0.4349  1.8985  0.1342
 4475TIP3   OH234839   3.577   4.087  12.144 -0.2620 -0.2694 -0.1694
 4475TIP3    H134840   3.543   4.126  12.225  1.0535 -1.1513  0.8473
 4475TIP3    H234841   3.589   4.161  12.085  2.2416  1.0049  1.7411
 4476TIP3   OH234842   4.946   3.457  12.185  0.3827  0.5108 -0.2931
 4476TIP3    H134843   4.965   3.479  12.276  0.4247  1.7452 -0.5881
 4476TIP3    H234844   5.026   3.479  12.137  0.3297 -0.0447 -0.6501
 4477TIP3   OH234845   5.082   5.471   2.692  0.1830 -0.7039  0.5064
 4477TIP3    H134846   5.003   5.509   2.653  0.4625 -0.5896  0.0508
 4477TIP3    H234847   5.049   5.415   2.763 -0.2314  0.5889  1.3759
 4478TIP3   OH234848   4.726   5.160  14.679  0.2502  0.2995 -0.4069
 4478TIP3    H134849   4.758   5.248  14.702  0.8162 -0.2193  0.8921
 4478TIP3    H234850   4.685   5.128  14.759  0.3915 -0.7685 -0.7512
 4479TIP3   OH234851   0.144   5.385   4.861 -0.0821  0.4104 -0.1681
 4479TIP3    H134852   0.215   5.426   4.813 -0.5145  0.6060 -0.6564
 4479TIP3    H234853   0.187   5.322   4.919  0.6079  1.7741  0.8422
 4480TIP3   OH234854   2.636   5.921  11.957 -0.6523  0.0692  0.2494
 4480TIP3    H134855   2.544   5.922  11.984 -0.1434  1.4277  2.0575
 4480TIP3    H234856   2.679   5.982  12.016  1.9028 -2.4161  1.1590
 4481TIP3   OH234857   3.921   4.919   1.234  0.1775 -0.0463  0.7160
 4481TIP3    H134858   3.825   4.921   1.232  0.1860  1.7317 -1.2850
 4481TIP3    H234859   3.944   4.942   1.324 -1.2488 -1.5519  1.5054
 4482TIP3   OH234860   5.777   3.219  12.646  0.7723  0.1128  0.2796
 4482TIP3    H134861   5.808   3.130  12.629  1.2683  0.2935  0.2287
 4482TIP3    H234862   5.682   3.209  12.656  0.8963 -0.5152  0.9330
 4483TIP3   OH234863   5.294   2.294  14.564  0.1459  0.5430  0.1041
 4483TIP3    H134864   5.212   2.289  14.613  0.0367  0.5696 -0.0740
 4483TIP3    H234865   5.293   2.380  14.523  0.9585  1.1408  1.3010
 4484TIP3   OH234866   0.600   4.696   0.954  0.4528  0.3516 -0.8370
 4484TIP3    H134867   0.520   4.749   0.956 -0.5950 -1.1847 -0.5739
 4484TIP3    H234868   0.608   4.668   0.863  0.2795 -0.0716 -0.7266
 4485TIP3   OH234869   6.682   5.592  17.068  0.1549  0.3042  0.1672
 4485TIP3    H134870   6.749   5.660  17.078 -1.0652  1.7779 -1.2399
 4485TIP3    H234871   6.674   5.554  17.156 -0.0868  2.9047  1.3531
 4486TIP3   OH234872   2.456   5.009  12.265 -0.2037 -0.0210  0.2261
 4486TIP3    H134873   2.431   5.018  12.357  0.3197  0.3200  0.3363
 4486TIP3    H234874   2.536   4.957  12.267  0.5896  1.1531  0.0735
 4487TIP3   OH234875   4.236   3.648   3.630 -0.5898  0.3712 -0.6714
 4487TIP3    H134876   4.313   3.658   3.574  1.1227 -0.4534  1.4294
 4487TIP3    H234877   4.238   3.724   3.689 -1.2344  0.1849 -0.3946
 4488TIP3   OH234878   3.644   3.446   4.850 -0.2850  0.1560  0.1981
 4488TIP3    H134879   3.575   3.512   4.857  0.7146  1.5450 -2.0099
 4488TIP3    H234880   3.712   3.488   4.798  2.3776 -1.0984  2.4561
 4489TIP3   OH234881   1.051   5.130   5.092  0.3441  0.0035 -0.5634
 4489TIP3    H134882   0.961   5.153   5.068  0.2904  0.0237 -0.3486
 4489TIP3    H234883   1.049   5.034   5.099  0.2928  0.0179 -0.3775
 4490TIP3   OH234884   4.339   4.055   1.930  0.2532  0.1144  0.5892
 4490TIP3    H134885   4.412   4.117   1.933 -1.0143  1.8727 -1.2446
 4490TIP3    H234886   4.288   4.074   2.009  0.0777  1.2198  0.2299
 4491TIP3   OH234887   1.250   2.388   3.955  0.0614 -0.5031 -0.3101
 4491TIP3    H134888   1.244   2.333   3.877  0.0374 -1.6108  0.4455
 4491TIP3    H234889   1.310   2.459   3.930 -0.4429 -0.4793 -1.5241
 4492TIP3   OH234890   3.266   1.075  13.914  0.1918  0.6576  0.5037
 4492TIP3    H134891   3.317   1.149  13.879 -0.1916 -0.2006 -2.0749
 4492TIP3    H234892   3.175   1.101  13.902 -0.0042 -1.1234 -2.7961
 4493TIP3   OH234893   5.186   3.625   1.947  0.1093  0.0909 -0.1970
 4493TIP3    H134894   5.280   3.637   1.931  0.7292 -1.2583  2.0040
 4493TIP3    H234895   5.161   3.552   1.890  0.7874 -0.5538  0.3083
 4494TIP3   OH234896   5.782   1.249   1.605  0.2459 -0.3921 -0.0398
 4494TIP3    H134897   5.857   1.192   1.585  1.4573  1.0586  0.1659
 4494TIP3    H234898   5.762   1.291   1.522  0.9335  0.6530  0.3054
 4495TIP3   OH234899   0.825   6.556   0.296 -0.0538 -0.5011 -0.1910
 4495TIP3    H134900   0.772   6.635   0.310  1.2468  0.2460  0.7903
 4495TIP3    H234901   0.808   6.532   0.206 -1.1483  0.4077 -0.2537
 4496TIP3   OH234902   5.802   4.809   4.062 -0.4925 -0.2505  0.3419
 4496TIP3    H134903   5.885   4.856   4.064 -0.5914  0.0397 -1.3234
 4496TIP3    H234904   5.739   4.872   4.097 -0.4744  0.5822 -1.0627
 4497TIP3   OH234905   6.584   5.162  15.579 -0.1426 -0.3779  0.0145
 4497TIP3    H134906   6.675   5.187  15.595  0.6301 -2.1733 -1.3259
 4497TIP3    H234907   6.537   5.195  15.656  1.4871  1.2103  0.3980
 4498TIP3   OH234908   2.939   5.574   0.261 -0.3506  0.1676 -0.1338
 4498TIP3    H134909   2.985   5.630   0.198  1.3055 -1.8721 -0.8463
 4498TIP3    H234910   2.847   5.584   0.238  0.0659  0.9146 -1.6490
 4499TIP3   OH234911   0.298   0.198  13.476  0.2186  0.2097  0.0771
 4499TIP3    H134912   0.330   0.136  13.542 -0.3964 -0.9130 -0.6532
 4499TIP3    H234913   0.239   0.147  13.421 -0.0590  1.3733 -0.7510
 4500TIP3   OH234914   2.252   4.648   2.742 -0.2394  0.1864  0.2372
 4500TIP3    H134915   2.197   4.610   2.811  0.8233  0.1672  1.1098
 4500TIP3    H234916   2.340   4.616   2.762  0.4295  1.8051  0.0592
 4501TIP3   OH234917   1.893   0.825  12.536  0.3818 -0.1074 -0.3200
 4501TIP3    H134918   1.927   0.914  12.537 -1.4618  0.6500 -0.4194
 4501TIP3    H234919   1.838   0.821  12.458 -0.2943 -1.0259  0.1780
 4502TIP3   OH234920   4.201   0.818   6.222  0.3405  0.0924 -0.1549
 4502TIP3    H134921   4.150   0.873   6.162  1.1354  2.3902  1.1178
 4502TIP3    H234922   4.292   0.831   6.196  0.5725 -0.2950  0.4401
 4503TIP3   OH234923   3.760   4.170   1.552 -0.2616 -0.1197  0.3716
 4503TIP3    H134924   3.809   4.172   1.470  1.5726 -1.0485  1.3878
 4503TIP3    H234925   3.740   4.262   1.570 -0.0551  0.1560 -0.7449
 4504TIP3   OH234926   0.452   2.130   4.803  0.3853 -0.6823 -0.5014
 4504TIP3    H134927   0.393   2.197   4.769  0.3972 -1.3395 -1.8821
 4504TIP3    H234928   0.421   2.048   4.762  2.0212 -1.0901 -0.9813
 4505TIP3   OH234929   2.789   3.338  15.372  0.2442  0.2878 -0.3838
 4505TIP3    H134930   2.762   3.397  15.443  1.1454  1.0824 -0.6720
 4505TIP3    H234931   2.736   3.365  15.297  0.9600  1.0394 -0.6308
 4506TIP3   OH234932   4.620   1.533   5.318  0.3262  0.2004 -0.0165
 4506TIP3    H134933   4.617   1.456   5.375 -1.7343 -0.3624 -0.8129
 4506TIP3    H234934   4.707   1.570   5.334 -0.4252  0.6418  4.1722
 4507TIP3   OH234935   4.183   1.904  15.366 -0.4652  0.2258  0.1994
 4507TIP3    H134936   4.189   1.976  15.429 -0.5841  0.6602 -0.2839
 4507TIP3    H234937   4.201   1.825  15.418 -0.4497  0.5916  0.7532
 4508TIP3   OH234938   6.159   2.911   1.079  0.5951 -0.4988 -1.0970
 4508TIP3    H134939   6.103   2.881   1.007 -0.4424 -2.4405  0.4144
 4508TIP3    H234940   6.163   2.836   1.139  0.7510  1.2813  1.2681
 4509TIP3   OH234941   0.464   2.291  16.653  0.3806  0.3809  0.1581
 4509TIP3    H134942   0.523   2.342  16.709  0.0070 -1.0741  2.0137
 4509TIP3    H234943   0.517   2.217  16.624 -0.2147 -0.4195  1.0407
 4510TIP3   OH234944   5.246   0.275   0.127 -0.4811  0.2623  0.2980
 4510TIP3    H134945   5.277   0.284   0.217 -2.0876  0.9616  0.8198
 4510TIP3    H234946   5.313   0.224   0.083 -0.0392 -0.7549  2.0857
 4511TIP3   OH234947   5.731   0.109   4.546 -0.1171  0.1203 -0.3674
 4511TIP3    H134948   5.646   0.152   4.543 -1.0954 -1.5581  1.3121
 4511TIP3    H234949   5.733   0.064   4.631  1.4799 -1.7580 -1.3075
 4512TIP3   OH234950   0.370   5.815   3.262  0.0775 -0.0787  0.5966
 4512TIP3    H134951   0.300   5.764   3.302 -0.1465 -0.6916 -0.5414
 4512TIP3    H234952   0.372   5.787   3.171 -1.1276  3.0475 -0.5324
 4513TIP3   OH234953   1.459   5.489   1.892  0.5932  0.4286  0.3007
 4513TIP3    H134954   1.410   5.571   1.899 -2.2237 -0.9589 -1.3275
 4513TIP3    H234955   1.419   5.431   1.957  0.9383 -0.3653 -0.1766
 4514TIP3   OH234956   2.654   3.937  15.971  0.7658  0.1593  0.0332
 4514TIP3    H134957   2.628   3.971  16.057 -2.6034 -0.5594 -0.5245
 4514TIP3    H234958   2.638   4.009  15.911  3.7460  0.8814 -0.0344
 4515TIP3   OH234959   0.706   0.689   2.254  0.1119 -0.0484 -0.2257
 4515TIP3    H134960   0.746   0.752   2.194 -0.0117 -0.3666 -0.6511
 4515TIP3    H234961   0.671   0.620   2.197  0.0405 -0.3858  0.2159
 4516TIP3   OH234962   1.707   0.580  10.236  0.6392  0.7039 -0.0485
 4516TIP3    H134963   1.634   0.542  10.284 -0.6028  0.0342 -2.3074
 4516TIP3    H234964   1.762   0.505  10.214  2.1016  1.2081  1.6709
 4517TIP3   OH234965   3.147   5.672  12.821 -0.0505 -0.0518  0.0850
 4517TIP3    H134966   3.069   5.630  12.857  0.9489 -1.3806  0.7633
 4517TIP3    H234967   3.200   5.695  12.897 -0.2796  1.9278 -0.2991
 4518TIP3   OH234968   3.908   3.736   5.900  0.0160 -0.4171  0.5774
 4518TIP3    H134969   3.877   3.646   5.891 -0.4302 -0.2373  0.2779
 4518TIP3    H234970   3.958   3.737   5.981  0.8138 -1.1589  0.1009
 4519TIP3   OH234971   1.310   2.562   5.850 -0.2117  0.0039  0.2292
 4519TIP3    H134972   1.404   2.578   5.858  0.1325 -1.7525 -0.0942
 4519TIP3    H234973   1.270   2.644   5.879  1.4015  0.6759  0.6633
 4520TIP3   OH234974   6.302   3.425  16.962  0.2261  0.4394 -0.3712
 4520TIP3    H134975   6.256   3.507  16.946  1.6667  1.0427 -1.6088
 4520TIP3    H234976   6.394   3.445  16.948  1.0494 -0.5844  2.6341
 4521TIP3   OH234977   6.150   4.035  13.508  0.0396 -0.0916  0.7610
 4521TIP3    H134978   6.156   3.942  13.529 -1.8116  0.2081  2.8902
 4521TIP3    H234979   6.086   4.039  13.437  1.2613 -0.4970 -0.4333
 4522TIP3   OH234980   4.589   1.900  15.328 -0.4445 -0.3355 -0.6320
 4522TIP3    H134981   4.581   1.832  15.395  2.1396 -0.6974 -0.5836
 4522TIP3    H234982   4.561   1.980  15.372  1.2910 -0.5417  1.0205
 4523TIP3   OH234983   3.051   5.940   1.946  0.5406 -0.0831  0.1000
 4523TIP3    H134984   3.002   5.858   1.947  0.1976  0.0879 -1.0472
 4523TIP3    H234985   3.052   5.966   1.854 -0.3007  1.7507  0.5527
 4524TIP3   OH234986   2.270   0.885  15.427 -0.2054  0.3486 -0.1680
 4524TIP3    H134987   2.246   0.944  15.355 -0.1525  1.1976  0.4905
 4524TIP3    H234988   2.188   0.871  15.474  0.2234  1.9747  1.1574
 4525TIP3   OH234989   3.140   4.097  10.939 -0.0970 -0.1809 -0.5215
 4525TIP3    H134990   3.195   4.168  10.906  2.3272 -1.5733  0.2693
 4525TIP3    H234991   3.147   4.029  10.872  0.5157 -0.9735  0.3122
 4526TIP3   OH234992   4.044   4.375   6.343 -0.4133 -0.3635  0.0740
 4526TIP3    H134993   3.987   4.332   6.408  0.1921  0.9187  1.5297
 4526TIP3    H234994   3.998   4.456   6.321 -0.0071 -0.1844 -0.1246
 4527TIP3   OH234995   3.591   1.205   5.984 -0.8665 -0.2291  0.5240
 4527TIP3    H134996   3.566   1.213   6.076 -0.2508  0.0764  0.6684
 4527TIP3    H234997   3.672   1.256   5.976  0.1205 -1.7808  0.2263
 4528TIP3   OH234998   4.542   2.918  14.886 -0.5578 -0.3399  0.1365
 4528TIP3    H134999   4.479   2.849  14.906 -0.5321 -0.4776 -0.2494
 4528TIP3    H235000   4.494   2.999  14.902 -0.8427 -0.4430 -0.1640
 4529TIP3   OH235001   6.158   1.140   5.307  0.2679  0.1844  0.4168
 4529TIP3    H135002   6.149   1.065   5.248  1.9473  0.2418  0.0497
 4529TIP3    H235003   6.127   1.107   5.391 -2.9096  0.3201 -0.5828
 4530TIP3   OH235004   0.880   2.907   2.882  0.2518  0.1384 -0.6470
 4530TIP3    H135005   0.788   2.906   2.908 -0.3165  0.0896 -2.5250
 4530TIP3    H235006   0.878   2.930   2.789  1.9838 -2.1517 -1.3396
 4531TIP3   OH235007   5.383   0.625   4.948 -0.1009  0.4977  0.1028
 4531TIP3    H135008   5.360   0.576   5.027 -0.9190  0.1005 -0.3636
 4531TIP3    H235009   5.429   0.561   4.893  0.9108  0.9108  0.4572
 4532TIP3   OH235010   5.370   1.716   6.252 -0.2510 -0.3034 -0.2909
 4532TIP3    H135011   5.361   1.715   6.156  0.9123  1.4294 -0.4591
 4532TIP3    H235012   5.387   1.807   6.274  2.2796 -1.0389  1.2646
 4533TIP3   OH235013   5.635   2.106   4.249 -0.1148  0.9334  0.4907
 4533TIP3    H135014   5.722   2.138   4.275 -0.1864  2.0959 -0.6343
 4533TIP3    H235015   5.575   2.148   4.310  0.0064  1.1149  0.4876
 4534TIP3   OH235016   2.071   0.940   2.329 -0.2514  0.1405  0.2386
 4534TIP3    H135017   1.990   0.900   2.298 -0.9868  0.1990  1.9640
 4534TIP3    H235018   2.134   0.868   2.333 -0.9568 -0.4507  1.2812
 4535TIP3   OH235019   0.424   5.808   0.000 -0.4560 -0.3735 -0.2399
 4535TIP3    H135020   0.406   5.792  -0.092 -0.3922 -3.6656  0.1731
 4535TIP3    H235021   0.361   5.753   0.047  2.7025 -2.9351  1.4625
 4536TIP3   OH235022   5.152   3.110   5.833 -0.2936  0.0829  0.2940
 4536TIP3    H135023   5.073   3.097   5.886 -1.0068 -1.9457 -1.1360
 4536TIP3    H235024   5.120   3.144   5.750  0.1376 -1.7472 -0.6793
 4537TIP3   OH235025   2.371   6.691  12.371 -0.5867 -0.3004  0.1258
 4537TIP3    H135026   2.277   6.712  12.370 -0.8574 -1.4157 -1.0456
 4537TIP3    H235027   2.412   6.766  12.413 -1.9991  0.2553  0.5675
 4538TIP3   OH235028   6.679   0.697   5.086 -0.2665  0.5315  0.3322
 4538TIP3    H135029   6.603   0.642   5.066  0.9046 -0.4615 -1.7431
 4538TIP3    H235030   6.649   0.786   5.073 -2.2406  0.5359  3.8377
 4539TIP3   OH235031   1.531   2.403  16.049 -0.4078  0.9043 -0.1483
 4539TIP3    H135032   1.482   2.365  15.977 -2.6459  1.3881  1.0191
 4539TIP3    H235033   1.582   2.330  16.084 -3.5893 -0.8794  1.2136
 4540TIP3   OH235034   5.985   5.171   2.039 -0.0173 -0.6532 -0.2271
 4540TIP3    H135035   5.980   5.076   2.046  1.6572 -0.8031 -0.4513
 4540TIP3    H235036   5.954   5.203   2.123 -1.3052 -1.3494 -0.4146
 4541TIP3   OH235037   3.363   0.496  15.112 -0.3586  0.3091  0.0098
 4541TIP3    H135038   3.339   0.577  15.066 -0.2106  0.1360 -0.3796
 4541TIP3    H235039   3.398   0.439  15.043 -2.2399 -0.8273 -0.0672
 4542TIP3   OH235040   6.124   6.070  12.424 -0.3382 -0.1743 -0.0703
 4542TIP3    H135041   6.102   5.978  12.409 -1.6824  0.3410 -1.6423
 4542TIP3    H235042   6.219   6.071  12.434 -0.1224 -1.5979 -1.4838
 4543TIP3   OH235043   2.681   4.246  15.249  0.1992  0.2668  0.2250
 4543TIP3    H135044   2.674   4.304  15.174  1.0944  1.7917  1.2710
 4543TIP3    H235045   2.600   4.195  15.247 -0.8974  1.9415 -0.4222
 4544TIP3   OH235046   6.083   5.142  16.759 -0.5269 -0.0954  0.5959
 4544TIP3    H135047   6.059   5.209  16.822 -0.0252  1.9786 -1.2971
 4544TIP3    H235048   6.015   5.148  16.691 -0.6135 -1.7121  0.4988
 4545TIP3   OH235049   2.055   6.655  10.734  0.5227 -0.1355  1.0188
 4545TIP3    H135050   2.139   6.647  10.688  0.6991 -0.0707  1.3235
 4545TIP3    H235051   2.032   6.748  10.725  0.0703 -0.3228  0.2255
 4546TIP3   OH235052   6.052   1.333  13.930  0.7853 -0.0689  0.4298
 4546TIP3    H135053   5.958   1.348  13.915  0.6097 -0.2087  1.3234
 4546TIP3    H235054   6.094   1.369  13.852  0.1556  2.2379  1.0759
 4547TIP3   OH235055   1.135   6.190   1.852  0.3935  0.3442 -0.2930
 4547TIP3    H135056   1.056   6.162   1.805  1.0385 -0.9405 -0.6276
 4547TIP3    H235057   1.187   6.236   1.786  1.3342 -1.5257 -0.9211
 4548TIP3   OH235058   0.692   2.481   0.861 -0.2672  0.4356  0.3789
 4548TIP3    H135059   0.640   2.442   0.931  0.7884 -0.1038  0.8796
 4548TIP3    H235060   0.694   2.575   0.883  0.0093  0.2778  1.0357
 4549TIP3   OH235061   4.046   2.133   2.780 -0.1926 -0.0741 -0.3951
 4549TIP3    H135062   4.025   2.157   2.690 -0.9973  0.2741 -0.1297
 4549TIP3    H235063   3.961   2.115   2.820 -0.0430  1.7270  0.8380
 4550TIP3   OH235064   5.074   5.696  14.155 -0.6398  0.1295 -0.4391
 4550TIP3    H135065   5.128   5.641  14.097 -2.0592  0.1478 -1.8317
 4550TIP3    H235066   5.051   5.772  14.101 -1.9537  0.1758  0.1660
 4551TIP3   OH235067   5.991   1.193  10.780 -0.3282  0.1909  0.0091
 4551TIP3    H135068   5.958   1.141  10.706 -3.6214  1.3250  0.5430
 4551TIP3    H235069   5.956   1.280  10.765  0.2825  0.8366  2.0958
 4552TIP3   OH235070   4.169   4.494  11.767 -0.2528 -0.2260 -0.3370
 4552TIP3    H135071   4.203   4.405  11.761  2.7031  0.7927 -0.2895
 4552TIP3    H235072   4.190   4.522  11.856  1.0893  1.2633 -1.0672
 4553TIP3   OH235073   1.986   0.313  11.923 -0.1638  0.2291  0.2740
 4553TIP3    H135074   2.022   0.353  12.002 -1.4501 -0.2678  1.1403
 4553TIP3    H235075   2.063   0.290  11.871  0.6987  0.7730  1.2594
 4554TIP3   OH235076   3.046   0.952   3.816 -0.1290 -0.0614  0.1608
 4554TIP3    H135077   3.104   0.943   3.892  2.0864 -1.7507 -1.5598
 4554TIP3    H235078   3.023   0.862   3.793 -1.3183  0.4560 -0.7661
 4555TIP3   OH235079   0.210   4.458  10.960 -0.1314  0.8907 -0.1680
 4555TIP3    H135080   0.301   4.462  10.930  0.1292  0.3693  0.5169
 4555TIP3    H235081   0.164   4.413  10.889  0.3942  0.0240  0.0196
 4556TIP3   OH235082   5.150   3.466   2.831 -0.2257  0.1083 -0.4069
 4556TIP3    H135083   5.212   3.430   2.768 -1.1118 -1.3948 -0.4698
 4556TIP3    H235084   5.081   3.400   2.837 -1.6619  1.5640 -0.0886
 4557TIP3   OH235085   3.257   0.515  16.585  0.4053  0.7630 -0.2747
 4557TIP3    H135086   3.319   0.450  16.552 -1.5253 -1.7581  0.7738
 4557TIP3    H235087   3.209   0.544  16.507  0.7014  0.2505 -0.6539
 4558TIP3   OH235088   6.188   1.941   0.756  0.7228 -0.1399 -0.1357
 4558TIP3    H135089   6.098   1.971   0.747  0.6590 -0.7031 -1.6348
 4558TIP3    H235090   6.181   1.852   0.793  0.6508 -0.2445 -0.4000
 4559TIP3   OH235091   0.275   2.299   1.678 -0.1949  0.0807 -0.0627
 4559TIP3    H135092   0.245   2.298   1.769 -0.8408 -0.8475 -0.2737
 4559TIP3    H235093   0.271   2.208   1.650  0.0772  0.3412 -1.0002
 4560TIP3   OH235094   1.235   3.906   5.969 -0.0543 -0.2264 -0.1545
 4560TIP3    H135095   1.266   3.835   5.914 -0.4228  0.1650 -0.8832
 4560TIP3    H235096   1.183   3.863   6.037  0.7138 -0.7444  0.1207
 4561TIP3   OH235097   0.697   1.459  11.362  0.4996  0.3927 -0.4298
 4561TIP3    H135098   0.637   1.450  11.288  1.7646 -0.4709 -1.3823
 4561TIP3    H235099   0.780   1.485  11.323  1.7712 -2.0705  0.4039
 4562TIP3   OH235100   6.515   2.701  15.384 -1.1013  0.1315  0.1190
 4562TIP3    H135101   6.536   2.727  15.473 -1.8236 -0.3248  0.4378
 4562TIP3    H235102   6.570   2.625  15.367 -0.9663  0.2168  0.1812
 4563TIP3   OH235103   5.492   1.941  16.875  0.1091 -0.5092  0.2297
 4563TIP3    H135104   5.429   1.934  16.803 -0.0583 -1.5635  0.4683
 4563TIP3    H235105   5.576   1.952  16.832  0.1103 -1.8699 -0.1715
 4564TIP3   OH235106   3.840   2.269  10.931  0.2301  0.5390  0.3763
 4564TIP3    H135107   3.866   2.315  10.851 -0.4444 -0.8039 -0.6641
 4564TIP3    H235108   3.785   2.332  10.978 -1.0191  0.7105 -1.2059
 4565TIP3   OH235109   6.662   5.894  14.513 -0.2766 -0.2866 -0.1398
 4565TIP3    H135110   6.673   5.989  14.515  0.1206 -0.1720 -3.1258
 4565TIP3    H235111   6.693   5.864  14.598  2.5009  1.9971 -0.2136
 4566TIP3   OH235112   6.671   1.832   0.117 -0.5029  0.8580  0.1865
 4566TIP3    H135113   6.742   1.771   0.138  1.0909  2.6332  0.1475
 4566TIP3    H235114   6.688   1.859   0.027 -0.8121  1.8133  0.4028
 4567TIP3   OH235115   1.006   3.881   3.335 -0.2763 -0.5180  0.7585
 4567TIP3    H135116   1.037   3.795   3.365  1.6938  0.5856  2.0818
 4567TIP3    H235117   1.085   3.933   3.325 -1.4651  1.3258  0.4823
 4568TIP3   OH235118   2.466   5.477  16.534 -0.3724 -0.5998  0.3745
 4568TIP3    H135119   2.458   5.562  16.490 -0.5558 -0.9177 -0.2211
 4568TIP3    H235120   2.536   5.432  16.485 -0.3574 -0.8367  0.6110
 4569TIP3   OH235121   2.529   1.512  11.069  0.1340 -0.2172 -0.0972
 4569TIP3    H135122   2.441   1.478  11.058  0.1450 -0.3030  0.0731
 4569TIP3    H235123   2.556   1.540  10.982  0.3383 -1.1449 -0.3386
 4570TIP3   OH235124   1.568   6.284   4.193 -0.2116  0.1865 -0.1934
 4570TIP3    H135125   1.647   6.231   4.206  1.0806  1.5897 -1.8046
 4570TIP3    H235126   1.602   6.370   4.168 -2.2704  1.1821  0.2453
 4571TIP3   OH235127   2.416   3.840   2.115 -0.1621 -0.1830  0.0682
 4571TIP3    H135128   2.397   3.783   2.189 -0.4638 -2.2568 -1.5138
 4571TIP3    H235129   2.495   3.803   2.075 -0.0029  0.8757 -0.6649
 4572TIP3   OH235130   5.580   5.604  16.564 -0.0670 -0.2769  0.0800
 4572TIP3    H135131   5.516   5.563  16.505 -1.0266  1.5050 -0.2016
 4572TIP3    H235132   5.560   5.567  16.650 -3.1502  1.8529  0.4653
 4573TIP3   OH235133   1.185   6.159   2.458  0.4153 -0.2630  0.0546
 4573TIP3    H135134   1.202   6.099   2.385  1.2717  1.0445 -0.8840
 4573TIP3    H235135   1.271   6.197   2.478 -0.4351  2.6183 -1.2236
 4574TIP3   OH235136   6.101   1.561  15.623  0.5178 -0.5209  0.1985
 4574TIP3    H135137   6.057   1.635  15.581  0.5312 -0.9687 -0.6362
 4574TIP3    H235138   6.161   1.600  15.686 -1.9991  0.1089  2.3882
 4575TIP3   OH235139   2.837   3.789   5.841  0.0466 -0.3976 -0.3551
 4575TIP3    H135140   2.849   3.836   5.759  0.2615 -1.4053 -0.9201
 4575TIP3    H235141   2.752   3.818   5.874  0.7179  1.3185 -0.0319
 4576TIP3   OH235142   1.922   5.044   3.624  0.4581 -0.2547  0.1674
 4576TIP3    H135143   1.966   5.037   3.539  0.3589 -1.4971  0.1909
 4576TIP3    H235144   1.866   5.121   3.617  0.1896 -0.5397 -1.0236
 4577TIP3   OH235145   0.995   3.608  10.458  0.0102 -0.3816 -0.3246
 4577TIP3    H135146   1.028   3.687  10.416  1.8104 -0.5172  0.7290
 4577TIP3    H235147   0.967   3.637  10.545 -0.5983 -0.6755 -0.4162
 4578TIP3   OH235148   2.751   0.927   5.962  0.2802 -0.0171 -0.6562
 4578TIP3    H135149   2.790   0.989   5.901  0.9266 -1.0720 -1.3591
 4578TIP3    H235150   2.818   0.859   5.972 -0.6919 -0.9791 -0.5185
 4579TIP3   OH235151   6.729   5.297  13.276 -0.1464  0.6503 -0.1570
 4579TIP3    H135152   6.737   5.214  13.324 -0.1911  0.9084  0.3086
 4579TIP3    H235153   6.668   5.278  13.205  1.0652 -0.1403 -1.0260
 4580TIP3   OH235154   0.873   6.717  14.538 -0.2446 -0.0945 -0.2855
 4580TIP3    H135155   0.899   6.630  14.568  1.0405  0.3590 -0.0327
 4580TIP3    H235156   0.818   6.751  14.608  1.6755  0.4441  1.0225
 4581TIP3   OH235157   2.259   2.212  16.408 -0.3171 -0.0441  0.0216
 4581TIP3    H135158   2.328   2.157  16.445 -0.4047  0.3735  0.8425
 4581TIP3    H235159   2.269   2.296  16.453 -0.7979  0.3038 -0.5022
 4582TIP3   OH235160   2.427   3.827   4.970 -0.5598  0.4606 -0.1731
 4582TIP3    H135161   2.436   3.748   4.916  0.8716  0.1230  0.5142
 4582TIP3    H235162   2.516   3.857   4.984 -1.0535  1.8968  0.0563
 4583TIP3   OH235163   0.102   2.761  17.025 -0.1604 -0.3131 -0.2765
 4583TIP3    H135164   0.052   2.828  17.073  0.0487 -0.1655 -0.2635
 4583TIP3    H235165   0.103   2.792  16.934  2.9956  1.6388  0.2579
 4584TIP3   OH235166   6.736   1.575  10.539 -0.7274 -0.1593  0.0600
 4584TIP3    H135167   6.726   1.484  10.513  1.4037  0.0782 -1.8515
 4584TIP3    H235168   6.825   1.582  10.571 -0.9745  1.1958  0.5417
 4585TIP3   OH235169   0.124   6.685  15.979 -0.4574 -0.1989  0.7491
 4585TIP3    H135170   0.124   6.769  15.933 -1.7360  0.3585  1.7252
 4585TIP3    H235171   0.151   6.706  16.068 -0.8498 -0.8176  1.0163
 4586TIP3   OH235172   6.450   3.851  11.659  0.5136 -0.2090 -0.1734
 4586TIP3    H135173   6.430   3.763  11.627 -3.4580 -0.1349  1.6046
 4586TIP3    H235174   6.454   3.905  11.579 -0.7812 -1.3867 -1.0790
 4587TIP3   OH235175   6.586   3.045  13.880 -0.4541 -0.0969 -0.3964
 4587TIP3    H135176   6.543   3.091  13.952  1.0988  3.5534 -1.5309
 4587TIP3    H235177   6.676   3.034  13.911 -0.2818 -0.3659 -0.9956
 4588TIP3   OH235178   0.617   6.811  12.833  0.3131 -0.4122  0.1995
 4588TIP3    H135179   0.595   6.822  12.741  0.0577  2.5877  0.5132
 4588TIP3    H235180   0.710   6.786  12.832  0.1957 -0.8784 -0.8521
 4589TIP3   OH235181   0.373   3.362  14.465  0.1885 -0.4030  0.1445
 4589TIP3    H135182   0.441   3.313  14.419 -0.3445 -0.2150 -0.8603
 4589TIP3    H235183   0.297   3.360  14.407  0.0193  1.2790  0.2454
 4590TIP3   OH235184   2.370   3.755  15.753  0.0391 -0.7056  0.3200
 4590TIP3    H135185   2.437   3.764  15.686  0.7214 -4.0125  0.3958
 4590TIP3    H235186   2.408   3.794  15.832  0.1939  1.0079 -0.5623
 4591TIP3   OH235187   2.179   1.845   3.920  0.1999 -0.0348 -0.1629
 4591TIP3    H135188   2.099   1.862   3.871 -0.5554  1.0366  1.3609
 4591TIP3    H235189   2.238   1.804   3.856 -0.9724  0.6374 -1.7523
 4592TIP3   OH235190   2.891   3.507   5.242 -0.1718 -0.1577  0.5435
 4592TIP3    H135191   2.812   3.556   5.223  1.1440  2.5283  1.5185
 4592TIP3    H235192   2.886   3.488   5.336  0.6753  0.7854  0.8015
 4593TIP3   OH235193   3.572   3.354  13.329  0.6887 -0.4433 -0.3004
 4593TIP3    H135194   3.583   3.423  13.264  0.7229  1.6407  1.7739
 4593TIP3    H235195   3.620   3.279  13.293  0.7311  0.5919 -2.5956
 4594TIP3   OH235196   4.479   2.104  16.596 -0.1086  0.4594  0.2859
 4594TIP3    H135197   4.492   2.068  16.684 -0.4108  0.2147  0.2327
 4594TIP3    H235198   4.528   2.045  16.539 -1.0991 -0.2427  0.1294
 4595TIP3   OH235199   6.477   3.581  15.779 -0.2100  1.1306  0.2918
 4595TIP3    H135200   6.529   3.604  15.856  1.1375 -0.4935 -0.0525
 4595TIP3    H235201   6.500   3.489  15.761 -1.3368  1.1174 -1.3826
 4596TIP3   OH235202   5.407   1.497   4.502  0.2472  0.2152 -0.2500
 4596TIP3    H135203   5.389   1.417   4.453  0.6441  0.5220 -0.9063
 4596TIP3    H235204   5.488   1.531   4.464 -0.4356  1.4438 -0.6508
 4597TIP3   OH235205   5.600   1.943   6.051  0.0091 -0.3105  0.0575
 4597TIP3    H135206   5.541   2.017   6.064 -0.5386 -0.9074  1.0853
 4597TIP3    H235207   5.658   1.971   5.980 -0.3768  0.9748  0.2271
 4598TIP3   OH235208   5.365   1.076   4.554 -0.2956  0.1092  0.2727
 4598TIP3    H135209   5.401   1.116   4.633 -1.8581 -0.8974  1.5574
 4598TIP3    H235210   5.375   0.982   4.567  1.4478 -0.0712 -1.7736
 4599TIP3   OH235211   5.452   4.801  15.762  0.0624  0.5880 -0.3065
 4599TIP3    H135212   5.537   4.831  15.731  1.1561 -0.3669  1.5913
 4599TIP3    H235213   5.390   4.867  15.731  1.6673  2.0364 -0.5624
 4600TIP3   OH235214   6.338   5.977  10.198 -0.1495  0.5520 -0.3828
 4600TIP3    H135215   6.251   5.988  10.158 -1.5409 -2.0749  1.6555
 4600TIP3    H235216   6.349   6.054  10.254 -0.4152  1.6801 -1.8206
 4601TIP3   OH235217   1.937   4.537  16.021  0.3651  0.0696  0.0329
 4601TIP3    H135218   1.858   4.519  15.970 -0.7389  1.5706  1.1093
 4601TIP3    H235219   1.904   4.569  16.105  2.0898 -3.6998  2.3759
 4602TIP3   OH235220   6.336   1.737   4.838  0.3140  0.1499  0.1093
 4602TIP3    H135221   6.330   1.685   4.918  3.2186  0.8928  0.9430
 4602TIP3    H235222   6.410   1.796   4.853 -0.6404  2.1022 -2.1607
 4603TIP3   OH235223   5.670   5.685  15.715  0.1819 -0.2826  0.4038
 4603TIP3    H135224   5.658   5.617  15.649 -1.3825 -0.7086  1.0813
 4603TIP3    H235225   5.707   5.759  15.667  1.7138 -1.4987 -0.3840
 4604TIP3   OH235226   3.997   2.303  14.506 -0.2839  0.4951  0.3640
 4604TIP3    H135227   3.970   2.214  14.530  2.3111 -0.4693  0.0117
 4604TIP3    H235228   4.087   2.294  14.475 -0.3871  3.0771 -0.9954
 4605TIP3   OH235229   1.829   1.554  16.268 -0.1204  0.4302 -0.1220
 4605TIP3    H135230   1.768   1.480  16.275 -0.8520  0.9868 -0.4505
 4605TIP3    H235231   1.773   1.631  16.271  0.1536  0.9369 -3.5663
 4606TIP3   OH235232   3.009   2.553  16.602 -0.2556  0.9164 -0.3631
 4606TIP3    H135233   3.055   2.563  16.519  1.5268  1.5823  0.6416
 4606TIP3    H235234   3.016   2.639  16.643 -0.5751  0.4324  0.7251
 4607TIP3   OH235235   2.214   2.347   5.077 -0.4939 -0.3480 -0.3141
 4607TIP3    H135236   2.263   2.407   5.020 -0.3773  0.1479  0.3030
 4607TIP3    H235237   2.256   2.262   5.063 -0.8305 -0.3536 -1.3985
 4608TIP3   OH235238   6.423   0.515   5.080  0.2055 -1.0726  0.3637
 4608TIP3    H135239   6.369   0.588   5.051  1.0387  0.0294  1.5014
 4608TIP3    H235240   6.374   0.476   5.152  0.5476 -0.5367  0.8998
 4609TIP3   OH235241   4.963   6.642   2.415  0.0221  0.3474 -0.4108
 4609TIP3    H135242   4.987   6.550   2.407 -1.5118 -0.2313  1.1182
 4609TIP3    H235243   4.942   6.670   2.326 -0.5421 -1.0893 -0.7394
 4610TIP3   OH235244   4.924   5.590   0.377 -0.0093 -0.4454  0.4759
 4610TIP3    H135245   4.937   5.605   0.471 -1.1114 -2.1635  0.9594
 4610TIP3    H235246   4.834   5.617   0.361 -0.4615 -1.9215  0.3664
 4611TIP3   OH235247   0.090   2.558  10.614 -0.1146 -0.2075  0.9299
 4611TIP3    H135248   0.024   2.548  10.682 -0.9005 -1.9035  0.0052
 4611TIP3    H235249   0.061   2.498  10.544  2.9144 -1.8793  0.9177
 4612TIP3   OH235250   1.852   2.958  11.129 -0.2832  0.2905  0.2017
 4612TIP3    H135251   1.859   2.937  11.223  2.4871  2.2711  0.5516
 4612TIP3    H235252   1.846   2.872  11.087 -2.0319 -0.6496  2.1695
 4613TIP3   OH235253   4.689   6.768  12.864  1.0086  0.3734 -0.0984
 4613TIP3    H135254   4.682   6.831  12.935  1.6359  0.3990 -0.0558
 4613TIP3    H235255   4.659   6.685  12.902  0.5865  0.5486 -0.0379
 4614TIP3   OH235256   5.417   0.269  12.580  0.7388  0.1857 -0.0152
 4614TIP3    H135257   5.336   0.294  12.536  1.7143  0.1858 -1.9008
 4614TIP3    H235258   5.462   0.352  12.596  0.3057  0.1993  1.1897
 4615TIP3   OH235259   2.775   6.744  16.942 -0.2340 -0.2360 -0.1205
 4615TIP3    H135260   2.717   6.668  16.946  0.4394 -0.7053  1.6602
 4615TIP3    H235261   2.863   6.709  16.959  0.2208  0.7926 -0.2491
 4616TIP3   OH235262   5.805   4.704  13.527  0.3239  0.2140 -0.0541
 4616TIP3    H135263   5.838   4.760  13.597  2.0696  1.8539 -2.0876
 4616TIP3    H235264   5.880   4.687  13.471 -1.1496 -0.4067 -1.9699
 4617TIP3   OH235265   1.913   0.552  15.446  0.4759 -0.5037  0.4346
 4617TIP3    H135266   1.869   0.618  15.500 -0.2171 -0.4098 -0.2355
 4617TIP3    H235267   1.959   0.602  15.379 -0.0393 -0.6896 -0.0655
 4618TIP3   OH235268   4.508   3.510   3.538 -0.4367  0.6559  0.1863
 4618TIP3    H135269   4.592   3.481   3.502 -1.1873  2.1228 -3.1613
 4618TIP3    H235270   4.452   3.433   3.534  0.3848 -0.0352  1.3624
 4619TIP3   OH235271   6.416   2.606  13.704 -0.3471  0.2293 -0.7392
 4619TIP3    H135272   6.412   2.699  13.724 -2.7893 -0.2042  1.4789
 4619TIP3    H235273   6.497   2.595  13.655 -0.3394  3.5985 -1.7403
 4620TIP3   OH235274   4.222   4.491  12.046 -0.1218 -0.3045 -0.3727
 4620TIP3    H135275   4.184   4.422  12.100 -0.0167 -0.0796 -0.0011
 4620TIP3    H235276   4.317   4.481  12.058 -0.1198  0.1836  0.0438
 4621TIP3   OH235277   1.840   0.939   3.338 -0.2059  0.0119  0.3081
 4621TIP3    H135278   1.805   0.951   3.250  0.7033  0.1467 -0.0484
 4621TIP3    H235279   1.898   0.862   3.330  1.2380  1.0519  0.3502
 4622TIP3   OH235280   6.753   3.374  10.435 -0.4286  0.0212  0.5107
 4622TIP3    H135281   6.833   3.393  10.385  0.2080 -1.3466  0.9521
 4622TIP3    H235282   6.738   3.281  10.420 -1.1771 -0.0300  1.5353
 4623TIP3   OH235283   4.407   1.335  15.990  0.4931 -0.3972  0.7400
 4623TIP3    H135284   4.452   1.275  16.050  0.8432  2.1132  3.1718
 4623TIP3    H235285   4.478   1.387  15.951  0.0341  0.3278  0.8589
 4624TIP3   OH235286   4.229   2.578   5.713 -0.6111  0.3771  0.5577
 4624TIP3    H135287   4.304   2.541   5.758 -0.7078  0.6997  0.9920
 4624TIP3    H235288   4.266   2.645   5.656 -0.2097 -1.6566 -1.7148
 4625TIP3   OH235289   1.808   5.055   5.817  0.1530 -0.1105  0.2380
 4625TIP3    H135290   1.860   5.012   5.885 -2.0854 -0.5339  1.7645
 4625TIP3    H235291   1.777   4.983   5.762 -1.1550 -0.1705  1.0358
 4626TIP3   OH235292   3.593   0.874   0.233 -0.8048  0.2303 -0.8204
 4626TIP3    H135293   3.681   0.859   0.199 -0.5724  0.0033 -0.1452
 4626TIP3    H235294   3.540   0.894   0.156 -0.1028  0.6587 -1.2030
 4627TIP3   OH235295   1.584   0.995   2.981  0.3570  0.2806 -0.3897
 4627TIP3    H135296   1.547   0.982   3.068 -0.8402  1.1812 -0.7448
 4627TIP3    H235297   1.554   0.919   2.930  0.7248 -0.0397 -0.1359
 4628TIP3   OH235298   6.391   0.894  15.601  0.2283  0.4312  0.0519
 4628TIP3    H135299   6.346   0.922  15.521 -1.3986 -0.0426  0.7403
 4628TIP3    H235300   6.320   0.863  15.658  1.3636  0.5247  1.5811
 4629TIP3   OH235301   6.781   1.685   2.283  0.6549 -0.2237  0.1955
 4629TIP3    H135302   6.691   1.720   2.283  0.5794 -0.4086  0.5833
 4629TIP3    H235303   6.800   1.668   2.375  1.9759  2.0486  0.4109
 4630TIP3   OH235304   0.008   2.226  13.734 -0.2744 -0.4422 -0.3896
 4630TIP3    H135305   0.003   2.321  13.743  1.5912 -0.3172 -0.2813
 4630TIP3    H235306   0.092   2.211  13.690 -0.1848 -2.0812  0.2964
 4631TIP3   OH235307   2.881   3.557  11.678  0.3580  0.6035 -0.5386
 4631TIP3    H135308   2.939   3.481  11.687  1.0343  1.2116  0.3971
 4631TIP3    H235309   2.918   3.623  11.736 -0.4972  1.4947 -0.9709
 4632TIP3   OH235310   0.826   5.452  16.744  0.6125 -0.2405 -0.1146
 4632TIP3    H135311   0.764   5.393  16.786 -0.0609  0.5356 -0.0056
 4632TIP3    H235312   0.800   5.452  16.652 -0.7197  1.4553  0.2092
 4633TIP3   OH235313   5.367   6.664  13.679 -0.2406  0.2078  0.0955
 4633TIP3    H135314   5.453   6.642  13.716 -0.6735  1.0001  1.6300
 4633TIP3    H235315   5.333   6.580  13.647  1.1732 -0.0861 -0.7486
 4634TIP3   OH235316   6.728   2.206  14.452  0.0208 -0.4078  1.0436
 4634TIP3    H135317   6.694   2.277  14.507 -3.3635 -1.5778  0.7426
 4634TIP3    H235318   6.768   2.144  14.513 -0.7347 -0.1508  1.8098
 4635TIP3   OH235319   6.661   4.012   1.652 -0.2834  0.0000  0.7805
 4635TIP3    H135320   6.693   3.927   1.682 -0.2867  0.1791  1.3143
 4635TIP3    H235321   6.604   3.992   1.578 -0.2282 -0.4548  0.8587
 4636TIP3   OH235322   2.833   4.308  14.280  0.2170 -0.4667  0.2581
 4636TIP3    H135323   2.779   4.260  14.343  0.5627  0.1476  1.0368
 4636TIP3    H235324   2.901   4.246  14.255  0.3463 -0.5647  0.8422
 4637TIP3   OH235325   5.167   5.554  13.455  0.0257 -0.2963  0.4382
 4637TIP3    H135326   5.076   5.527  13.468 -0.4310  1.3333  0.8314
 4637TIP3    H235327   5.217   5.473  13.461 -1.4785 -1.3586 -0.6813
 4638TIP3   OH235328   5.685   4.984   5.410 -0.0527 -0.6737 -0.1543
 4638TIP3    H135329   5.659   5.028   5.329 -2.8170 -0.4200  0.7510
 4638TIP3    H235330   5.739   5.048   5.456 -1.5816  0.6768 -0.1720
 4639TIP3   OH235331   1.852   0.464  12.266  0.0927 -0.1197 -0.2521
 4639TIP3    H135332   1.898   0.390  12.306 -0.3391 -0.2930 -0.0632
 4639TIP3    H235333   1.762   0.432  12.254  0.0045  0.2330 -0.5536
 4640TIP3   OH235334   3.285   2.350   0.400  0.2309  0.3282 -0.3834
 4640TIP3    H135335   3.336   2.371   0.478 -1.3707  0.1382  0.7473
 4640TIP3    H235336   3.348   2.359   0.328  1.4714  1.5972  0.7909
 4641TIP3   OH235337   5.890   3.817  14.689 -0.1989  0.3924 -0.5900
 4641TIP3    H135338   5.899   3.907  14.657  0.2028  0.6168  0.1445
 4641TIP3    H235339   5.822   3.822  14.756  0.4987  0.3423  0.1432
 4642TIP3   OH235340   2.391   3.584   6.868 -0.3707  0.2742  0.6981
 4642TIP3    H135341   2.483   3.561   6.880 -0.6086  0.0570  2.3604
 4642TIP3    H235342   2.345   3.500   6.871 -0.4808  0.0836 -2.6220
 4643TIP3   OH235343   4.258   6.445  16.096  0.3249  0.2927 -0.0755
 4643TIP3    H135344   4.202   6.473  16.169  0.2429  0.3848 -0.1731
 4643TIP3    H235345   4.218   6.364  16.065  0.7798 -0.1385  0.4480
 4644TIP3   OH235346   2.350   4.672  16.267 -0.4845 -0.6195 -0.2142
 4644TIP3    H135347   2.333   4.766  16.279 -0.5564 -0.8535  1.8931
 4644TIP3    H235348   2.264   4.631  16.275 -0.1873 -1.0287  1.0588
 4645TIP3   OH235349   5.010   1.087  10.919 -0.5025  0.8175 -0.4140
 4645TIP3    H135350   4.946   1.038  10.970 -0.5647  1.1868 -0.1356
 4645TIP3    H235351   5.057   1.020  10.869  0.4684  0.2966  1.1245
 4646TIP3   OH235352   3.376   0.661   1.939  0.2887 -0.0729  0.0337
 4646TIP3    H135353   3.439   0.717   1.984  2.6962 -1.9439 -0.8333
 4646TIP3    H235354   3.356   0.707   1.857 -1.5624  1.7379  1.3872
 4647TIP3   OH235355   2.261   4.670   0.236  0.1374 -0.1010 -0.1246
 4647TIP3    H135356   2.320   4.595   0.248 -0.5019 -0.6735 -0.5163
 4647TIP3    H235357   2.288   4.707   0.152 -0.7151 -0.9845 -0.8114
 4648TIP3   OH235358   2.882   0.620   2.523  0.1535 -0.3532 -0.0559
 4648TIP3    H135359   2.788   0.640   2.517  0.0839 -0.0657  1.4712
 4648TIP3    H235360   2.920   0.659   2.444 -0.5803  2.3098  0.7869
 4649TIP3   OH235361   3.504   4.228  12.377  0.3007  0.1119  0.1676
 4649TIP3    H135362   3.548   4.166  12.435  0.8616  1.2254  0.9812
 4649TIP3    H235363   3.509   4.312  12.424 -0.0638  0.8545 -1.0746
 4650TIP3   OH235364   4.606   6.002  14.464 -0.4484  0.3959  0.2498
 4650TIP3    H135365   4.649   6.008  14.379  1.9023  3.0637  1.4631
 4650TIP3    H235366   4.566   5.915  14.465  2.3132 -1.0784 -2.2643
 4651TIP3   OH235367   2.441   5.731  14.016 -0.5838  0.7016 -0.1754
 4651TIP3    H135368   2.512   5.785  14.051 -0.9446  0.4859  0.9287
 4651TIP3    H235369   2.484   5.669  13.958  0.4372 -0.7951  2.0589
 4652TIP3   OH235370   2.377   6.296  16.420 -0.5659 -0.2340  0.0444
 4652TIP3    H135371   2.289   6.332  16.429  0.1068  1.0763  1.7912
 4652TIP3    H235372   2.428   6.366  16.379 -0.0452 -0.4775  0.2618
 4653TIP3   OH235373   3.640   0.304   1.473  0.0150  0.5360  0.2040
 4653TIP3    H135374   3.712   0.328   1.416  0.1184 -0.9740 -0.3475
 4653TIP3    H235375   3.566   0.290   1.413  0.0750 -0.8689  0.4179
 4654TIP3   OH235376   5.212   1.680  11.448  1.0866  0.0875 -0.2439
 4654TIP3    H135377   5.300   1.717  11.456  2.0462 -1.9986 -0.4364
 4654TIP3    H235378   5.194   1.641  11.533  1.2634 -1.3154 -0.8171
 4655TIP3   OH235379   5.069   4.626   1.410  0.0832 -0.4963 -0.0970
 4655TIP3    H135380   5.076   4.632   1.505 -0.1203 -0.1393 -0.1038
 4655TIP3    H235381   5.094   4.535   1.390 -3.3206 -1.7166  0.6219
 4656TIP3   OH235382   1.550   4.619   5.883 -0.3258  0.0519 -0.2433
 4656TIP3    H135383   1.627   4.619   5.940 -0.4488  1.1090 -0.0530
 4656TIP3    H235384   1.516   4.708   5.889 -1.0445 -0.1564 -1.0337
 4657TIP3   OH235385   1.175   3.012  15.317 -0.0125  0.1332 -0.3024
 4657TIP3    H135386   1.267   3.014  15.291  0.3458  1.2631  0.9952
 4657TIP3    H235387   1.177   3.005  15.412 -1.2753  0.1235 -0.2638
 4658TIP3   OH235388   5.876   5.778  10.894 -0.3089 -0.2130 -0.3097
 4658TIP3    H135389   5.879   5.683  10.901  0.8344 -0.0615  2.9057
 4658TIP3    H235390   5.968   5.805  10.890 -0.4732  0.8153  1.6905
 4659TIP3   OH235391   0.214   1.818  10.400  0.0024 -0.1055  0.3507
 4659TIP3    H135392   0.265   1.772  10.333 -1.5894 -1.7751  0.2206
 4659TIP3    H235393   0.193   1.751  10.465 -0.7761  0.8728  1.1378
 4660TIP3   OH235394   5.225   5.280  15.679  0.2553 -0.0414  0.2391
 4660TIP3    H135395   5.285   5.346  15.714 -2.8435  2.2927  1.7211
 4660TIP3    H235396   5.181   5.324  15.606  1.2296 -2.1771 -1.7579
 4661TIP3   OH235397   0.341   2.746   4.866 -0.3927 -0.0369  0.5343
 4661TIP3    H135398   0.387   2.829   4.880  0.8569 -0.8687  1.6879
 4661TIP3    H235399   0.257   2.758   4.910 -1.0728  1.2758 -1.0195
 4662TIP3   OH235400   5.393   0.718   5.257  0.0667 -0.1966  0.3259
 4662TIP3    H135401   5.332   0.762   5.317 -0.4714 -0.1951 -0.2171
 4662TIP3    H235402   5.343   0.643   5.224  0.7629 -0.8676  0.7631
 4663TIP3   OH235403   0.594   0.218   3.492  0.0868  0.3118  0.1052
 4663TIP3    H135404   0.562   0.286   3.551  0.0844  0.7301 -0.3689
 4663TIP3    H235405   0.688   0.213   3.510  0.3000  1.2583 -0.6529
 4664TIP3   OH235406   3.118   4.935   2.115 -0.0266  0.6612  0.1669
 4664TIP3    H135407   3.052   4.911   2.181  1.6510 -0.5499  1.4733
 4664TIP3    H235408   3.095   4.882   2.038 -0.6919  0.4043  0.5338
 4665TIP3   OH235409   1.182   5.968   2.246  0.2647 -0.4000  0.2031
 4665TIP3    H135410   1.253   5.969   2.182  0.8021  0.1668  0.8001
 4665TIP3    H235411   1.124   5.897   2.216  1.7905 -1.8429  0.4860
 4666TIP3   OH235412   5.263   4.225   4.427  0.2976  0.0004 -0.4395
 4666TIP3    H135413   5.319   4.291   4.467  0.1575 -0.4051  0.4568
 4666TIP3    H235414   5.187   4.220   4.485  0.7752 -1.6724  0.1191
 4667TIP3   OH235415   2.899   2.480  10.556  0.2407  0.3379  0.4636
 4667TIP3    H135416   2.943   2.530  10.487  0.3900 -0.1328  0.2089
 4667TIP3    H235417   2.863   2.404  10.510 -3.2163  1.9808  0.0713
 4668TIP3   OH235418   3.093   1.567  12.993  0.0285  0.5908  0.0778
 4668TIP3    H135419   3.154   1.526  13.054 -0.6592 -1.1654 -0.3220
 4668TIP3    H235420   3.058   1.493  12.941  0.1563  1.9295 -2.0422
 4669TIP3   OH235421   5.055   5.749   4.900  1.0234  0.3592 -0.0068
 4669TIP3    H135422   5.123   5.795   4.949 -0.5315  0.8036  1.8533
 4669TIP3    H235423   5.066   5.657   4.925  0.5891  0.5123  0.8001
 4670TIP3   OH235424   4.557   2.455   6.120 -0.3370  0.2401 -0.0777
 4670TIP3    H135425   4.489   2.403   6.077  1.0519 -1.4458 -0.3428
 4670TIP3    H235426   4.537   2.446   6.214 -1.4593  1.2051 -0.2017
 4671TIP3   OH235427   1.311   5.500  16.682 -0.0790 -0.1520  0.1285
 4671TIP3    H135428   1.333   5.529  16.771  0.1672 -0.0790  0.0416
 4671TIP3    H235429   1.233   5.446  16.694 -1.0617  1.2208  0.2077
 4672TIP3   OH235430   0.652   5.706  12.802  0.5888 -0.2309  0.4103
 4672TIP3    H135431   0.599   5.682  12.877 -0.3413 -0.5059 -0.3086
 4672TIP3    H235432   0.608   5.783  12.765  1.0302 -0.1020  0.1478
 4673TIP3   OH235433   4.026   3.096  14.552 -0.4100 -0.2981 -0.2123
 4673TIP3    H135434   4.076   3.167  14.591  0.0137 -1.1615  0.8604
 4673TIP3    H235435   4.012   3.034  14.624 -0.9889 -1.1803 -1.0618
 4674TIP3   OH235436   6.492   5.831  15.608 -0.5391 -0.5215 -0.5545
 4674TIP3    H135437   6.484   5.780  15.528 -1.5421  1.1780 -1.6114
 4674TIP3    H235438   6.545   5.907  15.583 -1.7356  0.5611  0.0909
 4675TIP3   OH235439   4.517   4.719  16.369 -0.2331 -0.0206 -0.7114
 4675TIP3    H135440   4.611   4.724  16.352  0.2957  1.2582  2.1005
 4675TIP3    H235441   4.502   4.628  16.393  1.2948  0.5491  3.1885
 4676TIP3   OH235442   0.611   6.042  13.162 -0.5688  0.3630  0.3494
 4676TIP3    H135443   0.581   5.978  13.098 -0.6976 -0.1907  0.9515
 4676TIP3    H235444   0.692   6.077  13.125 -0.7024  0.1421 -0.1670
 4677TIP3   OH235445   4.112   1.057   1.713 -0.3068 -0.0742 -0.5183
 4677TIP3    H135446   4.025   1.088   1.739 -0.3087 -1.4623  1.3110
 4677TIP3    H235447   4.164   1.137   1.705 -0.9527  0.6168  1.5327
 4678TIP3   OH235448   2.665   2.112  13.201 -0.1456 -0.2519  0.0516
 4678TIP3    H135449   2.617   2.052  13.144  2.4204 -3.0241  0.5275
 4678TIP3    H235450   2.634   2.092  13.289 -1.1128  1.0184  0.0165
 4679TIP3   OH235451   4.429   4.935   5.963 -0.3632  0.3327  0.1480
 4679TIP3    H135452   4.454   4.994   6.035  2.2694 -0.4528 -0.0172
 4679TIP3    H235453   4.337   4.914   5.980 -0.1313  1.0485  2.6566
 4680TIP3   OH235454   6.325   6.527  15.900 -0.3532 -0.2191 -0.1159
 4680TIP3    H135455   6.321   6.501  15.992 -1.0083  0.6860  0.1215
 4680TIP3    H235456   6.409   6.573  15.891 -0.1193 -0.6367 -0.0617
 4681TIP3   OH235457   5.976   0.685   1.156  0.8186 -0.1519  0.0774
 4681TIP3    H135458   6.006   0.682   1.065 -0.1206  0.5655 -0.2707
 4681TIP3    H235459   6.044   0.638   1.205  3.0178  2.1477 -0.5311
 4682TIP3   OH235460   6.103   5.271   2.964  0.3763  0.1471  0.4153
 4682TIP3    H135461   6.121   5.361   2.937  1.9586 -0.3690 -0.3471
 4682TIP3    H235462   6.155   5.217   2.904 -1.4408 -1.3423  0.1034
 4683TIP3   OH235463   4.375   0.355  16.052  0.0499 -0.1020 -0.2735
 4683TIP3    H135464   4.351   0.354  16.145  1.2835 -0.2554  0.0581
 4683TIP3    H235465   4.351   0.443  16.022 -0.3049 -0.0323  0.2012
 4684TIP3   OH235466   2.610   1.629   4.303  0.8272 -0.0983  0.2929
 4684TIP3    H135467   2.537   1.609   4.362  0.3937  0.2032 -0.1212
 4684TIP3    H235468   2.641   1.544   4.273 -1.6877 -0.2902 -2.2771
 4685TIP3   OH235469   1.448   2.650   2.961 -0.0658 -0.0957  0.1983
 4685TIP3    H135470   1.538   2.685   2.961  0.4524 -1.3668  0.2936
 4685TIP3    H235471   1.413   2.675   2.876  0.4958  0.1511  0.0315
 4686TIP3   OH235472   1.661   0.451  16.210  0.1918 -0.0726  0.0064
 4686TIP3    H135473   1.703   0.366  16.225 -2.5606 -1.7284 -1.0638
 4686TIP3    H235474   1.581   0.449  16.263 -2.1790 -0.0759 -3.2947
 4687TIP3   OH235475   0.210   0.083  16.166 -0.0713  0.0633  0.2267
 4687TIP3    H135476   0.296   0.085  16.124  0.6546 -0.6572  1.6089
 4687TIP3    H235477   0.182   0.174  16.168  1.0793  0.4303  0.5742
 4688TIP3   OH235478   6.147   4.646  10.260  0.2445  0.4239  0.4132
 4688TIP3    H135479   6.060   4.683  10.276 -1.0866 -2.1536 -0.4102
 4688TIP3    H235480   6.180   4.626  10.347 -1.7868 -2.2927  0.6800
 4689TIP3   OH235481   2.950   4.251  12.141 -0.7531  0.0382  0.2079
 4689TIP3    H135482   2.911   4.337  12.126  0.5467  0.5924 -0.1240
 4689TIP3    H235483   3.032   4.269  12.186  0.4586 -0.8610 -1.5281
 4690TIP3   OH235484   5.107   1.919  11.408 -0.5057 -0.0541  0.1262
 4690TIP3    H135485   5.195   1.952  11.388 -0.2794 -0.9242 -0.3968
 4690TIP3    H235486   5.118   1.824  11.409 -1.5390 -0.1837 -0.3754
 4691TIP3   OH235487   6.477   5.694   0.267 -0.4194 -0.2348  0.3678
 4691TIP3    H135488   6.552   5.642   0.239 -0.0805  1.0870 -1.3551
 4691TIP3    H235489   6.442   5.646   0.342  0.4550 -2.3711 -0.4983
 4692TIP3   OH235490   0.425   5.853   5.721  0.2542 -0.1749 -0.3336
 4692TIP3    H135491   0.419   5.831   5.628 -0.8231  1.3004 -0.6467
 4692TIP3    H235492   0.477   5.782   5.759 -2.6758 -3.0800 -1.2835
 4693TIP3   OH235493   1.123   6.239   2.718 -0.6073  1.0735  0.0405
 4693TIP3    H135494   1.103   6.203   2.631 -2.5526  0.1372  0.8007
 4693TIP3    H235495   1.127   6.162   2.775 -1.5371  1.8030  1.1373
 4694TIP3   OH235496   1.342   1.908   4.405 -1.0093  0.4681  0.0524
 4694TIP3    H135497   1.389   1.930   4.485 -0.9519 -0.2376  0.2193
 4694TIP3    H235498   1.306   1.992   4.375 -1.6544  0.6359  1.2169
 4695TIP3   OH235499   3.008   4.070   1.267  0.1492 -0.1370 -0.4873
 4695TIP3    H135500   2.969   4.018   1.197  0.5976  0.5710 -1.2734
 4695TIP3    H235501   2.992   4.161   1.243  1.6454  0.1644 -0.4829
 4696TIP3   OH235502   2.725   1.414   5.012 -0.3648 -0.0908 -0.6576
 4696TIP3    H135503   2.770   1.497   5.031  1.7811 -1.1516 -0.7703
 4696TIP3    H235504   2.632   1.436   5.015 -0.0030  1.5820  2.8074
 4697TIP3   OH235505   4.307   5.024  11.976  0.0762 -0.1108  0.1429
 4697TIP3    H135506   4.242   5.093  11.962  0.3489  0.1287  0.0404
 4697TIP3    H235507   4.391   5.070  11.978  0.0379 -0.0112  3.2927
 4698TIP3   OH235508   3.171   2.917   6.368  0.0155 -0.1727  0.4023
 4698TIP3    H135509   3.144   2.833   6.404  0.9241 -0.6827 -0.0922
 4698TIP3    H235510   3.225   2.957   6.436 -2.2521  1.0742  1.6088
 4699TIP3   OH235511   4.702   3.478  16.155  0.1837  0.4636 -0.7048
 4699TIP3    H135512   4.632   3.442  16.101 -1.1880  0.3525  1.0542
 4699TIP3    H235513   4.768   3.410  16.157 -0.6630 -0.3765 -0.5798
 4700TIP3   OH235514   3.768   6.651   3.023 -0.7781  0.0010 -0.4094
 4700TIP3    H135515   3.841   6.700   3.061 -0.0968 -0.5976 -0.9048
 4700TIP3    H235516   3.717   6.621   3.098 -0.8942  0.9839 -0.0814
 4701TIP3   OH235517   0.273   5.236  15.119 -0.5553 -0.4475  0.1597
 4701TIP3    H135518   0.364   5.244  15.090 -0.5089 -1.4109  0.0199
 4701TIP3    H235519   0.277   5.242  15.215 -0.5637  1.3721  0.0879
 4702TIP3   OH235520   3.717   3.015   3.601  0.1939  0.1410 -0.4179
 4702TIP3    H135521   3.713   3.020   3.506  0.2822  0.0814 -0.4246
 4702TIP3    H235522   3.760   3.096   3.628 -0.5438  0.5355 -0.3787
 4703TIP3   OH235523   4.044   6.630  15.933  0.1131 -0.2891 -0.5792
 4703TIP3    H135524   4.106   6.668  15.996 -1.3620  0.6716  0.3522
 4703TIP3    H235525   4.000   6.560  15.981 -2.4740  1.7479  0.2709
 4704TIP3   OH235526   2.601   1.317  13.348 -0.7732  0.0974 -0.1004
 4704TIP3    H135527   2.654   1.325  13.268  2.7120  0.2915  1.9886
 4704TIP3    H235528   2.554   1.235  13.338  3.0840 -2.2915 -0.6233
 4705TIP3   OH235529   3.655   0.400  11.975 -0.3009 -0.6161  0.4774
 4705TIP3    H135530   3.734   0.356  12.005  1.4216  1.6678 -0.3812
 4705TIP3    H235531   3.648   0.376  11.882 -0.7602 -0.9874  0.6034
 4706TIP3   OH235532   3.080   4.588  10.445 -0.1774  0.0627 -0.0827
 4706TIP3    H135533   3.090   4.573  10.539 -1.1141  0.4562  0.0902
 4706TIP3    H235534   3.100   4.504  10.405 -0.3496 -0.2700  0.5170
 4707TIP3   OH235535   4.043   1.808   3.556  0.1044 -0.0903 -0.0646
 4707TIP3    H135536   3.984   1.883   3.564  0.2554  0.0817 -0.5082
 4707TIP3    H235537   4.078   1.795   3.644  1.9062  1.8691 -0.3995
 4708TIP3   OH235538   2.087   1.192  16.469  0.3305  0.3620 -0.0595
 4708TIP3    H135539   2.162   1.135  16.485 -0.8854 -1.9818 -2.0293
 4708TIP3    H235540   2.115   1.247  16.395  0.1922 -0.4105 -0.7004
 4709TIP3   OH235541   3.471   4.644  14.468  1.0722 -0.3746 -0.3389
 4709TIP3    H135542   3.528   4.595  14.526 -1.0128 -0.8500  1.4190
 4709TIP3    H235543   3.391   4.592  14.462  0.2695  0.9080 -1.6049
 4710TIP3   OH235544   5.210   6.556   3.329  0.3704  0.0406 -0.0106
 4710TIP3    H135545   5.290   6.518   3.293 -0.0588 -0.4855 -0.4252
 4710TIP3    H235546   5.164   6.590   3.252  0.2028  0.3640  0.2295
 4711TIP3   OH235547   1.741   3.778  14.840  0.4417  0.5270 -0.0950
 4711TIP3    H135548   1.709   3.866  14.857 -0.0014  0.0859  1.5194
 4711TIP3    H235549   1.836   3.785  14.848  0.5220  1.1013 -1.3044
 4712TIP3   OH235550   1.553   0.854  17.058 -0.3309 -0.6040 -0.1505
 4712TIP3    H135551   1.619   0.789  17.084  0.3671 -0.0573 -0.5159
 4712TIP3    H235552   1.544   0.842  16.963 -0.3103 -0.2651 -0.1951
 4713TIP3   OH235553   4.596   1.137  15.419 -0.4787  0.8446  0.1334
 4713TIP3    H135554   4.559   1.225  15.410 -1.2857  0.5862  0.8118
 4713TIP3    H235555   4.565   1.106  15.504  2.1008  0.9648  1.1920
 4714TIP3   OH235556   4.564   1.550   6.833 -0.5691 -0.0279 -0.0631
 4714TIP3    H135557   4.616   1.625   6.864 -0.9564  0.1623  0.1429
 4714TIP3    H235558   4.571   1.554   6.738  1.3834 -1.1521 -0.0142
 4715TIP3   OH235559   3.920   0.467   1.270  0.3002 -0.3957 -0.7705
 4715TIP3    H135560   3.929   0.428   1.183 -0.3185 -1.6888 -0.2879
 4715TIP3    H235561   3.971   0.409   1.327 -0.2416 -0.2304 -0.1035
 4716TIP3   OH235562   4.571   0.371   0.261 -0.5166 -0.3936  0.1479
 4716TIP3    H135563   4.662   0.346   0.246 -0.5454 -0.9556  0.8371
 4716TIP3    H235564   4.521   0.290   0.247 -1.0677  0.2166 -1.5464
 4717TIP3   OH235565   5.887   4.778  15.839 -0.2242  0.7011  0.2974
 4717TIP3    H135566   5.941   4.704  15.866  2.4986  2.0448 -1.1243
 4717TIP3    H235567   5.885   4.836  15.916  0.9978  0.9584  0.1487
 4718TIP3   OH235568   2.646   4.963  11.269  0.3996  0.5998  0.2564
 4718TIP3    H135569   2.587   4.943  11.196  1.8680  0.4154 -0.9119
 4718TIP3    H235570   2.679   4.878  11.296 -0.7546  0.5702  1.7381
 4719TIP3   OH235571   2.271   4.606  13.628  0.1967  0.2005 -0.2839
 4719TIP3    H135572   2.312   4.532  13.582 -2.9527 -1.1488 -1.1815
 4719TIP3    H235573   2.344   4.664  13.649  2.4586 -1.6850 -2.2878
 4720TIP3   OH235574   5.736   2.077   1.625 -0.0630  0.1911  0.4317
 4720TIP3    H135575   5.643   2.060   1.609 -0.2067  0.8332  0.5751
 4720TIP3    H235576   5.743   2.172   1.629  0.7259  0.1768 -0.2992
 4721TIP3   OH235577   1.262   2.042  15.093 -0.1034 -0.1493 -0.2644
 4721TIP3    H135578   1.281   2.136  15.093 -3.3901  0.6547  0.0870
 4721TIP3    H235579   1.184   2.034  15.148 -1.3190 -2.7241 -2.1689
 4722TIP3   OH235580   3.356   5.816   4.657  0.5837 -0.4540  0.4441
 4722TIP3    H135581   3.425   5.749   4.655 -0.4033 -1.5635 -2.1295
 4722TIP3    H235582   3.399   5.895   4.687  2.8192 -1.2952 -0.3567
 4723TIP3   OH235583   5.963   6.108   4.416  0.2754  0.7391  0.0684
 4723TIP3    H135584   5.896   6.167   4.385 -0.6943  0.8406  2.1558
 4723TIP3    H235585   6.041   6.129   4.364 -0.8648  1.6940 -1.3110
 4724TIP3   OH235586   3.627   0.538   2.988 -0.1839  0.4179  0.2813
 4724TIP3    H135587   3.634   0.464   2.928  0.1952  1.0850 -0.5100
 4724TIP3    H235588   3.534   0.547   3.004 -0.3017  0.3259 -0.3307
 4725TIP3   OH235589   3.538   1.087  15.136 -0.1817 -0.0552 -0.2521
 4725TIP3    H135590   3.589   1.021  15.090  2.5484  1.1709  0.7883
 4725TIP3    H235591   3.553   1.069  15.229  1.4631  2.4444  0.0886
 4726TIP3   OH235592   3.147   5.712   2.800 -0.2427 -0.1797  0.1436
 4726TIP3    H135593   3.128   5.738   2.890 -1.7328 -0.0774 -0.1682
 4726TIP3    H235594   3.218   5.769   2.773 -0.3928  0.4180  0.9662
 4727TIP3   OH235595   2.574   6.504  13.770 -0.1368  0.5910  0.2555
 4727TIP3    H135596   2.554   6.564  13.842 -1.1223  0.8540 -0.2161
 4727TIP3    H235597   2.596   6.421  13.814 -1.5758  0.4930  0.8747
 4728TIP3   OH235598   1.857   2.812  13.272  0.4499  0.5181  0.7866
 4728TIP3    H135599   1.916   2.736  13.270 -0.0616  0.1160  0.8731
 4728TIP3    H235600   1.893   2.867  13.342  1.1959  0.6712  0.2981
 4729TIP3   OH235601   6.337   0.129  10.877 -0.3455 -0.2983  0.9758
 4729TIP3    H135602   6.348   0.035  10.860 -2.1055 -0.2390 -0.8839
 4729TIP3    H235603   6.423   0.167  10.863  0.7036 -1.7509  2.9817
 4730TIP3   OH235604   6.196   2.155   4.530  1.0286 -0.4458 -0.4857
 4730TIP3    H135605   6.256   2.224   4.559  0.9241 -0.1164 -1.0560
 4730TIP3    H235606   6.120   2.163   4.588  0.7394  0.3332 -0.9588
 4731TIP3   OH235607   5.897   5.741  11.898 -0.0123  0.0427 -0.4115
 4731TIP3    H135608   5.892   5.770  11.807 -1.1138  1.3022  0.0032
 4731TIP3    H235609   5.978   5.690  11.903  0.6704  0.9066 -1.8358
 4732TIP3   OH235610   1.962   0.460   0.641 -0.0248 -0.0066  0.1020
 4732TIP3    H135611   1.960   0.371   0.677 -0.9719 -0.6688 -1.4841
 4732TIP3    H235612   2.045   0.465   0.594  0.6787  0.4691  1.3268
 4733TIP3   OH235613   1.102   2.730  10.992  0.0195  0.2551 -0.2419
 4733TIP3    H135614   1.008   2.735  11.007 -0.3985 -1.3139 -1.8629
 4733TIP3    H235615   1.122   2.636  10.999  2.0003  0.7467  2.6223
 4734TIP3   OH235616   4.242   0.507   3.118 -0.6680  0.2050 -0.6441
 4734TIP3    H135617   4.282   0.580   3.071  1.7868  1.0819  2.3970
 4734TIP3    H235618   4.284   0.429   3.083  1.4715  0.8707  0.3014
 4735TIP3   OH235619   1.960   1.036   4.910 -0.1458  0.3325  0.1786
 4735TIP3    H135620   2.017   0.998   4.843 -0.0906 -2.0723  1.4865
 4735TIP3    H235621   2.009   1.025   4.991 -1.3602  0.6753  0.9739
 4736TIP3   OH235622   3.960   2.363   5.148 -0.3666  0.2826 -0.0628
 4736TIP3    H135623   4.040   2.363   5.095  0.4062  0.7555  1.0590
 4736TIP3    H235624   3.909   2.290   5.114  0.4442  0.1066 -0.9499
 4737TIP3   OH235625   4.603   2.509  12.430 -0.0101 -0.2038  0.1509
 4737TIP3    H135626   4.660   2.452  12.379  0.8144  0.3375  0.4464
 4737TIP3    H235627   4.533   2.533  12.370 -0.8852 -2.2552  0.2989
 4738TIP3   OH235628   0.313   6.265  16.953  0.2165  0.8109  0.0110
 4738TIP3    H135629   0.402   6.250  16.984 -0.0573  0.3927  0.6059
 4738TIP3    H235630   0.285   6.345  16.998 -0.5281 -0.3220  1.6430
 4739TIP3   OH235631   3.712   4.907  13.900  0.1370 -0.2703  0.8546
 4739TIP3    H135632   3.754   4.877  13.981  2.0848  0.8959  0.3485
 4739TIP3    H235633   3.758   4.861  13.831  0.6599  1.0599  0.2741
 4740TIP3   OH235634   3.839   4.088  14.518  0.1604  0.2172  0.3582
 4740TIP3    H135635   3.931   4.069  14.535  0.3993  0.7666 -0.2409
 4740TIP3    H235636   3.812   4.021  14.455  0.2081  0.1820  0.3750
 4741TIP3   OH235637   5.753   6.539   2.134  0.5661  0.0167 -0.1549
 4741TIP3    H135638   5.676   6.487   2.112  0.1984  0.4977 -0.0032
 4741TIP3    H235639   5.822   6.474   2.147 -0.2411 -0.5629  1.5496
 4742TIP3   OH235640   2.603   6.562   1.641  0.2846 -0.0625  0.7141
 4742TIP3    H135641   2.684   6.556   1.591  1.6452  2.0266  2.4710
 4742TIP3    H235642   2.631   6.588   1.729 -2.1233 -1.7283  2.0912
 4743TIP3   OH235643   3.315   2.872  12.308  0.2689  0.1793 -0.2802
 4743TIP3    H135644   3.225   2.898  12.286  0.5126  0.9083 -0.4182
 4743TIP3    H235645   3.367   2.951  12.296  1.1458 -0.5376 -1.3757
 4744TIP3   OH235646   0.557   5.440  17.021  0.2726  0.1345 -0.0084
 4744TIP3    H135647   0.644   5.402  17.008  0.2238 -0.3047  0.8880
 4744TIP3    H235648   0.561   5.480  17.108 -0.1785  0.8099 -0.2860
 4745TIP3   OH235649   6.250   0.581  14.002  0.2065 -0.3690 -0.1379
 4745TIP3    H135650   6.212   0.544  14.082  0.8465  0.6934  0.6815
 4745TIP3    H235651   6.320   0.519  13.979  0.1869 -0.5519  0.2791
 4746TIP3   OH235652   2.339   6.612  16.811 -1.0117  0.0965  0.0950
 4746TIP3    H135653   2.292   6.570  16.883 -1.0353  1.2817  0.8037
 4746TIP3    H235654   2.426   6.630  16.846 -0.1493 -1.6254 -1.0477
 4747TIP3   OH235655   4.016   4.794   2.229  0.0489 -0.5016  0.0490
 4747TIP3    H135656   4.000   4.747   2.147  2.4014 -1.3758 -0.0038
 4747TIP3    H235657   4.041   4.882   2.201 -3.1866  0.5730  0.0999
 4748TIP3   OH235658   2.354   4.297   5.816  0.3009 -0.3206 -0.1954
 4748TIP3    H135659   2.387   4.386   5.830 -1.6782  0.4613 -0.1425
 4748TIP3    H235660   2.433   4.244   5.804  1.6698  1.0070  2.0365
 4749TIP3   OH235661   4.792   0.604   3.399 -0.0977 -0.1967 -0.5965
 4749TIP3    H135662   4.867   0.659   3.377  0.5928 -0.9876 -0.2889
 4749TIP3    H235663   4.778   0.619   3.492  0.3521 -0.8389 -0.4209
 4750TIP3   OH235664   3.388   1.391   5.812  0.2228 -0.3430 -0.2591
 4750TIP3    H135665   3.443   1.385   5.891 -1.2351 -1.6217  0.7226
 4750TIP3    H235666   3.384   1.301   5.779  0.0775  0.0312 -1.2927
 4751TIP3   OH235667   0.409   2.011  10.491  0.3157  0.6318 -0.2903
 4751TIP3    H135668   0.483   1.968  10.448  0.2956  2.0133 -1.8059
 4751TIP3    H235669   0.332   1.967  10.455  0.3341 -0.8884  1.3777
 4752TIP3   OH235670   3.635   3.045  15.858  0.4756  0.0578  0.1647
 4752TIP3    H135671   3.588   3.123  15.888  2.1022  0.3666  2.0918
 4752TIP3    H235672   3.708   3.079  15.807 -0.6950 -0.3860 -1.9168
 4753TIP3   OH235673   4.269   5.819   0.763  0.1594  0.3918  0.0490
 4753TIP3    H135674   4.362   5.800   0.776  0.2087 -0.9794 -1.8732
 4753TIP3    H235675   4.224   5.759   0.822  0.4736 -1.4470 -1.4958
 4754TIP3   OH235676   3.128   1.347   5.899  0.3078  0.3253 -0.9712
 4754TIP3    H135677   3.113   1.351   5.993 -2.4849 -1.4744 -1.2420
 4754TIP3    H235678   3.221   1.368   5.889  0.4469  1.6570  2.0392
 4755TIP3   OH235679   3.304   5.459   1.343 -0.0638 -0.0865  0.2548
 4755TIP3    H135680   3.235   5.494   1.286 -0.4143 -0.4273  0.4651
 4755TIP3    H235681   3.290   5.503   1.427 -0.2030 -0.3664  0.3790
 4756TIP3   OH235682   5.079   5.656  15.307 -0.4527 -0.2799 -0.2815
 4756TIP3    H135683   5.012   5.723  15.305 -0.3781 -0.1749  0.4579
 4756TIP3    H235684   5.134   5.675  15.231 -1.4825 -0.6165 -1.1333
 4757TIP3   OH235685   0.025   3.823   2.635  0.2671  0.4032  0.2203
 4757TIP3    H135686   0.112   3.791   2.657  0.1467  0.7126  1.2012
 4757TIP3    H235687  -0.034   3.774   2.694 -0.2872 -0.1972 -0.7995
 4758TIP3   OH235688   4.967   4.934  11.818 -0.0271  0.3646 -0.0139
 4758TIP3    H135689   4.999   4.846  11.797  1.9034  0.9932  0.0888
 4758TIP3    H235690   4.900   4.951  11.752  0.6770 -0.5785 -1.0213
 4759TIP3   OH235691   2.423   1.331  14.716 -0.5490  0.0846 -0.2398
 4759TIP3    H135692   2.485   1.348  14.646  0.4712  1.1797  0.8788
 4759TIP3    H235693   2.381   1.248  14.692  0.6660 -0.1971 -1.4985
 4760TIP3   OH235694   4.633   1.628   3.912 -0.2278  0.0478 -0.4836
 4760TIP3    H135695   4.671   1.711   3.883  0.3905 -0.4138 -1.0339
 4760TIP3    H235696   4.699   1.563   3.890  1.1120 -0.2040  3.5102
 4761TIP3   OH235697   5.666   0.285   3.766 -0.4278  0.4060 -0.4166
 4761TIP3    H135698   5.642   0.195   3.783 -0.1443  0.1523 -1.3022
 4761TIP3    H235699   5.755   0.280   3.732  0.7763  1.2684  2.3034
 4762TIP3   OH235700   4.498   3.975  12.902 -0.0603  0.6711 -0.2439
 4762TIP3    H135701   4.508   3.879  12.900  1.0682  0.7187  1.1000
 4762TIP3    H235702   4.482   3.995  12.994 -1.7689  1.6777 -0.7351
 4763TIP3   OH235703   6.072   1.290  15.634 -0.1883  0.2372  0.1592
 4763TIP3    H135704   6.151   1.264  15.586  0.3569  0.3238  0.9940
 4763TIP3    H235705   6.071   1.386  15.628  0.2757  0.2916  0.9343
 4764TIP3   OH235706   1.811   3.708   2.675 -0.0604  0.0787 -0.1256
 4764TIP3    H135707   1.775   3.621   2.659  1.6179 -0.4663 -1.3671
 4764TIP3    H235708   1.906   3.694   2.677  0.2084  1.7571  0.5579
 4765TIP3   OH235709   2.201   5.964   0.443  0.2941 -1.3773  0.0570
 4765TIP3    H135710   2.148   5.893   0.408 -0.6052  0.5096 -2.8334
 4765TIP3    H235711   2.292   5.935   0.431 -0.0656 -2.2683 -0.5940
 4766TIP3   OH235712   1.455   5.954   4.716 -0.1488 -0.5925  0.9799
 4766TIP3    H135713   1.421   5.948   4.806  0.6844 -1.8415  1.2415
 4766TIP3    H235714   1.444   5.866   4.681  0.2697 -0.3105  0.1166
 4767TIP3   OH235715   3.770   6.049  13.386  0.0216 -0.0262  0.1245
 4767TIP3    H135716   3.748   6.098  13.465 -2.9702  1.2086 -1.3403
 4767TIP3    H235717   3.726   5.964  13.398 -0.1404  0.0313 -0.0633
 4768TIP3   OH235718   1.236   1.874  12.211  0.1128 -0.7009 -0.2849
 4768TIP3    H135719   1.258   1.899  12.122 -1.7223 -0.0386 -0.5902
 4768TIP3    H235720   1.268   1.947  12.265  0.2592 -0.5970 -0.5139
 4769TIP3   OH235721   5.171   2.376   0.543 -0.3722  0.1227 -0.0302
 4769TIP3    H135722   5.248   2.391   0.487  0.1283 -0.7002  0.4051
 4769TIP3    H235723   5.097   2.373   0.482  0.1878 -0.9658 -0.6974
 4770TIP3   OH235724   0.252   5.603  14.395 -0.8531  0.1473  0.0629
 4770TIP3    H135725   0.336   5.636  14.428 -0.2781 -1.3030  0.1201
 4770TIP3    H235726   0.199   5.588  14.474 -1.1438  0.9481  0.0338
 4771TIP3   OH235727   6.258   2.972  13.552 -0.0960  0.1701  0.3860
 4771TIP3    H135728   6.316   2.974  13.628  2.0928 -0.5554 -1.1587
 4771TIP3    H235729   6.249   2.879  13.531 -0.4300  0.3629 -0.3777
 4772TIP3   OH235730   4.932   4.941   0.883 -0.1398 -0.2688 -0.1018
 4772TIP3    H135731   4.861   4.889   0.845 -1.8538  1.4298  0.6013
 4772TIP3    H235732   4.970   4.987   0.809 -2.1096  1.4426 -0.1481
 4773TIP3   OH235733   4.624   5.328   1.215  0.2558 -0.3663  0.4675
 4773TIP3    H135734   4.601   5.237   1.234 -1.4097  0.0259  0.4515
 4773TIP3    H235735   4.720   5.327   1.207  0.4825 -1.7404  2.5191
 4774TIP3   OH235736   3.341   1.634  11.990 -0.3961 -0.2918  0.2412
 4774TIP3    H135737   3.331   1.723  11.958  0.1222 -0.6500 -1.0151
 4774TIP3    H235738   3.391   1.590  11.921  0.1303 -1.3177  1.2422
 4775TIP3   OH235739   4.550   1.646   0.384  0.3064  0.0280 -0.8607
 4775TIP3    H135740   4.560   1.714   0.450  0.1198  1.1641 -1.9564
 4775TIP3    H235741   4.537   1.565   0.433  2.1113  0.5141  0.5058
 4776TIP3   OH235742   5.105   0.602  14.702  0.0959 -0.5064 -0.4225
 4776TIP3    H135743   5.181   0.582  14.756 -0.7249 -0.3125  0.8437
 4776TIP3    H235744   5.034   0.549  14.739 -0.9697  1.1493  0.0201
 4777TIP3   OH235745   0.175   2.755   3.739  0.0098 -0.2971 -0.3976
 4777TIP3    H135746   0.155   2.849   3.731  1.5440  0.0462 -0.4316
 4777TIP3    H235747   0.090   2.712   3.729 -0.5546  1.0211 -1.6140
 4778TIP3   OH235748   0.433   4.998  16.308  0.5261  0.0418 -0.1830
 4778TIP3    H135749   0.478   4.970  16.229  0.2432 -0.3198 -0.2127
 4778TIP3    H235750   0.494   5.060  16.349  1.0726 -0.4751 -0.2058
 4779TIP3   OH235751   3.134   5.937  11.954  0.3164  0.3376  0.3645
 4779TIP3    H135752   3.181   5.908  12.032 -0.2245  0.0093  0.5682
 4779TIP3    H235753   3.070   6.000  11.987  0.8906  1.1234  0.0325
 4780TIP3   OH235754   0.689   5.132  15.815 -0.3508  0.2300  0.6981
 4780TIP3    H135755   0.691   5.096  15.904 -0.0724  0.0070  0.6011
 4780TIP3    H235756   0.683   5.227  15.828  1.0779  0.3045  0.9647
 4781TIP3   OH235757   2.801   1.894   0.732  0.4425  0.1246  0.1610
 4781TIP3    H135758   2.820   1.822   0.672 -1.0598 -1.7985  1.8731
 4781TIP3    H235759   2.706   1.906   0.727  0.4121  0.5879  1.4116
 4782TIP3   OH235760   6.621   1.730  14.282 -0.3571 -0.4257  0.7415
 4782TIP3    H135761   6.534   1.750  14.249  0.1880  0.0571 -0.4581
 4782TIP3    H235762   6.624   1.772  14.368 -0.3676  1.9809 -0.3627
 4783TIP3   OH235763   5.379   1.843   4.203  0.1560 -0.0093 -0.2857
 4783TIP3    H135764   5.404   1.927   4.242 -1.6951  1.6143 -2.3765
 4783TIP3    H235765   5.330   1.799   4.273  0.7757  0.8075  0.7040
 4784TIP3   OH235766   1.954   2.051  11.711  0.4384 -0.2032  0.6214
 4784TIP3    H135767   1.901   2.104  11.651  2.9251  0.9186 -0.7535
 4784TIP3    H235768   2.013   2.114  11.753  0.8259 -1.4031  1.9704
 4785TIP3   OH235769   3.614   0.612  16.617  0.2188 -0.2858 -0.0334
 4785TIP3    H135770   3.546   0.544  16.613 -0.5853  0.5588 -0.9946
 4785TIP3    H235771   3.695   0.565  16.595  0.3672 -1.7334  2.9690
 4786TIP3   OH235772   5.232   4.156   5.650 -0.0857  0.2469  0.0467
 4786TIP3    H135773   5.224   4.076   5.597 -0.7738  0.6831 -0.5424
 4786TIP3    H235774   5.314   4.145   5.697  0.3441 -0.3585 -0.7940
 4787TIP3   OH235775   3.775   3.856  12.697  0.5935 -0.0667  0.0157
 4787TIP3    H135776   3.735   3.918  12.757  1.6995  1.3660 -0.6622
 4787TIP3    H235777   3.756   3.770  12.735  0.8539  0.7647  2.1640
 4788TIP3   OH235778   4.333   1.738   1.021  0.3507  0.4863  0.0599
 4788TIP3    H135779   4.398   1.807   1.024  1.9291 -0.8957 -0.8999
 4788TIP3    H235780   4.272   1.760   1.092  0.6085  2.9809 -0.4113
 4789TIP3   OH235781   6.440   2.475   0.459  0.3575  0.1818 -0.0523
 4789TIP3    H135782   6.453   2.567   0.482  1.6812 -0.0207  0.0815
 4789TIP3    H235783   6.485   2.426   0.528  0.0076 -0.5719 -0.3381
 4790TIP3   OH235784   4.480   5.523   0.815 -0.6353 -0.2485 -0.6820
 4790TIP3    H135785   4.431   5.582   0.872 -1.9063 -0.7175 -1.2590
 4790TIP3    H235786   4.498   5.576   0.737  0.7184  0.2520 -0.0601
 4791TIP3   OH235787   1.407   6.514  15.220 -0.4095  0.8450  0.5848
 4791TIP3    H135788   1.366   6.447  15.275 -1.6879 -0.0033 -1.3063
 4791TIP3    H235789   1.493   6.479  15.199 -1.1038 -0.3025 -0.4595
 4792TIP3   OH235790   0.713   6.000   5.837  0.3929  0.5558 -0.1524
 4792TIP3    H135791   0.792   6.046   5.864  0.6747 -0.1874  0.3055
 4792TIP3    H235792   0.729   5.908   5.859 -1.1080  0.5610  1.1955
 4793TIP3   OH235793   4.346   4.680  16.107 -0.3648 -0.4847 -0.5350
 4793TIP3    H135794   4.331   4.586  16.118  0.3553 -0.3994  1.6376
 4793TIP3    H235795   4.440   4.690  16.119 -0.5357  0.5807  0.0174
 4794TIP3   OH235796   4.162   5.482  13.598 -0.1935  0.1342 -0.3654
 4794TIP3    H135797   4.098   5.456  13.532  0.0940  0.4201 -0.7607
 4794TIP3    H235798   4.114   5.480  13.680 -0.9826  1.3135 -0.7738
 4795TIP3   OH235799   4.556   6.423   2.331 -0.3571 -0.0187  0.2664
 4795TIP3    H135800   4.605   6.481   2.389 -2.5443  0.0490  2.2237
 4795TIP3    H235801   4.487   6.479   2.295  0.5079 -0.2506 -1.8945
 4796TIP3   OH235802   0.577   3.897  11.915  0.3953  0.4697 -0.0093
 4796TIP3    H135803   0.564   3.834  11.986  0.4363  2.2016  1.6390
 4796TIP3    H235804   0.495   3.947  11.912  1.3774  2.2507  0.8116
 4797TIP3   OH235805   6.415   2.428   5.824  0.0298  0.6858  0.3136
 4797TIP3    H135806   6.429   2.380   5.742  0.6344 -1.6803  1.7115
 4797TIP3    H235807   6.335   2.391   5.861 -0.2799  1.7814  0.8038
 4798TIP3   OH235808   1.295   1.365  14.090 -0.2576  0.4519  0.2744
 4798TIP3    H135809   1.332   1.286  14.049  0.5541  0.5277  0.8349
 4798TIP3    H235810   1.290   1.428  14.018  0.1138  0.2317  0.0512
 4799TIP3   OH235811   1.559   3.228  16.441  0.0217 -0.7572 -0.0764
 4799TIP3    H135812   1.574   3.322  16.429  1.3498 -0.7707  1.1836
 4799TIP3    H235813   1.599   3.188  16.365 -1.6120 -0.2822 -1.2538
 4800TIP3   OH235814   3.118   6.297  12.310  0.3668 -0.0394  0.0976
 4800TIP3    H135815   3.197   6.347  12.286 -0.5143  1.9887  1.1845
 4800TIP3    H235816   3.074   6.352  12.375 -1.2944 -1.7387  0.4823
 4801TIP3   OH235817   0.268   2.083   4.284 -0.0076 -0.5736 -0.0359
 4801TIP3    H135818   0.271   2.068   4.189  1.2191  1.6733 -0.4234
 4801TIP3    H235819   0.192   2.140   4.297  0.5909  0.2064  0.1198
 4802TIP3   OH235820   0.994   2.785   3.664 -0.1536  0.3203  0.0916
 4802TIP3    H135821   1.055   2.848   3.626 -0.2241  0.3914  0.0963
 4802TIP3    H235822   0.909   2.828   3.658 -0.3769 -0.2301 -0.9449
 4803TIP3   OH235823   2.693   2.281  15.289 -0.6643  0.5780 -0.7588
 4803TIP3    H135824   2.717   2.226  15.214 -0.8483  0.1585 -0.5159
 4803TIP3    H235825   2.775   2.321  15.316 -0.3301 -0.3917 -0.2950
 4804TIP3   OH235826   1.103   5.082  12.467  0.2093  0.5613  0.4668
 4804TIP3    H135827   1.140   5.154  12.519  0.2131  0.0867  1.1458
 4804TIP3    H235828   1.020   5.062  12.511 -2.9304  4.0150 -3.0592
 4805TIP3   OH235829   2.917   4.896   0.165  0.1331  0.4734 -0.7608
 4805TIP3    H135830   2.870   4.864   0.242 -1.0337  2.2492 -0.6538
 4805TIP3    H235831   2.917   4.822   0.104  1.0235 -0.9412  0.8826
 4806TIP3   OH235832   4.855   3.752   1.163  0.4669 -0.0096 -0.4402
 4806TIP3    H135833   4.853   3.799   1.079 -0.3747  1.2490  0.2465
 4806TIP3    H235834   4.883   3.819   1.226  1.5947 -1.0707  0.2234
 4807TIP3   OH235835   1.224   0.241   5.669  0.3195  0.2138 -0.2726
 4807TIP3    H135836   1.145   0.199   5.635  0.1258  0.6914 -0.4186
 4807TIP3    H235837   1.241   0.313   5.608  0.9760 -0.0030 -0.3512
 4808TIP3   OH235838   6.230   4.515   5.525 -0.1704  0.2921  0.1025
 4808TIP3    H135839   6.280   4.520   5.606 -0.8548 -1.1651  0.6619
 4808TIP3    H235840   6.145   4.479   5.552 -0.8202  0.8956 -1.0947
 4809TIP3   OH235841   2.086   1.382   0.821  0.2319 -0.3195 -0.1089
 4809TIP3    H135842   2.149   1.327   0.774  0.0009  0.0150 -0.8139
 4809TIP3    H235843   2.116   1.472   0.804 -1.0145 -0.0961 -1.3202
 4810TIP3   OH235844   2.330   0.912   5.469 -0.2401 -0.1146  0.2957
 4810TIP3    H135845   2.344   1.001   5.436  1.0447 -0.8614 -1.2647
 4810TIP3    H235846   2.250   0.882   5.425  0.0890 -0.2220 -0.2270
 4811TIP3   OH235847   6.764   0.488   0.145 -0.1885 -0.7376 -0.1049
 4811TIP3    H135848   6.775   0.541   0.224  0.0724 -1.6035  0.4540
 4811TIP3    H235849   6.824   0.414   0.157 -0.7443 -1.3078 -0.7385
 4812TIP3   OH235850   2.852   0.072  14.386  0.1856 -0.6685 -0.2119
 4812TIP3    H135851   2.785   0.140  14.392  0.9035 -0.0463  0.8635
 4812TIP3    H235852   2.863   0.058  14.292 -0.5846  0.0719 -0.4253
 4813TIP3   OH235853   1.264   4.749  11.210 -0.5246  0.3814  0.4020
 4813TIP3    H135854   1.194   4.683  11.206 -1.7838  1.6825  0.0766
 4813TIP3    H235855   1.328   4.720  11.146 -2.1005  0.5951 -1.3448
 4814TIP3   OH235856   2.421   5.422   5.650  0.4158  0.2073 -0.3869
 4814TIP3    H135857   2.517   5.428   5.657  0.3474 -0.2889  1.3728
 4814TIP3    H235858   2.397   5.500   5.599  1.7350  0.4143 -0.7589
 4815TIP3   OH235859   5.237   6.268   4.004 -0.6736  0.2707 -0.6058
 4815TIP3    H135860   5.333   6.274   4.005 -0.6962  0.6300  1.0781
 4815TIP3    H235861   5.215   6.216   4.081 -1.7934 -0.9313 -1.6912
 4816TIP3   OH235862   3.140   2.749   6.615 -0.1919 -0.9600  0.1064
 4816TIP3    H135863   3.056   2.771   6.574  0.3053 -2.5824 -1.9883
 4816TIP3    H235864   3.127   2.768   6.708 -2.1999  0.6799 -0.4284
 4817TIP3   OH235865   2.126   2.230   4.597  0.8846 -0.2061  0.3389
 4817TIP3    H135866   2.146   2.158   4.537  2.4156  0.9639 -0.6482
 4817TIP3    H235867   2.126   2.190   4.684 -0.2999 -1.7396 -0.3057
 4818TIP3   OH235868   5.297   4.856   2.474  0.2875  0.1411  0.6439
 4818TIP3    H135869   5.270   4.765   2.472  0.4682  0.0885  0.5344
 4818TIP3    H235870   5.291   4.885   2.383 -0.3142  0.4013  0.7643
 4819TIP3   OH235871   6.046   0.514   5.127  0.5701  0.4495 -0.5483
 4819TIP3    H135872   6.077   0.449   5.190  0.5075 -0.5341 -1.5032
 4819TIP3    H235873   6.026   0.591   5.181  0.2407 -0.4479  0.6731
 4820TIP3   OH235874   5.435   3.494   4.799  0.7315  0.0447  0.6644
 4820TIP3    H135875   5.508   3.491   4.862  1.7776 -0.6848 -0.5416
 4820TIP3    H235876   5.381   3.418   4.822  0.4506  0.4607  1.4216
 4821TIP3   OH235877   6.154   6.607   2.982 -0.2880 -0.0980  0.0834
 4821TIP3    H135878   6.240   6.648   2.978 -0.8970  1.2900  0.5059
 4821TIP3    H235879   6.159   6.546   3.055  0.8035 -1.2518 -0.8975
 4822TIP3   OH235880   1.096   5.663   0.687  0.3825  0.2672 -0.0004
 4822TIP3    H135881   1.168   5.715   0.651 -0.1782  1.3333  0.3717
 4822TIP3    H235882   1.047   5.724   0.741  0.1834 -0.8704  1.1574
 4823TIP3   OH235883   5.805   3.156   2.866 -0.1951 -0.5128  0.1744
 4823TIP3    H135884   5.873   3.221   2.849 -0.0079 -0.8874 -0.5631
 4823TIP3    H235885   5.740   3.201   2.920 -0.3228  0.4413 -0.7612
 4824TIP3   OH235886   0.009   6.784  15.697  0.4150 -0.0708  0.1613
 4824TIP3    H135887  -0.036   6.865  15.672  0.4701  0.1945  0.8918
 4824TIP3    H235888  -0.040   6.715  15.653 -0.5811  0.2332  0.7658
 4825TIP3   OH235889   1.284   0.389   0.257  0.1769 -0.3418 -0.2891
 4825TIP3    H135890   1.256   0.354   0.341  1.9264 -1.3434 -0.0885
 4825TIP3    H235891   1.205   0.430   0.221 -0.7825 -0.5326  1.4910
 4826TIP3   OH235892   5.775   3.957   3.237 -0.0132  0.1827  0.3493
 4826TIP3    H135893   5.698   3.997   3.196  0.8873 -0.4748 -2.2161
 4826TIP3    H235894   5.830   4.031   3.262 -0.4906  0.6141  0.1468
 4827TIP3   OH235895   3.919   0.418  11.030 -0.3105 -0.3707  0.4136
 4827TIP3    H135896   3.964   0.433  11.113 -0.5531 -0.9447  0.6539
 4827TIP3    H235897   3.987   0.384  10.972 -0.2457 -0.4346  0.5256
 4828TIP3   OH235898   1.381   6.778   1.804  0.4643  0.3937  0.3015
 4828TIP3    H135899   1.394   6.684   1.789 -0.8714  0.3222 -0.5754
 4828TIP3    H235900   1.328   6.783   1.884 -1.2565  0.2580 -0.7732
 4829TIP3   OH235901   3.862   6.653   5.540  0.4079 -0.0478  0.0747
 4829TIP3    H135902   3.812   6.714   5.594 -0.2872  1.8123 -2.4588
 4829TIP3    H235903   3.831   6.669   5.451  1.0905 -3.3032 -0.8884
 4830TIP3   OH235904   4.597   5.481   3.412  0.2356  0.1912 -0.1790
 4830TIP3    H135905   4.671   5.422   3.423 -0.0743 -0.5941 -1.9661
 4830TIP3    H235906   4.548   5.473   3.494  1.5218 -0.1175  0.5863
 4831TIP3   OH235907   1.440   2.563  12.635  0.3088  0.4650 -0.3351
 4831TIP3    H135908   1.458   2.470  12.651 -0.1636  0.4910  0.4131
 4831TIP3    H235909   1.521   2.597  12.596  1.3643  0.2422  1.5349
 4832TIP3   OH235910   1.054   6.551   3.389 -0.3642  0.6392 -0.4001
 4832TIP3    H135911   1.022   6.517   3.305  0.0720 -0.1139 -0.2738
 4832TIP3    H235912   1.105   6.479   3.425 -1.4093  0.5626  0.9968
 4833TIP3   OH235913   0.148   6.800  11.432  0.1339  0.0135 -0.3083
 4833TIP3    H135914   0.071   6.762  11.389  1.0776  0.6201 -2.6947
 4833TIP3    H235915   0.129   6.893  11.437  0.0266 -0.0489  0.7074
 4834TIP3   OH235916   3.653   4.773   6.041 -0.4888  0.1719  0.5063
 4834TIP3    H135917   3.747   4.773   6.021 -0.2369 -0.5520  1.5929
 4834TIP3    H235918   3.633   4.864   6.063  0.2108  0.1567  1.2852
 4835TIP3   OH235919   2.192   6.652  11.667  0.1506 -0.5368  0.0456
 4835TIP3    H135920   2.194   6.679  11.759  0.3128 -0.4491  0.0148
 4835TIP3    H235921   2.233   6.724  11.619 -1.2793  0.1260 -0.2693
 4836TIP3   OH235922   3.757   3.938   1.677 -0.1595 -0.2600 -0.1728
 4836TIP3    H135923   3.756   4.025   1.637 -0.8173  0.1001  0.5827
 4836TIP3    H235924   3.679   3.895   1.643 -0.3345 -0.2097  0.1533
 4837TIP3   OH235925   0.083   3.219   1.105 -0.1671 -0.1911  0.0682
 4837TIP3    H135926   0.111   3.293   1.159 -0.7732 -0.9848  1.5249
 4837TIP3    H235927   0.075   3.255   1.017 -1.7060  1.8149  0.9495
 4838TIP3   OH235928   5.519   2.891  16.943 -0.0364  0.3017 -0.1844
 4838TIP3    H135929   5.607   2.906  16.979 -0.5578  1.9731  0.5106
 4838TIP3    H235930   5.505   2.965  16.883 -0.7094 -0.3306 -0.8249
 4839TIP3   OH235931   1.678   6.799   2.266 -0.0423 -0.0059 -0.0075
 4839TIP3    H135932   1.762   6.787   2.309  0.7441  0.2409 -1.4212
 4839TIP3    H235933   1.690   6.762   2.179 -0.8731  1.4987 -0.8096
 4840TIP3   OH235934   0.036   4.243   1.219 -0.1793  0.0845  0.2203
 4840TIP3    H135935   0.111   4.300   1.202  0.1373 -0.1163  0.8992
 4840TIP3    H235936  -0.034   4.278   1.164  0.8340 -0.6633 -1.6088
 4841TIP3   OH235937   3.279   3.322   0.671  0.9271 -0.0252 -0.1355
 4841TIP3    H135938   3.194   3.288   0.642  1.5614 -1.2812 -0.5751
 4841TIP3    H235939   3.269   3.335   0.765  0.3966 -0.6269 -0.1047
 4842TIP3   OH235940   3.591   2.116   4.262  0.0395  0.1587 -0.5174
 4842TIP3    H135941   3.544   2.039   4.228  0.4797  0.7873 -2.7370
 4842TIP3    H235942   3.612   2.167   4.184  1.4904  1.5624  0.7256
 4843TIP3   OH235943   1.462   5.242  13.063 -0.2093 -0.3342  0.1108
 4843TIP3    H135944   1.407   5.184  13.117  0.2920  0.4630  1.5343
 4843TIP3    H235945   1.414   5.250  12.981 -1.7773 -0.3926  0.9813
 4844TIP3   OH235946   1.652   4.279  13.040  0.4435  0.3566  0.7430
 4844TIP3    H135947   1.693   4.217  13.100  0.0447 -0.3486  0.3038
 4844TIP3    H235948   1.569   4.302  13.081  0.2672  0.0387  0.5685
 4845TIP3   OH235949   4.450   3.868  12.627  0.1214 -0.1069 -0.0058
 4845TIP3    H135950   4.499   3.840  12.704 -0.0170 -0.5471 -0.0773
 4845TIP3    H235951   4.446   3.791  12.571 -2.2198 -0.6647  0.8052
 4846TIP3   OH235952   2.502   0.760  16.563 -0.3882 -0.1188  0.2273
 4846TIP3    H135953   2.520   0.733  16.653  0.3714 -1.4225 -0.2824
 4846TIP3    H235954   2.412   0.731  16.547 -0.8307  0.8890  0.8268
 4847TIP3   OH235955   5.788   4.006   0.506 -0.2222  0.1226 -0.8391
 4847TIP3    H135956   5.803   3.997   0.412  2.4659 -0.1222 -0.4604
 4847TIP3    H235957   5.837   4.084   0.531  1.7441 -1.5027  0.7963
 4848TIP3   OH235958   0.793   2.588  16.981 -0.2848 -0.5647 -0.2420
 4848TIP3    H135959   0.705   2.615  17.008 -0.3396 -1.0182  0.0531
 4848TIP3    H235960   0.840   2.670  16.967 -0.2378 -0.2914  1.3313
 4849TIP3   OH235961   5.448   5.834  16.287 -0.3773 -0.0847  0.2731
 4849TIP3    H135962   5.418   5.743  16.289 -1.2853  0.2227  1.1257
 4849TIP3    H235963   5.530   5.831  16.238 -0.1894 -1.4262  0.6372
 4850TIP3   OH235964   0.164   0.530  15.737  0.0279  0.1354 -0.3723
 4850TIP3    H135965   0.115   0.479  15.802 -1.2225 -0.2673 -1.5960
 4850TIP3    H235966   0.098   0.563  15.677  0.9995  1.8376 -0.5754
 4851TIP3   OH235967   5.046   1.427  10.787  0.1376 -0.0711 -0.4153
 4851TIP3    H135968   4.976   1.411  10.850 -0.7068  0.1812 -1.2603
 4851TIP3    H235969   5.000   1.458  10.708  1.2508  0.7510 -0.7604
 4852TIP3   OH235970   0.999   6.516   2.194 -0.4211  0.5101  0.3134
 4852TIP3    H135971   0.940   6.520   2.118 -0.9051 -0.9354  0.5732
 4852TIP3    H235972   1.059   6.445   2.173  0.5198  1.2114  0.5657
 4853TIP3   OH235973   0.630   4.427  16.516 -0.0169  0.4390 -0.4208
 4853TIP3    H135974   0.694   4.499  16.516 -0.1178  0.5454  0.8353
 4853TIP3    H235975   0.682   4.348  16.501  0.2611  0.6364 -0.5058
 4854TIP3   OH235976   5.690   4.637  16.628  0.6137  0.6539 -0.1929
 4854TIP3    H135977   5.767   4.693  16.613  0.4466  0.5434 -1.5261
 4854TIP3    H235978   5.618   4.682  16.585  0.5758 -0.8190 -1.7485
 4855TIP3   OH235979   3.410   0.026   0.475 -0.3559  0.0262  0.2146
 4855TIP3    H135980   3.321  -0.003   0.490 -0.5536  0.4599 -0.0754
 4855TIP3    H235981   3.457   0.004   0.555 -0.6660 -0.4190  0.2750
 4856TIP3   OH235982   0.625   5.827   2.380 -0.5506  0.0676  0.2064
 4856TIP3    H135983   0.620   5.899   2.442 -0.6018  0.3071 -0.0733
 4856TIP3    H235984   0.537   5.788   2.382  0.0666 -1.4057  2.0200
 4857TIP3   OH235985   3.925   6.235  11.128 -0.4762  0.3015  0.6185
 4857TIP3    H135986   3.913   6.325  11.158 -1.3654  0.1484  0.7459
 4857TIP3    H235987   3.878   6.231  11.045 -1.9535 -0.5068  1.4595
 4858TIP3   OH235988   1.560   4.986  14.198 -0.6523  0.0043 -0.2543
 4858TIP3    H135989   1.496   5.021  14.261 -0.9780 -0.2045 -0.4673
 4858TIP3    H235990   1.644   4.997  14.242 -0.8982 -0.3505  0.3178
 4859TIP3   OH235991   6.175   0.666  11.824 -0.0401 -0.2436 -0.5105
 4859TIP3    H135992   6.248   0.683  11.764 -0.9420  1.5638 -1.1615
 4859TIP3    H235993   6.128   0.594  11.783 -0.0105  0.2312 -1.4124
 4860TIP3   OH235994   1.423   5.699   4.628 -0.0900  0.1383  0.5449
 4860TIP3    H135995   1.414   5.723   4.536 -2.6915 -0.5915  0.5315
 4860TIP3    H235996   1.469   5.615   4.626  1.1538  0.8060  0.0428
 4861TIP3   OH235997   5.991   2.278  16.091 -0.3863  0.5845 -0.1441
 4861TIP3    H135998   6.003   2.309  16.181  0.6217 -2.9805  1.0966
 4861TIP3    H235999   6.075   2.239  16.067 -1.9604 -2.8007 -0.7230
 4862TIP3   OH236000   1.032   4.746  11.951 -0.2380  0.0362 -0.3790
 4862TIP3    H136001   0.945   4.785  11.962 -0.0700  0.8024 -1.5450
 4862TIP3    H236002   1.086   4.789  12.017 -0.8722 -0.9475  0.8268
 4863TIP3   OH236003   6.473   4.425   2.300  0.1880  0.1112  0.2408
 4863TIP3    H136004   6.555   4.463   2.334  1.0192  1.1850 -2.6846
 4863TIP3    H236005   6.467   4.457   2.210 -1.8749 -2.4981 -0.6767
 4864TIP3   OH236006   5.051   0.962  13.490 -0.4899  0.3925  0.1121
 4864TIP3    H136007   5.126   0.975  13.549  0.6649  2.5602 -1.6882
 4864TIP3    H236008   4.976   0.950  13.548  0.9130  0.2791  1.9879
 4865TIP3   OH236009   2.496   1.839   4.120  0.3073  1.0571 -0.1046
 4865TIP3    H136010   2.531   1.782   4.188 -0.0505 -0.8784 -1.4748
 4865TIP3    H236011   2.415   1.874   4.157 -1.2136 -1.9154 -0.3229
 4866TIP3   OH236012   0.578   4.603  13.320 -0.3495 -0.1755  0.4506
 4866TIP3    H136013   0.526   4.678  13.348  1.9452  1.2947  1.0585
 4866TIP3    H236014   0.556   4.534  13.383 -0.5367  0.8480  1.5441
 4867TIP3   OH236015   0.289   3.189   3.751  0.3349 -0.1669 -0.0903
 4867TIP3    H136016   0.315   3.272   3.790 -0.3751  0.6061 -1.2156
 4867TIP3    H236017   0.261   3.136   3.825 -0.3884  1.0393  0.5290
 4868TIP3   OH236018   0.084   5.053  16.216  0.2731 -0.1726  0.8603
 4868TIP3    H136019   0.162   5.093  16.254  0.2516 -0.0186  0.7466
 4868TIP3    H236020   0.046   5.001  16.286  0.9147 -0.8951  0.6924
 4869TIP3   OH236021   2.170   2.367   6.293 -0.3476 -0.1883 -0.6872
 4869TIP3    H136022   2.251   2.318   6.284  0.5163  1.3964 -2.1640
 4869TIP3    H236023   2.197   2.458   6.307 -1.8213  0.4891 -1.8939
 4870TIP3   OH236024   2.130   3.220   5.676  0.0920  0.4448  0.2222
 4870TIP3    H136025   2.039   3.206   5.701 -0.2971 -0.3553 -1.4778
 4870TIP3    H236026   2.126   3.277   5.599  0.8715 -0.9848 -0.9356
 4871TIP3   OH236027   3.150   6.684   1.605 -0.9160  0.6654  0.4607
 4871TIP3    H136028   3.184   6.687   1.515 -2.7687  0.7548 -0.2843
 4871TIP3    H236029   3.103   6.600   1.609 -0.3788  0.4026  1.5499
 4872TIP3   OH236030   0.236   1.277  15.637  0.4684  0.7958  0.0100
 4872TIP3    H136031   0.177   1.317  15.573  1.5886 -2.9372 -3.7853
 4872TIP3    H236032   0.180   1.219  15.689  0.1580  0.4736 -0.6733
 4873TIP3   OH236033   5.366   5.351   5.002  0.0656 -0.0618 -0.3240
 4873TIP3    H136034   5.369   5.402   5.083  0.6433  0.7083 -0.8146
 4873TIP3    H236035   5.326   5.268   5.027 -1.8651  0.9955  0.3051
 4874TIP3   OH236036   0.103   0.422  12.357 -0.2043 -0.2641  0.1583
 4874TIP3    H136037   0.168   0.492  12.348 -1.0515  0.3359 -1.8174
 4874TIP3    H236038   0.025   0.457  12.314 -1.2887 -1.6771  0.8972
 4875TIP3   OH236039   1.650   0.971  15.511  0.0106  0.0491  0.7634
 4875TIP3    H136040   1.725   1.025  15.538  1.0068 -0.9380  0.0324
 4875TIP3    H236041   1.680   0.881  15.523 -1.4342 -0.3620  1.4178
 4876TIP3   OH236042   2.260   5.011  14.965  0.8797  0.4904 -0.0007
 4876TIP3    H136043   2.260   5.100  15.002  2.2195  0.9078 -0.9257
 4876TIP3    H236044   2.196   5.016  14.893  0.0881  0.3593  0.6766
 4877TIP3   OH236045   5.094   3.739  12.287  0.2181  0.1961 -0.0488
 4877TIP3    H136046   5.114   3.752  12.195 -1.7167 -1.3597 -0.7712
 4877TIP3    H236047   5.174   3.766  12.333  1.2268  1.0328 -2.1401
 4878TIP3   OH236048   4.767   3.686  12.014 -0.8117  0.0314  0.2884
 4878TIP3    H136049   4.741   3.614  12.072 -0.2405  0.9740  1.7488
 4878TIP3    H236050   4.751   3.765  12.065 -1.6639  0.9914 -1.3846
 4879TIP3   OH236051   0.327   1.093  11.486  0.4508  0.3440 -0.1042
 4879TIP3    H136052   0.258   1.159  11.475  0.0083 -0.2850 -1.3197
 4879TIP3    H236053   0.383   1.105  11.410  0.6978 -0.2906 -0.0229
 4880TIP3   OH236054   4.043   6.408   5.429 -0.0035 -0.1169 -0.5064
 4880TIP3    H136055   4.030   6.487   5.482  0.5969  1.0977 -2.1124
 4880TIP3    H236056   4.119   6.365   5.468 -0.2678  0.1366  0.3096
 4881TIP3   OH236057   1.155   4.375  11.726  0.8077  0.6883  0.3206
 4881TIP3    H136058   1.102   4.399  11.650  1.1318 -0.1527 -0.1841
 4881TIP3    H236059   1.158   4.279  11.724  1.7313  0.6990  0.7681
 4882TIP3   OH236060   2.651   2.654   1.739 -0.4712 -0.0291 -0.1525
 4882TIP3    H136061   2.678   2.625   1.652  2.4045 -0.8297  0.8814
 4882TIP3    H236062   2.664   2.578   1.795  2.7765  1.7078  1.7912
 4883TIP3   OH236063   4.769   2.661   1.215 -0.3201  0.1089  0.2958
 4883TIP3    H136064   4.837   2.629   1.274  0.9636  1.9712 -0.0641
 4883TIP3    H236065   4.817   2.698   1.140 -1.7688  0.5598 -0.4641
 4884TIP3   OH236066   5.930   4.727   3.801 -0.2453 -1.0438 -0.3203
 4884TIP3    H136067   5.907   4.820   3.797 -0.3104 -0.9920  0.9674
 4884TIP3    H236068   6.023   4.726   3.822 -0.0795 -1.2822 -1.0275
 4885TIP3   OH236069   3.614   6.704   4.488 -0.5003 -0.5675 -0.0638
 4885TIP3    H136070   3.551   6.687   4.558 -0.8181  1.8336  0.3466
 4885TIP3    H236071   3.699   6.688   4.527 -0.6950  0.3768  0.8022
 4886TIP3   OH236072   5.072   5.046   6.334 -1.1833  0.2338 -0.1299
 4886TIP3    H136073   5.073   5.123   6.278  0.8279 -1.4383 -2.5924
 4886TIP3    H236074   4.983   5.045   6.371 -2.8316  1.2484 -3.6241
 4887TIP3   OH236075   1.221   5.351  12.523 -0.5960  0.1197 -0.0936
 4887TIP3    H136076   1.290   5.306  12.474 -0.4783  2.1772 -1.9531
 4887TIP3    H236077   1.247   5.344  12.615  0.6694 -1.4051 -0.5350
 4888TIP3   OH236078   5.549   2.657  11.761 -0.3834  0.1619  0.4557
 4888TIP3    H136079   5.575   2.625  11.675 -1.3451  0.7451 -0.0667
 4888TIP3    H236080   5.496   2.735  11.743 -0.2706  0.5266  1.5895
 4889TIP3   OH236081   1.007   3.196  13.180 -0.6759 -0.1873  0.2451
 4889TIP3    H136082   0.977   3.247  13.105  0.4340  2.2643  1.3612
 4889TIP3    H236083   1.072   3.252  13.222  1.4721 -2.9991  0.9670
 4890TIP3   OH236084   4.629   0.525   2.748  0.1386 -0.2880 -0.1996
 4890TIP3    H136085   4.619   0.482   2.833 -0.2426 -3.3513 -1.6725
 4890TIP3    H236086   4.552   0.498   2.698  0.3745  1.4143 -1.5607
 4891TIP3   OH236087   2.951   0.970   2.997 -0.1456 -0.2296  0.4938
 4891TIP3    H136088   2.909   0.900   2.947  1.8345 -0.4118 -1.0206
 4891TIP3    H236089   3.020   1.003   2.939  1.1960  0.6707  2.4942
 4892TIP3   OH236090   5.222   1.947   2.619 -0.1359 -0.0025 -0.0515
 4892TIP3    H136091   5.256   1.943   2.529 -0.3247 -2.3199 -0.0917
 4892TIP3    H236092   5.220   2.040   2.640  0.2108  0.5890 -2.3368
 4893TIP3   OH236093   0.070   1.632  16.211  0.3148  0.0072  0.2336
 4893TIP3    H136094   0.075   1.544  16.174  0.0962 -0.5130  1.3753
 4893TIP3    H236095   0.086   1.690  16.138 -1.3136 -0.9240 -0.9281
 4894TIP3   OH236096   1.664   2.954  16.104 -0.1552  0.1110  0.4833
 4894TIP3    H136097   1.717   2.990  16.032 -1.4337 -0.6814 -0.9133
 4894TIP3    H236098   1.653   2.862  16.081 -0.7292 -0.1221  1.6273
 4895TIP3   OH236099   0.670   2.214   2.581  0.0191  0.3092  0.5579
 4895TIP3    H136100   0.681   2.150   2.651  2.6679 -1.6220 -1.3923
 4895TIP3    H236101   0.738   2.280   2.598 -0.5252  0.8171  0.7778
 4896TIP3   OH236102   1.946   0.198  12.868  0.4698  0.1074 -0.1788
 4896TIP3    H136103   1.863   0.208  12.823 -0.3310  2.2972  1.5962
 4896TIP3    H236104   1.932   0.239  12.954  3.7554  1.8697 -0.3102
 4897TIP3   OH236105   6.007   3.022   5.183 -0.1928 -0.3783  0.6680
 4897TIP3    H136106   5.924   2.976   5.169 -1.1122  0.6862  2.2751
 4897TIP3    H236107   6.034   2.995   5.270  1.2445 -0.7945  0.1166
 4898TIP3   OH236108   2.946   4.355   6.781  0.4715  0.1029  0.9067
 4898TIP3    H136109   2.939   4.273   6.830  0.7190  0.3802  1.4159
 4898TIP3    H236110   2.870   4.355   6.723 -0.3349  0.2077  1.9456
 4899TIP3   OH236111   4.702   4.315   3.271 -0.3341 -0.3272  0.0624
 4899TIP3    H136112   4.656   4.308   3.354 -0.0945 -0.4871  0.1837
 4899TIP3    H236113   4.793   4.332   3.295  0.1585 -2.4518 -0.0856
 4900TIP3   OH236114   3.611   0.114   3.187 -0.1038 -0.4166 -0.4425
 4900TIP3    H136115   3.644   0.053   3.254 -1.1059  1.0114  1.4442
 4900TIP3    H236116   3.654   0.197   3.208 -1.2437  0.3040 -0.9192
 4901TIP3   OH236117   6.387   3.467  14.226  0.5547  0.8645  0.6121
 4901TIP3    H136118   6.392   3.496  14.135  2.4512 -0.0448  0.3822
 4901TIP3    H236119   6.473   3.429  14.244 -0.5237 -1.0479  2.0862
 4902TIP3   OH236120   2.938   1.550  16.944 -0.3373  0.2531 -0.3437
 4902TIP3    H136121   2.904   1.579  17.028  1.7618 -0.3015  0.7682
 4902TIP3    H236122   2.973   1.630  16.904 -1.2404  0.4979 -0.6637
 4903TIP3   OH236123   2.370   1.550  13.472 -0.2835 -0.1601  0.5029
 4903TIP3    H136124   2.440   1.612  13.490 -0.3009 -0.2026  0.7257
 4903TIP3    H236125   2.409   1.464  13.487 -0.6397 -0.1527  1.5748
 4904TIP3   OH236126   4.100   5.482   4.138  0.5052  0.2184  0.1701
 4904TIP3    H136127   4.091   5.539   4.062 -1.8531 -0.2825 -0.0104
 4904TIP3    H236128   4.051   5.527   4.207  1.4493 -0.0042  1.0078
 4905TIP3   OH236129   6.303   1.055  11.657  0.2777 -0.0562  0.5370
 4905TIP3    H136130   6.224   1.008  11.685 -0.1417  1.1180  1.4242
 4905TIP3    H236131   6.279   1.092  11.572  0.1618 -0.3583  0.4348
 4906TIP3   OH236132   4.167   1.310   0.172  0.1000 -0.8453 -0.1065
 4906TIP3    H136133   4.182   1.238   0.111  0.4464  1.0947 -2.4990
 4906TIP3    H236134   4.155   1.387   0.115  1.1970  1.2487  2.2966
 4907TIP3   OH236135   2.900   3.520  16.114 -0.4706 -0.0590  0.8407
 4907TIP3    H136136   2.925   3.429  16.097 -1.6102 -0.4898  1.3564
 4907TIP3    H236137   2.805   3.521  16.101 -0.2764  1.4534 -0.8381
 4908TIP3   OH236138   2.424   4.946  13.415 -0.0134 -0.3570  0.6032
 4908TIP3    H136139   2.377   5.029  13.413  0.3269 -0.1761 -0.8702
 4908TIP3    H236140   2.381   4.892  13.349  0.5795 -0.8943  0.6464
 4909TIP3   OH236141   4.810   0.684  12.968 -0.1652  0.0895 -0.4148
 4909TIP3    H136142   4.845   0.618  13.029 -0.1552  0.7391  0.2922
 4909TIP3    H236143   4.747   0.734  13.020 -1.3384 -0.3413 -1.3683
 4910TIP3   OH236144   0.036   4.765   5.476  0.3050 -0.2239  0.0190
 4910TIP3    H136145   0.090   4.793   5.550 -1.8782  1.6372  1.0496
 4910TIP3    H236146   0.012   4.847   5.432  0.1546 -1.1683 -1.7803
 4911TIP3   OH236147   4.569   5.628   3.908  0.1336 -0.0841 -0.3660
 4911TIP3    H136148   4.574   5.704   3.851 -1.5252 -0.1738 -0.6691
 4911TIP3    H236149   4.481   5.630   3.945 -0.1973 -2.1957 -0.8863
 4912TIP3   OH236150   6.094   0.879  16.358  0.3220 -0.0969 -0.0226
 4912TIP3    H136151   6.134   0.862  16.443  1.5176 -0.6513 -0.6758
 4912TIP3    H236152   6.148   0.831  16.296 -1.7597 -1.4558 -0.8911
 4913TIP3   OH236153   4.310   6.502   0.604 -0.1021 -0.7746  0.5667
 4913TIP3    H136154   4.396   6.524   0.567 -1.2836 -1.2090 -2.6996
 4913TIP3    H236155   4.299   6.564   0.676  2.7472 -0.4666  0.8725
 4914TIP3   OH236156   0.141   5.674  14.899 -0.1140 -0.1237  0.6587
 4914TIP3    H136157   0.150   5.587  14.938 -1.8911  0.2051  1.9086
 4914TIP3    H236158   0.188   5.732  14.958  0.9144 -0.1754 -0.0779
 4915TIP3   OH236159   0.234   1.123  15.358  0.2232  0.0796  0.4050
 4915TIP3    H136160   0.311   1.143  15.410  0.3046  0.3790  0.1690
 4915TIP3    H236161   0.174   1.079  15.419  0.2878  0.4882  0.7653
 4916TIP3   OH236162   0.580   0.426  11.858  0.1666  0.3186  0.5592
 4916TIP3    H136163   0.651   0.369  11.830  1.9863  2.3258  0.8035
 4916TIP3    H236164   0.500   0.382  11.830  1.4103 -2.5579  1.2370
 4917TIP3   OH236165   6.158   5.631  15.702  0.1908  0.1187 -0.3570
 4917TIP3    H136166   6.252   5.611  15.709  0.8752  1.2509 -4.1310
 4917TIP3    H236167   6.149   5.719  15.737  1.0637  0.9317 -2.0604
 4918TIP3   OH236168   3.330   2.656   2.405  0.2077  0.1823  0.1205
 4918TIP3    H136169   3.405   2.698   2.362 -1.3668 -0.2371 -3.3875
 4918TIP3    H236170   3.314   2.577   2.354 -2.2612 -0.0274  1.0748
 4919TIP3   OH236171   5.613   1.662   4.409  0.1110  0.2141 -0.1188
 4919TIP3    H136172   5.598   1.728   4.341 -1.2602  1.2077  1.0836
 4919TIP3    H236173   5.699   1.625   4.389 -0.3496  0.3102 -2.5097
 4920TIP3   OH236174   6.183   0.212   1.355  0.2138  0.2675  0.4020
 4920TIP3    H136175   6.201   0.163   1.435 -0.6537 -2.1203 -0.7582
 4920TIP3    H236176   6.245   0.176   1.291 -1.9965 -1.1748 -1.1013
 4921TIP3   OH236177   0.233   3.794   3.223 -0.2294  0.9051  0.5437
 4921TIP3    H136178   0.328   3.797   3.230 -0.1019  1.1095 -0.9038
 4921TIP3    H236179   0.202   3.839   3.301  0.9434  3.2601 -0.2393
 4922TIP3   OH236180   2.762   0.935   2.432 -0.1918  0.4027  0.3287
 4922TIP3    H136181   2.704   0.859   2.433 -0.9987  0.9539  2.8991
 4922TIP3    H236182   2.777   0.953   2.339 -1.2155 -1.9341 -0.3550
 4923TIP3   OH236183   5.924   4.471   3.164 -0.2577  0.1448 -0.6514
 4923TIP3    H136184   5.906   4.539   3.099  0.9540  1.0169 -0.1266
 4923TIP3    H236185   5.943   4.519   3.245 -1.0646 -0.8909  0.1839
 4924TIP3   OH236186   6.650   4.325   5.564  0.2736 -0.0484 -0.0743
 4924TIP3    H136187   6.627   4.417   5.561  0.2854 -0.0423  0.0388
 4924TIP3    H236188   6.668   4.302   5.472  0.6552  0.1564 -0.0523
 4925TIP3   OH236189   4.425   6.012  12.017 -0.4720 -0.5307 -0.4274
 4925TIP3    H136190   4.405   6.088  12.072  0.1636 -0.9812  0.4444
 4925TIP3    H236191   4.510   6.033  11.978 -1.0787 -0.0603 -1.5385
 4926TIP3   OH236192   4.411   6.529  12.696 -0.2342  0.2043 -0.7463
 4926TIP3    H136193   4.380   6.558  12.782 -0.0999 -0.3240 -0.5186
 4926TIP3    H236194   4.506   6.522  12.706 -0.2883 -0.5697 -0.7157
 4927TIP3   OH236195   1.474   4.466   4.355 -0.1554  0.7479 -0.3249
 4927TIP3    H136196   1.565   4.470   4.384  0.0395  1.7910 -1.0584
 4927TIP3    H236197   1.446   4.557   4.351 -1.0440  0.4615 -0.7041
 4928TIP3   OH236198   4.154   1.050  17.009  0.4751  0.0599  0.2066
 4928TIP3    H136199   4.161   1.139  16.975 -0.6764  0.0516 -0.1245
 4928TIP3    H236200   4.061   1.040  17.030  0.6499 -0.9477  0.5623
 4929TIP3   OH236201   0.591   4.677   2.333 -0.2980 -0.1175  0.5815
 4929TIP3    H136202   0.540   4.673   2.414 -0.7556  1.4276  0.3867
 4929TIP3    H236203   0.588   4.587   2.300 -0.2570 -0.7415  2.1649
 4930TIP3   OH236204   0.510   0.367  13.434  0.2730 -0.0482  0.0251
 4930TIP3    H136205   0.561   0.310  13.377 -0.6936 -2.0379  1.0208
 4930TIP3    H236206   0.445   0.309  13.473  1.3162  0.9726  3.7010
 4931TIP3   OH236207   5.817   1.082  16.878  0.1032  0.4969 -0.0487
 4931TIP3    H136208   5.852   1.166  16.848 -1.2066  1.0872  0.0379
 4931TIP3    H236209   5.825   1.024  16.801 -1.1152  1.3522 -0.8460
 4932TIP3   OH236210   6.752   2.459   5.041  0.0936  0.0641 -0.2274
 4932TIP3    H136211   6.829   2.459   4.983 -0.4978 -1.6940 -1.0699
 4932TIP3    H236212   6.738   2.367   5.063 -0.4960  0.5746  1.6864
 4933TIP3   OH236213   1.755   4.716   1.339 -0.0499 -0.5065 -0.5350
 4933TIP3    H136214   1.703   4.727   1.419  2.4508 -0.6688  1.2392
 4933TIP3    H236215   1.764   4.622   1.329 -0.6263 -0.4943 -1.2267
 4934TIP3   OH236216   5.870   3.572   1.512  0.1015  0.3748 -0.1544
 4934TIP3    H136217   5.792   3.549   1.562 -0.3325 -0.1221 -1.0337
 4934TIP3    H236218   5.837   3.610   1.431  0.7195 -0.9421 -1.0671
 4935TIP3   OH236219   1.060   3.498  14.098  0.9353  0.0888  0.5207
 4935TIP3    H136220   1.018   3.416  14.124  3.2292 -0.6039  2.3478
 4935TIP3    H236221   1.021   3.519  14.013 -1.9845 -1.1888  1.4176
 4936TIP3   OH236222   2.781   4.808   1.209  0.6705 -0.2491 -0.1135
 4936TIP3    H136223   2.850   4.810   1.142  0.7087  0.4542 -0.0614
 4936TIP3    H236224   2.828   4.791   1.290  0.8134  0.4524 -0.0462
 4937TIP3   OH236225   3.769   1.544   1.293 -0.0544 -0.9464  0.3347
 4937TIP3    H136226   3.803   1.548   1.204  2.8981 -1.8686  1.3052
 4937TIP3    H236227   3.737   1.454   1.302 -4.2165  0.1938 -0.9190
 4938TIP3   OH236228   0.033   2.617  12.285 -0.1055  0.3859 -0.4897
 4938TIP3    H136229   0.087   2.666  12.347 -0.3268  0.8491 -0.6600
 4938TIP3    H236230  -0.045   2.594  12.334 -0.8445  1.8287 -0.9354
 4939TIP3   OH236231   0.582   3.816   3.817  0.3086 -0.3137  0.3450
 4939TIP3    H136232   0.531   3.845   3.892  0.6753  0.2390  0.3849
 4939TIP3    H236233   0.582   3.890   3.757 -1.0232 -1.1671 -0.7743
 4940TIP3   OH236234   4.424   4.236   2.336  0.2442 -0.1702  0.7306
 4940TIP3    H136235   4.505   4.204   2.376 -0.0855 -1.1348  0.6445
 4940TIP3    H236236   4.419   4.328   2.362  0.9248 -0.3295  1.4547
 4941TIP3   OH236237   5.374   4.735   2.184 -0.0377 -0.4948 -0.2268
 4941TIP3    H136238   5.447   4.750   2.244 -1.6236 -0.8194  1.8605
 4941TIP3    H236239   5.361   4.820   2.141  1.7471 -0.5251 -0.9250
 4942TIP3   OH236240   2.403   0.441  12.254 -0.0157  0.4254  0.6412
 4942TIP3    H136241   2.458   0.519  12.261  1.7416 -0.7104  0.1362
 4942TIP3    H236242   2.412   0.397  12.339 -0.3819  0.3738  0.6570
 4943TIP3   OH236243   2.790   1.303  11.522 -0.0033  0.2830 -0.3048
 4943TIP3    H136244   2.729   1.374  11.501  0.3751  1.5956  2.5313
 4943TIP3    H236245   2.872   1.328  11.482 -0.7052 -0.3711 -2.2552
 4944TIP3   OH236246   4.955   0.470  15.696  0.1434 -0.2649 -0.8031
 4944TIP3    H136247   4.929   0.485  15.605 -1.1593  2.4552 -0.0901
 4944TIP3    H236248   5.035   0.418  15.690  0.0588 -0.2224 -3.4804
 4945TIP3   OH236249   5.964   2.983   6.565  0.2246  0.0902  0.0929
 4945TIP3    H136250   5.873   3.002   6.589  0.3566 -0.2979  0.9712
 4945TIP3    H236251   5.978   3.028   6.482 -1.0073 -0.5020 -0.4489
 4946TIP3   OH236252   0.266   6.557  12.640  0.0617 -0.6648  0.2072
 4946TIP3    H136253   0.205   6.492  12.674 -2.1455  0.4989 -1.2571
 4946TIP3    H236254   0.258   6.631  12.700  2.3202 -1.5002  1.6791
 4947TIP3   OH236255   5.960   2.395  15.504 -0.2678  0.0039 -0.0997
 4947TIP3    H136256   6.034   2.333  15.506  0.4932  0.8277 -1.2612
 4947TIP3    H236257   5.904   2.367  15.576 -0.2545 -2.4013 -0.8985
 4948TIP3   OH236258   2.341   0.836  14.513  0.0003 -0.4579 -0.3333
 4948TIP3    H136259   2.357   0.742  14.507  2.2170 -0.2804  1.4257
 4948TIP3    H236260   2.269   0.852  14.452  0.3176 -3.0848 -1.5339
 4949TIP3   OH236261   3.910   5.047   0.701 -0.3657 -0.6612 -0.0928
 4949TIP3    H136262   3.900   5.102   0.622  1.0192 -0.6527 -0.2790
 4949TIP3    H236263   3.993   5.076   0.740  0.0360 -2.1474  0.1933
 4950TIP3   OH236264   0.487   4.141  16.312  0.1692 -0.1209  0.0906
 4950TIP3    H136265   0.430   4.204  16.357  0.4344  0.4593 -0.3633
 4950TIP3    H236266   0.573   4.154  16.352  0.2413 -0.1446 -0.0566
 4951TIP3   OH236267   1.240   0.262   2.024  0.6757 -0.9275 -0.1270
 4951TIP3    H136268   1.148   0.279   2.004  0.3322  0.6838  2.3140
 4951TIP3    H236269   1.248   0.167   2.025 -1.6019 -1.1757  1.8645
 4952TIP3   OH236270   4.137   1.163   0.471  0.0115 -0.0780  0.0957
 4952TIP3    H136271   4.159   1.107   0.396  1.4603  2.1661 -1.2551
 4952TIP3    H236272   4.062   1.214   0.441 -2.0796 -1.9494  1.7522
 4953TIP3   OH236273   0.950   6.476   4.120  0.3941 -0.2324 -0.3038
 4953TIP3    H136274   1.002   6.396   4.117  2.1096  0.8464 -1.1495
 4953TIP3    H236275   0.977   6.520   4.201  1.6742  0.8363 -1.2630
 4954TIP3   OH236276   3.058   6.163   5.837 -0.4785 -0.0751  0.4065
 4954TIP3    H136277   2.974   6.165   5.790  0.6564 -0.9989 -1.8041
 4954TIP3    H236278   3.097   6.248   5.820  0.0039 -0.4690 -0.4873
 4955TIP3   OH236279   5.805   5.219  15.648 -0.1291 -0.2833  0.1960
 4955TIP3    H136280   5.736   5.281  15.622  1.4125  1.8641  0.9909
 4955TIP3    H236281   5.886   5.270  15.646  1.3208 -2.4493  0.3436
 4956TIP3   OH236282   0.127   1.608  12.579 -0.3747 -0.1746  0.3413
 4956TIP3    H136283   0.149   1.522  12.541  2.6388  1.0926 -1.1200
 4956TIP3    H236284   0.177   1.611  12.661 -0.5632  0.1332  0.4441
 4957TIP3   OH236285   5.498   0.369  16.462  0.0399 -0.4150 -0.3537
 4957TIP3    H136286   5.458   0.297  16.414 -1.2755 -0.2558  0.4370
 4957TIP3    H236287   5.584   0.380  16.422  0.6387 -2.9806  0.0531
 4958TIP3   OH236288   4.397   0.357   2.936 -1.4922  1.0871  0.4628
 4958TIP3    H136289   4.465   0.379   3.000  0.1153  0.1576 -0.8594
 4958TIP3    H236290   4.371   0.268   2.958 -2.2952  1.4311  0.9495
 4959TIP3   OH236291   3.909   5.507  14.061 -0.7181 -0.0011 -0.0899
 4959TIP3    H136292   3.998   5.529  14.089 -0.6849  0.0628 -0.2460
 4959TIP3    H236293   3.871   5.591  14.036 -0.3381 -0.2122 -1.4289
 4960TIP3   OH236294   4.575   1.675  15.540  0.3479 -0.3142  0.3600
 4960TIP3    H136295   4.664   1.662  15.573  0.4783  0.0065  0.1400
 4960TIP3    H236296   4.520   1.674  15.618  0.4496 -1.3182  0.4222
 4961TIP3   OH236297   4.229   3.132  15.058  0.2402 -0.0600 -0.4944
 4961TIP3    H136298   4.302   3.136  14.996  0.9193 -0.9021  0.2327
 4961TIP3    H236299   4.256   3.187  15.131  0.3466 -0.7221 -0.0268
 4962TIP3   OH236300   4.610   0.747   5.072  0.1890  0.1856  0.4213
 4962TIP3    H136301   4.518   0.719   5.071 -0.0076  0.8218  0.1402
 4962TIP3    H236302   4.607   0.839   5.046  0.8801  0.2977  0.7226
 4963TIP3   OH236303   3.664   6.295   2.355  0.5442 -0.0524 -0.0517
 4963TIP3    H136304   3.666   6.301   2.451 -0.1588  1.3298 -0.1025
 4963TIP3    H236305   3.620   6.212   2.337 -2.2182  1.1070  0.8438
 4964TIP3   OH236306   1.589   2.429   3.658 -0.0616 -0.0071  0.7343
 4964TIP3    H136307   1.629   2.476   3.584 -2.6238 -0.5436 -1.1427
 4964TIP3    H236308   1.599   2.488   3.732  1.4536  1.1575 -0.3270
 4965TIP3   OH236309   3.307   3.105   5.360  0.0741  0.3268  0.0923
 4965TIP3    H136310   3.311   3.020   5.403  1.0918 -0.0389 -0.6966
 4965TIP3    H236311   3.315   3.085   5.267 -1.4879  1.1539 -0.2591
 4966TIP3   OH236312   3.366   4.057  15.630  0.5268 -0.5159 -0.4517
 4966TIP3    H136313   3.313   4.063  15.710  1.8509  0.2283  0.4150
 4966TIP3    H236314   3.335   3.978  15.587 -1.7943  0.2810 -0.3950
 4967TIP3   OH236315   0.712   5.806   0.060 -0.3605 -0.1050  0.3535
 4967TIP3    H136316   0.627   5.781   0.026  0.3761  0.1983 -1.8256
 4967TIP3    H236317   0.774   5.750   0.015  0.7275  0.7152  0.7785
 4968TIP3   OH236318   4.332   4.315   5.562 -0.3568  0.2803  0.1008
 4968TIP3    H136319   4.347   4.250   5.493  0.4509  0.0467  0.4807
 4968TIP3    H236320   4.363   4.397   5.525  0.0727  0.1552  0.1805
 4969TIP3   OH236321   2.323   5.332   2.162  0.5947  0.0763  0.6844
 4969TIP3    H136322   2.347   5.312   2.071 -0.0170  0.2844  0.4683
 4969TIP3    H236323   2.304   5.426   2.161 -2.2616 -0.4106  0.3238
 4970TIP3   OH236324   4.264   1.881   0.051  0.1479  0.0933 -0.5502
 4970TIP3    H136325   4.291   1.796   0.084 -0.8065  0.3342  0.9339
 4970TIP3    H236326   4.337   1.939   0.070  0.1800 -0.0786 -0.1333
 4971TIP3   OH236327   0.071   1.894   6.349 -0.1099 -0.4602 -0.0881
 4971TIP3    H136328   0.134   1.871   6.280 -1.0752  1.5738 -1.7482
 4971TIP3    H236329   0.124   1.935   6.417  0.5141  0.3479 -1.0340
 4972TIP3   OH236330   2.019   1.025  14.634 -0.3713  0.3742  0.3191
 4972TIP3    H136331   1.967   0.979  14.700 -1.2742  1.8038  0.6428
 4972TIP3    H236332   2.071   1.088  14.684  0.9967 -0.3747 -0.0993
 4973TIP3   OH236333   2.845   2.570   2.926 -0.2810  0.5016 -0.1094
 4973TIP3    H136334   2.794   2.645   2.957  0.8591  1.1176  0.3784
 4973TIP3    H236335   2.935   2.604   2.922  0.1274 -0.6204 -0.6582
 4974TIP3   OH236336   2.085   1.476  16.582  1.3072  0.2310 -0.0718
 4974TIP3    H136337   2.076   1.540  16.511  2.7535 -0.1726 -0.6575
 4974TIP3    H236338   2.064   1.392  16.542 -0.8814  0.3062  0.7691
 4975TIP3   OH236339   0.065   3.558  11.967  0.2655 -0.2133 -0.3671
 4975TIP3    H136340   0.123   3.494  12.009 -0.5594 -0.6149  0.1983
 4975TIP3    H236341  -0.008   3.568  12.029  0.2218  1.0342 -0.6018
 4976TIP3   OH236342   4.494   1.911  16.081  0.0992  0.0579  0.2812
 4976TIP3    H136343   4.494   1.816  16.073 -0.3503  0.1527 -0.9375
 4976TIP3    H236344   4.434   1.941  16.013 -0.1030  1.1981  0.9359
 4977TIP3   OH236345   5.125   4.137  10.574  0.7101  0.6653  0.0932
 4977TIP3    H136346   5.049   4.110  10.625  1.5389  0.1316  1.0729
 4977TIP3    H236347   5.187   4.064  10.582  0.2806 -0.1662 -2.9973
 4978TIP3   OH236348   1.417   3.980   0.938 -0.0684 -0.7591 -0.2479
 4978TIP3    H136349   1.331   4.020   0.946  0.1381 -0.2936 -0.2903
 4978TIP3    H236350   1.477   4.055   0.930  0.2905 -1.0873 -0.6447
 4979TIP3   OH236351   6.344   6.736   4.716 -0.0008 -0.3008 -0.2276
 4979TIP3    H136352   6.332   6.695   4.802  1.7015  1.6522  1.0414
 4979TIP3    H236353   6.412   6.683   4.674  0.1554 -0.4635  0.2213
 4980TIP3   OH236354   4.440   1.179   5.580  0.0470  0.4723 -1.1649
 4980TIP3    H136355   4.360   1.227   5.558 -0.5777 -0.3561 -0.7331
 4980TIP3    H236356   4.443   1.106   5.518  0.9876  1.0416 -1.8106
 4981TIP3   OH236357   0.106   0.333   0.302  0.0319  0.6486  0.0798
 4981TIP3    H136358   0.182   0.388   0.318  0.4492  0.2169 -0.3518
 4981TIP3    H236359   0.102   0.274   0.377 -0.0621  0.8791  0.2546
 4982TIP3   OH236360   1.156   3.646  11.283 -0.3189  0.2136 -0.1981
 4982TIP3    H136361   1.072   3.669  11.243  0.1780  0.1359 -1.3326
 4982TIP3    H236362   1.159   3.550  11.278 -1.1928  0.0082  2.0422
 4983TIP3   OH236363   1.791   4.732  11.625  0.6988  0.0788 -0.4433
 4983TIP3    H136364   1.868   4.786  11.644 -1.5381  2.4969  3.0395
 4983TIP3    H236365   1.791   4.665  11.692 -0.2329  0.1475 -0.3598
 4984TIP3   OH236366   4.859   5.406  15.217 -0.2348 -0.7890  0.1674
 4984TIP3    H136367   4.934   5.432  15.163 -0.0831 -0.0151  0.7356
 4984TIP3    H236368   4.882   5.319  15.250  0.4763 -0.5116  0.4350
 4985TIP3   OH236369   0.108   4.803  15.775 -0.1860  0.6322  0.6431
 4985TIP3    H136370   0.046   4.808  15.847  0.3050 -0.3134  1.1475
 4985TIP3    H236371   0.193   4.821  15.815  0.3118 -1.4306  0.6605
 4986TIP3   OH236372   3.272   0.505   1.444 -0.8333 -0.3112  0.3466
 4986TIP3    H136373   3.337   0.553   1.393 -0.5303 -1.1289 -0.0526
 4986TIP3    H236374   3.239   0.438   1.384 -1.8208 -0.1155  0.6447
 4987TIP3   OH236375   4.495   1.292  14.560  0.1250 -0.1932 -0.2400
 4987TIP3    H136376   4.485   1.243  14.641 -0.7352  0.7976  0.2764
 4987TIP3    H236377   4.504   1.225  14.492  0.2200 -1.0386  0.5893
 4988TIP3   OH236378   1.286   2.132  11.697 -0.4480  0.8017 -0.4228
 4988TIP3    H136379   1.263   2.116  11.606 -0.3636 -0.7510 -0.1933
 4988TIP3    H236380   1.381   2.148  11.695 -0.0713 -1.1803 -0.4205
 4989TIP3   OH236381   4.259   6.765   5.529  0.7656  0.0555  0.1650
 4989TIP3    H136382   4.348   6.774   5.564  0.7523 -1.3045  0.6398
 4989TIP3    H236383   4.221   6.695   5.582 -0.6320  0.6925  0.0335
 4990TIP3   OH236384   0.053   5.071   0.800  0.3010 -0.0380 -0.6691
 4990TIP3    H136385   0.046   5.162   0.830  0.1526 -0.6725  1.3957
 4990TIP3    H236386   0.003   5.021   0.865  1.9664 -1.7895 -0.6509
 4991TIP3   OH236387   1.002   5.062  14.559  0.3877 -0.4102 -0.6096
 4991TIP3    H136388   1.036   5.092  14.643 -0.0677 -2.6221  0.4066
 4991TIP3    H236389   0.922   5.015  14.580  0.9483 -2.1563 -2.1191
 4992TIP3   OH236390   6.582   3.895   0.510  0.8095  0.7627 -0.3124
 4992TIP3    H136391   6.582   3.882   0.415  0.9308 -0.0244 -0.2060
 4992TIP3    H236392   6.669   3.931   0.530  1.0802  0.1646 -0.3992
 4993TIP3   OH236393   3.549   4.193  16.629 -0.1359  0.7911 -0.1204
 4993TIP3    H136394   3.598   4.270  16.658 -0.0159  0.2539  1.1737
 4993TIP3    H236395   3.606   4.119  16.649 -0.5239  0.3206 -0.7373
 4994TIP3   OH236396   3.474   0.063  15.254 -0.4113  0.8664  0.8922
 4994TIP3    H136397   3.404   0.113  15.212  1.1326  1.4551 -1.1625
 4994TIP3    H236398   3.504   0.119  15.326  0.6112  2.5157 -0.7395
 4995TIP3   OH236399   1.136   6.563   4.376  0.1006 -0.5884 -0.2282
 4995TIP3    H136400   1.131   6.652   4.411 -1.1497 -0.2384 -1.2082
 4995TIP3    H236401   1.228   6.540   4.384  0.2694  0.3746  1.0322
 4996TIP3   OH236402   1.351   0.983  15.979  0.1198 -0.7138 -0.1026
 4996TIP3    H136403   1.371   0.895  16.010  0.2067 -0.4387  0.6420
 4996TIP3    H236404   1.384   0.986  15.889 -0.0626 -1.5001 -0.1949
 4997TIP3   OH236405   1.819   6.276   0.425 -0.2788 -0.1399  0.2936
 4997TIP3    H136406   1.757   6.268   0.354  0.6834 -1.0540 -0.4703
 4997TIP3    H236407   1.780   6.340   0.485 -2.5513 -1.6483  0.5057
 4998TIP3   OH236408   5.631   1.767   3.247  0.0743  0.3663  1.0916
 4998TIP3    H136409   5.580   1.760   3.327  0.4915  0.6714  1.3877
 4998TIP3    H236410   5.719   1.793   3.276  0.6019 -0.8451  0.6582
 4999TIP3   OH236411   5.366   0.884  15.384  0.3336 -0.2345 -0.5417
 4999TIP3    H136412   5.402   0.830  15.455  0.5645 -0.6012 -0.9352
 4999TIP3    H236413   5.430   0.877  15.314 -1.0479 -1.8813 -1.7149
 5000TIP3   OH236414   4.660   1.125  13.951  0.0072 -0.2517 -0.5863
 5000TIP3    H136415   4.753   1.144  13.946  1.1195 -4.2571  0.4698
 5000TIP3    H236416   4.624   1.153  13.867  2.4134  0.2672 -1.5115
 5001TIP3   OH236417   6.116   5.837   1.074  0.0936  0.0848 -0.3686
 5001TIP3    H136418   6.029   5.824   1.113  0.1275  1.7532  0.3277
 5001TIP3    H236419   6.098   5.850   0.981 -0.4534  0.8744 -0.1607
 5002TIP3   OH236420   1.291   0.689  15.651  0.0902  0.2509 -0.4478
 5002TIP3    H136421   1.257   0.765  15.604 -0.9337 -0.9723 -1.8021
 5002TIP3    H236422   1.260   0.700  15.741 -0.4902  1.1641 -0.7453
 5003TIP3   OH236423   5.512   4.459  16.428  0.2901  0.4964 -0.1841
 5003TIP3    H136424   5.451   4.390  16.456 -0.5329  2.7215  4.3578
 5003TIP3    H236425   5.457   4.534  16.409  1.3715  1.4539  0.3029
 5004TIP3   OH236426   6.794   5.062   1.588 -0.5864 -0.2058  0.0518
 5004TIP3    H136427   6.712   5.105   1.562  1.8328  2.8906 -3.5116
 5004TIP3    H236428   6.802   5.081   1.682 -2.7085  1.7121 -0.0703
 5005TIP3   OH236429   3.645   6.231   1.476  0.2444  0.1716  0.2900
 5005TIP3    H136430   3.665   6.207   1.566 -0.1485  0.6245  0.5017
 5005TIP3    H236431   3.671   6.322   1.468 -1.2495  0.6408  0.4471
 5006TIP3   OH236432   1.085   5.528   4.507  0.1842  0.3666 -0.3045
 5006TIP3    H136433   1.028   5.451   4.505  0.2065  0.3409 -0.0136
 5006TIP3    H236434   1.122   5.533   4.419  0.8038 -0.4325 -0.1074
 5007TIP3   OH236435   0.112   6.705   0.887  0.3580 -0.2482 -0.2957
 5007TIP3    H136436   0.202   6.675   0.898 -0.0273 -1.9819 -1.5387
 5007TIP3    H236437   0.059   6.626   0.889 -1.0430  0.6394 -0.6335
 5008TIP3   OH236438   2.241   4.655   1.722 -0.2915  0.7454  0.0378
 5008TIP3    H136439   2.252   4.749   1.717 -1.4626  0.8323 -1.6813
 5008TIP3    H236440   2.326   4.622   1.751 -0.1820  2.3758  1.7379
 5009TIP3   OH236441   4.205   4.494  12.493 -0.0262 -0.2552 -0.3245
 5009TIP3    H136442   4.139   4.543  12.541 -0.1222 -0.1216 -0.5896
 5009TIP3    H236443   4.288   4.523  12.530 -0.1414 -0.9293  0.4825
 5010TIP3   OH236444   1.651   4.238  11.300 -0.7477 -0.4173  0.8118
 5010TIP3    H136445   1.561   4.257  11.325 -0.4327  1.4011  0.6928
 5010TIP3    H236446   1.703   4.304  11.346  0.3287 -0.2302 -0.6078
 5011TIP3   OH236447   0.920   6.423   1.375  0.3391 -0.9578 -0.1415
 5011TIP3    H136448   0.994   6.459   1.326 -1.4529  0.0373 -2.2837
 5011TIP3    H236449   0.915   6.478   1.453  0.3568  0.6428 -1.2175
 5012TIP3   OH236450   2.931   2.877  15.975  0.3318  0.4478  0.8899
 5012TIP3    H136451   2.996   2.946  15.990  2.5881 -1.5238  0.7593
 5012TIP3    H236452   2.887   2.868  16.060  0.3277  1.6688  1.0447
 5013TIP3   OH236453   3.019   6.767  11.277 -0.2123 -0.2444  0.0186
 5013TIP3    H136454   2.933   6.766  11.237 -0.7246 -1.0496  1.0954
 5013TIP3    H236455   3.078   6.732  11.210 -1.1338 -2.0556  0.0825
 5014TIP3   OH236456   3.454   1.476   3.814  0.3247  0.5621 -0.1101
 5014TIP3    H136457   3.442   1.564   3.848  0.6064  0.9780 -1.0591
 5014TIP3    H236458   3.375   1.459   3.763 -0.4352 -0.3389  1.2838
 5015TIP3   OH236459   1.110   6.107  10.461  0.1611 -0.0676 -0.2188
 5015TIP3    H136460   1.123   6.012  10.459  1.7373  0.1216 -0.6792
 5015TIP3    H236461   1.199   6.143  10.463 -0.3344  1.4372 -2.1196
 5016TIP3   OH236462   2.845   2.589  15.937  0.5856  0.0568 -0.2280
 5016TIP3    H136463   2.886   2.582  16.023 -2.5028  1.5503  1.5264
 5016TIP3    H236464   2.857   2.680  15.911  0.9812 -0.2413 -1.1492
 5017TIP3   OH236465   4.281   6.391   4.734  0.4373  0.2836 -0.4082
 5017TIP3    H136466   4.221   6.427   4.799 -0.1043  1.6240 -1.5940
 5017TIP3    H236467   4.239   6.311   4.703  0.3088  0.0720  0.2993
 5018TIP3   OH236468   4.227   4.179   2.146 -0.1033  0.6568 -0.3687
 5018TIP3    H136469   4.295   4.211   2.207 -0.5600 -0.2461  0.6527
 5018TIP3    H236470   4.160   4.247   2.148 -0.5714  0.1985  0.9452
 5019TIP3   OH236471   6.430   3.192  16.691 -0.5825 -0.3695 -0.1386
 5019TIP3    H136472   6.459   3.149  16.771  0.2080 -0.1554 -0.3125
 5019TIP3    H236473   6.468   3.140  16.620  0.7472  0.8320 -0.3529
 5020TIP3   OH236474   6.419   6.490  12.111 -0.2251  0.5474  0.8375
 5020TIP3    H136475   6.395   6.398  12.101  2.0868 -0.1458  1.1048
 5020TIP3    H236476   6.490   6.504  12.049 -0.6279  2.2351  0.6868
 5021TIP3   OH236477   2.627   6.749  12.188 -0.0878  0.1087 -0.1844
 5021TIP3    H136478   2.698   6.737  12.125 -1.4570 -0.2474 -1.7282
 5021TIP3    H236479   2.631   6.842  12.212  0.6947  0.1537 -0.4775
 5022TIP3   OH236480   4.145   6.346   1.922  0.0600 -0.2087  0.4197
 5022TIP3    H136481   4.106   6.280   1.980 -2.5226  0.2401 -0.6892
 5022TIP3    H236482   4.097   6.426   1.941  3.7619  1.7986  2.4388
 5023TIP3   OH236483   0.849   6.126   2.801 -0.0460 -0.7384 -0.3394
 5023TIP3    H136484   0.904   6.048   2.808 -1.6874 -1.9315 -0.1639
 5023TIP3    H236485   0.821   6.144   2.891  2.2424  1.5858  0.0302
 5024TIP3   OH236486   1.717   1.677  13.093  0.1482  0.1902 -0.1479
 5024TIP3    H136487   1.704   1.611  13.024 -0.1289  0.2027 -0.1082
 5024TIP3    H236488   1.798   1.649  13.137 -0.0053 -0.1667 -0.0846
 5025TIP3   OH236489   3.901   0.994   0.172 -0.2084 -0.1116  0.1196
 5025TIP3    H136490   3.916   1.044   0.252 -1.5536  0.5482 -0.0088
 5025TIP3    H236491   3.903   1.058   0.102  0.7538 -0.6585 -0.3641
 5026TIP3   OH236492   6.600   5.870   1.704 -0.2076 -0.1280  0.0377
 5026TIP3    H136493   6.571   5.801   1.763 -1.3579 -0.8854 -1.3503
 5026TIP3    H236494   6.695   5.876   1.718 -0.3733 -0.6584  1.5201
 5027TIP3   OH236495   2.085   2.353  15.563 -0.6946 -0.0918 -0.3349
 5027TIP3    H136496   2.058   2.281  15.506  1.3578 -0.7308 -0.5714
 5027TIP3    H236497   2.027   2.345  15.639 -0.8642 -1.6849 -0.5836
 5028TIP3   OH236498   5.042   0.326   3.602  0.5790  0.0272  0.2592
 5028TIP3    H136499   4.970   0.373   3.644  0.3310  0.2683 -0.4113
 5028TIP3    H236500   5.094   0.290   3.674  0.0221  0.2088  0.7549
 5029TIP3   OH236501   0.079   3.115   1.921  0.6245 -0.7093  0.8083
 5029TIP3    H136502   0.084   3.060   1.843  0.5575  0.2204  0.1348
 5029TIP3    H236503   0.167   3.150   1.932  0.3280  0.2168  0.3521
 5030TIP3   OH236504   4.743   0.418  12.844 -0.0012 -0.3137  0.3945
 5030TIP3    H136505   4.786   0.423  12.758 -0.3290  0.4429  0.2703
 5030TIP3    H236506   4.707   0.505  12.858 -2.5177 -1.2119 -0.0329
 5031TIP3   OH236507   6.267   1.836  16.302 -0.0222  0.0652  0.3977
 5031TIP3    H136508   6.181   1.869  16.325 -1.0532 -1.3167 -1.2382
 5031TIP3    H236509   6.321   1.851  16.380 -1.6305  1.2793  1.3153
 5032TIP3   OH236510   3.164   1.046   2.376 -0.4473 -0.1798 -0.2851
 5032TIP3    H136511   3.200   1.066   2.290 -1.5581  1.1750 -0.4727
 5032TIP3    H236512   3.236   1.061   2.437  0.4072 -1.3682 -0.9892
 5033TIP3   OH236513   1.038   2.673  13.942  0.4033 -0.1313 -0.8886
 5033TIP3    H136514   1.041   2.606  13.874  1.0154 -1.0664  0.0207
 5033TIP3    H236515   0.978   2.637  14.008 -1.1296  1.2987 -1.4404
 5034TIP3   OH236516   4.113   4.523  16.414  0.0872  0.4702  0.0784
 5034TIP3    H136517   4.097   4.439  16.457  0.3493 -0.2558 -1.2015
 5034TIP3    H236518   4.156   4.576  16.481 -0.2322 -0.3518  0.9582
 5035TIP3   OH236519   6.554   6.460   4.280  0.3291  0.1390 -0.0334
 5035TIP3    H136520   6.593   6.432   4.197  1.5891  1.2344  0.1690
 5035TIP3    H236521   6.531   6.378   4.324  2.7849 -0.6123  0.0051
 5036TIP3   OH236522   4.000   0.645  11.524  0.8465  0.4903 -0.7264
 5036TIP3    H136523   3.999   0.594  11.604  2.2038 -1.0305 -1.6094
 5036TIP3    H236524   3.909   0.649  11.495  0.7868 -2.4422 -1.1905
 5037TIP3   OH236525   0.239   2.784  13.811  0.1093  0.1229  0.4601
 5037TIP3    H136526   0.260   2.876  13.831  2.4729 -0.2327 -0.0365
 5037TIP3    H236527   0.236   2.781  13.716 -1.1501 -0.1198  0.4924
 5038TIP3   OH236528   4.111   6.706  11.553 -0.2580 -0.3999 -0.0437
 5038TIP3    H136529   4.074   6.709  11.465  2.0468 -1.1010 -1.1257
 5038TIP3    H236530   4.163   6.787  11.560  1.6176 -1.5124 -0.3754
 5039TIP3   OH236531   1.022   5.361  13.373  0.0896 -0.2315  0.1598
 5039TIP3    H136532   0.967   5.326  13.443  0.2612 -0.8813 -0.0246
 5039TIP3    H236533   1.107   5.318  13.386  1.5804  2.9558  2.3168
 5040TIP3   OH236534   6.083   1.663  10.296 -0.4678  0.6584  0.3012
 5040TIP3    H136535   6.134   1.682  10.375 -1.9673 -0.5611  1.6201
 5040TIP3    H236536   6.019   1.733  10.291  1.2288  2.2139 -1.3833
 5041TIP3   OH236537   1.329   5.472   0.883  0.2746 -0.1702 -0.2249
 5041TIP3    H136538   1.327   5.565   0.907 -1.8149 -0.1664 -0.1881
 5041TIP3    H236539   1.251   5.435   0.925  0.6406 -1.7837 -0.8925
 5042TIP3   OH236540   5.838   5.313  10.995  0.0477 -0.1031  0.0699
 5042TIP3    H136541   5.795   5.296  11.079 -0.9117  0.8862 -0.1955
 5042TIP3    H236542   5.901   5.242  10.985  0.9912  0.3587  2.1493
 5043TIP3   OH236543   6.614   6.032   2.985 -0.2435  0.2905 -0.3617
 5043TIP3    H136544   6.589   5.992   3.068 -0.9858  1.1880 -0.1363
 5043TIP3    H236545   6.696   5.990   2.961 -0.5930 -0.7754  0.2641
 5044TIP3   OH236546   6.313   4.743  14.455  0.0578 -0.5221 -0.1589
 5044TIP3    H136547   6.378   4.812  14.443 -0.5826 -0.0598 -1.0530
 5044TIP3    H236548   6.360   4.662  14.434  0.4102 -0.2259 -0.5226
 5045TIP3   OH236549   6.806   2.900   3.063  0.2895 -0.1609  0.5371
 5045TIP3    H136550   6.713   2.902   3.041  0.1487 -2.8512  0.4963
 5045TIP3    H236551   6.811   2.844   3.141  1.8629 -0.1430  0.4816
 5046TIP3   OH236552   1.107   4.149  13.656  0.1137  0.1147 -0.3178
 5046TIP3    H136553   1.069   4.078  13.709 -0.5194  0.9291  0.3464
 5046TIP3    H236554   1.199   4.125  13.645  0.5304  0.4395  2.0592
 5047TIP3   OH236555   6.175   1.220  10.994 -0.0838 -0.1566  0.0031
 5047TIP3    H136556   6.188   1.312  10.970 -0.6314 -0.4825 -1.6875
 5047TIP3    H236557   6.099   1.193  10.942 -0.7091 -1.2334  1.4195
 5048TIP3   OH236558   0.303   2.836   2.977 -0.6337 -0.4109  0.2073
 5048TIP3    H136559   0.215   2.829   2.939 -0.9619 -0.2590  0.9222
 5048TIP3    H236560   0.319   2.751   3.017 -0.4704 -0.4255  0.1108
 5049TIP3   OH236561   0.881   0.272   0.737 -0.1576 -0.4725  0.6897
 5049TIP3    H136562   0.824   0.198   0.753 -0.2243 -0.2427  1.5318
 5049TIP3    H236563   0.912   0.299   0.823  2.2663 -1.3987  0.2112
 5050TIP3   OH236564   1.585   6.349  16.002 -0.0392 -0.0529  0.2554
 5050TIP3    H136565   1.573   6.331  16.095  0.3966 -1.3126  0.0960
 5050TIP3    H236566   1.679   6.361  15.991  0.2134 -2.1527 -0.3353
 5051TIP3   OH236567   4.862   0.230   1.226  0.4825  0.0784 -0.0928
 5051TIP3    H136568   4.865   0.307   1.169 -2.2671  1.1790  1.0742
 5051TIP3    H236569   4.913   0.163   1.180 -0.0746  1.4834 -2.9320
 5052TIP3   OH236570   2.642   2.392   0.033 -0.1567  0.0697 -0.6237
 5052TIP3    H136571   2.654   2.472  -0.019 -1.5628 -0.0034 -1.0901
 5052TIP3    H236572   2.681   2.323  -0.019  0.1196  0.2769 -0.6984
 5053TIP3   OH236573   2.544   0.558  13.381 -0.1437  0.0794  0.0774
 5053TIP3    H136574   2.632   0.591  13.401 -0.6676  1.5654  0.1167
 5053TIP3    H236575   2.548   0.533  13.289 -0.1056  1.7725 -0.4172
 5054TIP3   OH236576   2.240   6.809  15.150  0.5048  0.2537 -0.0320
 5054TIP3    H136577   2.184   6.813  15.227  0.5695 -0.5786  0.0622
 5054TIP3    H236578   2.180   6.800  15.076  0.4894 -0.0062  0.0130
 5055TIP3   OH236579   3.949   5.586   2.995 -1.4936 -0.7506 -0.2109
 5055TIP3    H136580   3.861   5.584   3.031 -1.2304  0.9906  0.6191
 5055TIP3    H236581   3.984   5.672   3.020  0.3887 -1.3367 -0.6328
 5056TIP3   OH236582   2.250   0.730  16.640 -0.0412 -0.7978 -0.0086
 5056TIP3    H136583   2.190   0.797  16.675  1.0253  0.5541 -0.6833
 5056TIP3    H236584   2.225   0.722  16.548  1.2760  0.3595 -0.5002
 5057TIP3   OH236585   3.692   4.300  15.782  0.0962 -0.0329  0.7824
 5057TIP3    H136586   3.628   4.234  15.808 -0.6936  0.7161  0.7869
 5057TIP3    H236587   3.649   4.383  15.800  1.4893  0.5071  1.7803
 5058TIP3   OH236588   5.325   1.034  11.213 -0.0665  0.0944  0.7469
 5058TIP3    H136589   5.359   0.949  11.242 -1.0430  0.0737  1.9263
 5058TIP3    H236590   5.397   1.073  11.165  0.6336 -1.1233  0.7522
 5059TIP3   OH236591   1.857   1.823   5.209 -0.1019  0.2831  0.3081
 5059TIP3    H136592   1.869   1.918   5.211  0.3163  0.2230  1.9406
 5059TIP3    H236593   1.835   1.804   5.117 -0.5768  1.9822  0.0272
 5060TIP3   OH236594   1.893   3.834   0.566  0.1807 -0.2839  0.5101
 5060TIP3    H136595   1.804   3.864   0.585 -0.0486  0.4772 -1.4743
 5060TIP3    H236596   1.949   3.883   0.626 -0.6647 -0.1304  1.1831
 5061TIP3   OH236597   1.096   0.102   3.713 -0.4928 -0.0177 -0.4441
 5061TIP3    H136598   1.007   0.107   3.746 -0.9277  1.5571 -1.7057
 5061TIP3    H236599   1.112   0.188   3.674  1.6442 -0.1927 -0.1034
 5062TIP3   OH236600   0.151   4.529   0.486 -0.0701 -0.0143 -0.2875
 5062TIP3    H136601   0.080   4.505   0.546  0.4309 -3.2593 -0.8213
 5062TIP3    H236602   0.122   4.611   0.446 -2.2351  0.1741  1.4701
 5063TIP3   OH236603   5.077   2.149   3.536 -0.1434  0.0507 -0.1974
 5063TIP3    H136604   5.063   2.093   3.612 -1.6232  1.1874  0.4429
 5063TIP3    H236605   5.037   2.101   3.463 -1.2918  0.1893  0.3186
 5064TIP3   OH236606   3.923   1.429  13.995  0.1416  0.7635  1.0105
 5064TIP3    H136607   4.006   1.395  13.961 -0.7314  0.7670 -1.3876
 5064TIP3    H236608   3.909   1.382  14.077  1.9372 -0.0935  0.8681
 5065TIP3   OH236609   1.059   5.715  15.096 -0.4481  0.3770 -0.1138
 5065TIP3    H136610   1.021   5.682  15.015 -1.1159  1.8292 -0.4320
 5065TIP3    H236611   1.010   5.671  15.166 -0.5047 -0.1839 -0.5020
 5066TIP3   OH236612   1.264   6.815   0.212  0.8256  0.0004 -0.0861
 5066TIP3    H136613   1.199   6.822   0.141  1.0663 -2.4520 -0.6574
 5066TIP3    H236614   1.211   6.814   0.292  0.2642 -0.5016 -0.4496
 5067TIP3   OH236615   1.043   4.945   3.455 -0.5251  0.0740  0.4942
 5067TIP3    H136616   1.001   4.863   3.481 -0.2612  0.1669  1.2251
 5067TIP3    H236617   1.099   4.969   3.529 -0.7607  1.0329  0.3809
 5068TIP3   OH236618   2.621   3.949   0.152  0.0114  0.3185  0.0558
 5068TIP3    H136619   2.711   3.915   0.146  0.4048  1.2902  0.1791
 5068TIP3    H236620   2.588   3.915   0.235  0.4211  0.3039  0.2166
 5069TIP3   OH236621   0.788   4.079  12.990 -0.3997  0.1110  0.5390
 5069TIP3    H136622   0.755   3.994  12.964  1.1671  0.1330 -1.7739
 5069TIP3    H236623   0.872   4.060  13.032 -0.4162  0.4756  0.7445
 5070TIP3   OH236624   1.731   2.437   2.400  0.1193  0.5306  0.5060
 5070TIP3    H136625   1.779   2.406   2.324  0.4760  2.2283  0.0033
 5070TIP3    H236626   1.752   2.374   2.469  2.4805  0.7651  0.0995
 5071TIP3   OH236627   1.567   4.989   4.842  1.2769 -0.4636  0.1906
 5071TIP3    H136628   1.491   4.933   4.858  0.8733 -0.1529 -0.5575
 5071TIP3    H236629   1.544   5.073   4.881  2.2336 -1.0244  2.0711
 5072TIP3   OH236630   0.906   2.437   5.557 -0.5195 -0.0595  0.0768
 5072TIP3    H136631   0.874   2.356   5.596  0.1297 -0.9861 -1.2460
 5072TIP3    H236632   0.830   2.494   5.555 -1.0408 -0.7080  0.8404
 5073TIP3   OH236633   2.678   1.115  16.630 -0.1682 -0.2758  0.3456
 5073TIP3    H136634   2.648   1.028  16.657 -4.4677  0.4341 -1.3573
 5073TIP3    H236635   2.641   1.174  16.696  1.1737  0.4325  0.4868
 5074TIP3   OH236636   1.417   1.398   4.437 -0.0016 -0.2672  0.2107
 5074TIP3    H136637   1.391   1.394   4.529 -0.6385  1.5288  0.1553
 5074TIP3    H236638   1.346   1.355   4.390 -0.8999  0.9266  0.4048
 5075TIP3   OH236639   0.507   2.033   6.330  0.0466  0.3005  0.1690
 5075TIP3    H136640   0.563   1.955   6.333 -0.4880 -0.0662  1.2101
 5075TIP3    H236641   0.558   2.098   6.282  1.5446  0.1173  1.4332
 5076TIP3   OH236642   6.218   5.033  15.667 -0.7668 -0.2276  0.1965
 5076TIP3    H136643   6.173   5.075  15.740 -1.5382 -0.6282 -0.0290
 5076TIP3    H236644   6.241   4.946  15.700  1.3804  0.5406  0.8708
 5077TIP3   OH236645   0.767   3.150   2.260  0.4371 -0.3701 -0.7112
 5077TIP3    H136646   0.836   3.149   2.326  0.3216  1.3870 -0.5071
 5077TIP3    H236647   0.806   3.195   2.185  0.6298 -2.5092 -1.9667
 5078TIP3   OH236648   3.414   6.236  15.302  0.1279 -0.2154 -0.7251
 5078TIP3    H136649   3.446   6.197  15.384 -1.9288  1.2098  0.8524
 5078TIP3    H236650   3.350   6.173  15.269 -1.2738  0.5387  0.4393
 5079TIP3   OH236651   3.683   4.347  15.276  0.6579 -0.0829  0.3062
 5079TIP3    H136652   3.720   4.281  15.335  1.7973  1.4625  1.4088
 5079TIP3    H236653   3.692   4.429  15.324 -0.2039  0.9619 -1.2490
 5080TIP3   OH236654   1.421   4.665  13.012  0.5292  0.7522 -0.4111
 5080TIP3    H136655   1.413   4.597  12.945  1.3895 -0.8032  1.0181
 5080TIP3    H236656   1.333   4.704  13.017  0.3390  0.6129 -2.0993
 5081TIP3   OH236657   1.142   6.000   0.774  0.3673  0.7277  0.6011
 5081TIP3    H136658   1.072   5.949   0.733  1.7744 -1.6174  0.9298
 5081TIP3    H236659   1.114   6.091   0.766 -2.2835 -0.0736 -0.0383
 5082TIP3   OH236660   0.317   1.966   2.589  0.5762 -0.1992 -0.3525
 5082TIP3    H136661   0.324   2.059   2.567 -1.7827  0.1874  0.2452
 5082TIP3    H236662   0.315   1.964   2.685  0.4573 -0.8320 -0.3613
 5083TIP3   OH236663   4.774   3.593   6.062 -0.7339 -0.5376 -0.1782
 5083TIP3    H136664   4.691   3.638   6.041  0.3792  0.9006 -1.8107
 5083TIP3    H236665   4.802   3.633   6.144 -0.7449  0.4069 -0.6097
 5084TIP3   OH236666   3.013   3.486  12.094 -0.1879 -0.2017  0.2721
 5084TIP3    H136667   2.936   3.529  12.131 -0.4179  0.0161 -0.4591
 5084TIP3    H236668   3.087   3.526  12.140 -0.5078 -0.6040  1.1752
 5085TIP3   OH236669   1.849   5.383  15.311 -0.2344  0.4897  0.2262
 5085TIP3    H136670   1.758   5.358  15.297 -0.2094  0.5990 -0.1402
 5085TIP3    H236671   1.862   5.459  15.255 -0.0962  0.8692  0.7729
 5086TIP3   OH236672   0.208   4.875  16.419  0.0108  0.0373  0.4239
 5086TIP3    H136673   0.287   4.923  16.398  1.9522 -2.4399  1.4627
 5086TIP3    H236674   0.212   4.796  16.364 -3.4649  1.2332 -1.8721
 5087TIP3   OH236675   3.026   1.465  14.131  0.7103  0.5018 -0.7504
 5087TIP3    H136676   3.030   1.462  14.227 -1.8030 -0.2092 -0.5943
 5087TIP3    H236677   3.104   1.417  14.103  0.5354 -0.9003  0.9749
 5088TIP3   OH236678   5.888   6.463  15.648  0.0585  0.1091  0.3424
 5088TIP3    H136679   5.842   6.422  15.721  2.4480 -1.6674  0.9627
 5088TIP3    H236680   5.969   6.496  15.686 -0.4687  2.9298 -0.7482
 5089TIP3   OH236681   2.359   6.232   1.142 -0.1323  0.1416  0.5548
 5089TIP3    H136682   2.283   6.227   1.084 -0.9370  0.7704  1.5066
 5089TIP3    H236683   2.423   6.284   1.094  0.1246 -1.2621 -0.6928
 5090TIP3   OH236684   1.652   6.802   0.636  0.5172 -0.0000  0.4068
 5090TIP3    H136685   1.743   6.788   0.610 -0.1506 -1.6375 -1.2965
 5090TIP3    H236686   1.632   6.729   0.695  0.2330  0.1668  0.5200
 5091TIP3   OH236687   6.712   0.489  14.109 -0.5797  0.1562  0.0608
 5091TIP3    H136688   6.797   0.532  14.098 -0.6852  0.1058 -1.0118
 5091TIP3    H236689   6.729   0.396  14.090 -1.0701  0.3079 -1.2233
 5092TIP3   OH236690   0.733   5.803  15.093 -0.1881 -0.1432 -0.1254
 5092TIP3    H136691   0.707   5.879  15.145 -1.0769 -1.3663  1.3252
 5092TIP3    H236692   0.651   5.769  15.057  0.0545 -0.9858  0.0923
 5093TIP3   OH236693   0.656   2.215   6.199 -0.1236 -0.4383  0.3449
 5093TIP3    H136694   0.721   2.205   6.129 -0.6142 -0.8768 -0.0465
 5093TIP3    H236695   0.700   2.271   6.263  0.4848 -0.3709 -0.1172
 5094TIP3   OH236696   4.097   2.332  15.045 -0.2466  0.3331 -0.0510
 5094TIP3    H136697   4.021   2.276  15.058 -0.2717 -0.1191 -1.8331
 5094TIP3    H236698   4.089   2.364  14.955  2.3648 -0.9096 -0.8352
 5095TIP3   OH236699   5.956   0.963   5.061  0.0068  0.5220  0.0964
 5095TIP3    H136700   5.895   0.958   4.987 -0.5130 -0.2391  0.5675
 5095TIP3    H236701   5.995   0.876   5.065 -0.2445  0.4435  0.9534
 5096TIP3   OH236702   5.161   3.890   5.835  0.3276  0.9125 -0.3486
 5096TIP3    H136703   5.181   3.866   5.744 -1.4730 -1.2279 -0.2377
 5096TIP3    H236704   5.234   3.854   5.886  0.5976  0.8438 -0.7817
 5097TIP3   OH236705   0.325   2.042  16.157 -0.2415  0.2332  0.2073
 5097TIP3    H136706   0.255   1.984  16.187 -0.1616  0.5148  0.9731
 5097TIP3    H236707   0.301   2.128  16.192  0.1706  0.4543 -0.0462
 5098TIP3   OH236708   0.126   5.519   2.277  0.7168 -0.3934  0.3315
 5098TIP3    H136709   0.134   5.451   2.210 -0.2615 -1.0327  0.8245
 5098TIP3    H236710   0.031   5.533   2.285  0.8806  0.6580  0.6222
 5099TIP3   OH236711   2.145   3.044   3.358 -0.2732  0.5799 -0.0856
 5099TIP3    H136712   2.105   3.124   3.324 -0.4470  0.3503 -0.4235
 5099TIP3    H236713   2.176   2.997   3.280 -1.5032 -0.4012 -0.0207
 5100TIP3   OH236714   5.132   2.530  15.615 -0.2958  0.4458  0.7920
 5100TIP3    H136715   5.097   2.453  15.569 -1.4516  0.2279  1.9938
 5100TIP3    H236716   5.141   2.596  15.546 -0.9906 -0.1997  0.0586
 5101TIP3   OH236717   6.770   4.457   0.698  0.3696 -0.5695  0.8063
 5101TIP3    H136718   6.826   4.420   0.766 -0.3722  0.1881  1.8655
 5101TIP3    H236719   6.724   4.529   0.741 -1.8648 -1.5106  0.1623
 5102TIP3   OH236720   5.885   2.573  14.256  0.4178 -0.5220 -0.0803
 5102TIP3    H136721   5.972   2.588  14.219  0.3293 -1.1748 -0.5711
 5102TIP3    H236722   5.902   2.545  14.346  0.5767  3.1489  1.2077
 5103TIP3   OH236723   4.181   3.563   2.944 -0.2470  0.3212  0.5372
 5103TIP3    H136724   4.119   3.531   2.877 -2.0119  1.9743  1.2805
 5103TIP3    H236725   4.181   3.493   3.010 -1.0428  0.1145  0.3421
 5104TIP3   OH236726   3.509   1.294  15.369  0.2098  0.1328  0.0716
 5104TIP3    H136727   3.585   1.352  15.362  1.4475 -1.5793 -2.4318
 5104TIP3    H236728   3.490   1.269  15.279 -1.6161 -1.6546  0.8731
 5105TIP3   OH236729   5.176   0.475  14.015  0.2804  0.6847 -0.0346
 5105TIP3    H136730   5.118   0.542  14.053  0.1749  0.4541  0.2114
 5105TIP3    H236731   5.124   0.437  13.944  0.5259  1.2038 -0.4982
 5106TIP3   OH236732   6.248   0.276  13.052  0.1533  0.1069 -0.0364
 5106TIP3    H136733   6.274   0.218  12.980  0.6520  0.1268  0.1252
 5106TIP3    H236734   6.203   0.349  13.009  0.4849  0.1380 -0.3343
 5107TIP3   OH236735   0.422   3.329   4.779  0.2509 -0.0760 -0.4487
 5107TIP3    H136736   0.393   3.397   4.840  3.4771  2.1727 -1.1146
 5107TIP3    H236737   0.355   3.329   4.710 -1.8494 -0.4810  1.4827
 5108TIP3   OH236738   2.986   0.203   5.938 -0.0987  0.2317 -0.2286
 5108TIP3    H136739   2.944   0.183   5.854 -0.8468 -1.9785  0.6101
 5108TIP3    H236740   2.917   0.243   5.990 -0.3990 -0.8027  0.1911
 5109TIP3   OH236741   1.665   3.834   4.252  0.1239  0.0026 -0.6673
 5109TIP3    H136742   1.694   3.905   4.310  0.7149 -1.8030  1.3947
 5109TIP3    H236743   1.575   3.817   4.277  0.0998 -0.2200 -0.8991
 5110TIP3   OH236744   2.698   6.354  15.389  0.2620  0.0554 -0.1141
 5110TIP3    H136745   2.772   6.371  15.332 -0.3982  0.3098 -0.9180
 5110TIP3    H236746   2.657   6.440  15.401 -0.3129 -0.1953 -0.2620
 5111TIP3   OH236747   4.807   2.181  15.569 -0.6382  0.2198 -0.2511
 5111TIP3    H136748   4.767   2.197  15.655  0.6084  1.3023  0.1490
 5111TIP3    H236749   4.849   2.096  15.578  0.8158  1.0067  0.7561
 5112TIP3   OH236750   3.750   4.048  16.793 -0.4730 -0.2079  0.0034
 5112TIP3    H136751   3.741   3.996  16.873  0.0203 -1.5934 -0.7999
 5112TIP3    H236752   3.807   4.120  16.818 -0.9472 -0.1923  1.0907
 5113TIP3   OH236753   6.321   6.661   0.114 -0.3112 -0.4773  0.0536
 5113TIP3    H136754   6.351   6.646   0.204  1.0855 -2.2438 -0.6479
 5113TIP3    H236755   6.314   6.573   0.076 -1.2170  0.2092 -1.4854
 5114TIP3   OH236756   0.517   3.455  11.139  0.2484 -0.2330  0.5179
 5114TIP3    H136757   0.471   3.498  11.211  0.7317  1.5158 -0.1635
 5114TIP3    H236758   0.560   3.380  11.179 -0.9797 -0.3587  1.6861
 5115TIP3   OH236759   1.723   4.004   5.034  0.9685 -1.4569 -0.3836
 5115TIP3    H136760   1.730   3.948   4.956 -0.1309 -0.9719 -0.8593
 5115TIP3    H236761   1.629   4.019   5.043  1.1494 -0.8678  0.5889
 5116TIP3   OH236762   4.269   3.049  15.600 -0.0754  0.2471  0.1497
 5116TIP3    H136763   4.348   3.064  15.651 -0.5769  1.8684  0.5145
 5116TIP3    H236764   4.201   3.033  15.665 -0.4409  0.9508 -0.0395
 5117TIP3   OH236765   4.829   4.943  12.060 -0.6618  0.0266 -0.0633
 5117TIP3    H136766   4.736   4.928  12.044 -1.2360  0.8962  2.1452
 5117TIP3    H236767   4.868   4.942  11.973 -2.7956  0.1235 -1.0973
 5118TIP3   OH236768   3.037   0.047   1.206 -0.7001 -1.1428  0.1045
 5118TIP3    H136769   3.017  -0.000   1.125  0.5455 -1.1103 -0.2419
 5118TIP3    H236770   2.967   0.111   1.214  0.0564  0.0187 -1.8743
 5119TIP3   OH236771   6.530   3.615   1.382 -0.0022  0.4936 -0.4537
 5119TIP3    H136772   6.495   3.549   1.321  0.0433 -1.6668  1.6917
 5119TIP3    H236773   6.622   3.623   1.357  0.0472 -0.4563 -0.6363
 5120TIP3   OH236774   4.953   3.272   2.009  0.7802  0.1427  0.0424
 5120TIP3    H136775   4.939   3.256   1.915  0.2484 -0.4470  0.2192
 5120TIP3    H236776   4.893   3.344   2.030  0.7663  0.1511 -0.0242
 5121TIP3   OH236777   1.795   5.400   3.075  0.4679 -0.2551 -0.2081
 5121TIP3    H136778   1.822   5.492   3.080 -4.9381  1.6588  0.5922
 5121TIP3    H236779   1.805   5.367   3.164 -0.7181  0.7802  0.3481
 5122TIP3   OH236780   3.531   5.829  15.262 -0.2543 -0.4517 -0.1305
 5122TIP3    H136781   3.486   5.751  15.230 -1.9980 -0.0313  1.1769
 5122TIP3    H236782   3.479   5.859  15.336  0.3028  2.0275 -0.6476
 5123TIP3   OH236783   5.032   2.345   1.043 -0.0189  0.3789 -0.2836
 5123TIP3    H136784   4.964   2.370   0.980  0.1048  0.0531 -0.5529
 5123TIP3    H236785   5.109   2.329   0.989 -0.0031 -0.2358 -0.0878
 5124TIP3   OH236786   4.928   5.029   5.973 -0.5029  0.3247 -0.2732
 5124TIP3    H136787   4.989   5.101   5.989 -0.9694  0.8209 -0.7254
 5124TIP3    H236788   4.943   5.004   5.882 -0.8221  0.2991 -0.3190
 5125TIP3   OH236789   4.118   4.816  12.118  0.6505  0.9049  0.5444
 5125TIP3    H136790   4.110   4.806  12.023  0.2535  0.6116  0.6076
 5125TIP3    H236791   4.074   4.899  12.136 -0.4314  0.3270  0.6274
 5126TIP3   OH236792   4.903   5.633  11.919 -0.8156 -0.0367  0.2087
 5126TIP3    H136793   4.815   5.601  11.902 -0.2709 -1.7473  0.3645
 5126TIP3    H236794   4.949   5.558  11.957  0.9065  0.5874 -0.5075
 5127TIP3   OH236795   3.008   0.249   0.189 -0.2267  0.5626  0.2707
 5127TIP3    H136796   3.008   0.318   0.123 -0.4891 -0.2730 -0.6235
 5127TIP3    H236797   2.930   0.196   0.169  0.8738 -0.9817 -0.1592
 5128TIP3   OH236798   6.115   6.316  11.698 -0.2255 -0.3842 -0.1109
 5128TIP3    H136799   6.064   6.247  11.740 -0.2559  0.4433  1.2792
 5128TIP3    H236800   6.063   6.395  11.712  1.6905  0.6236  1.9961
 5129TIP3   OH236801   4.189   6.707  12.006 -0.2850 -0.3283 -0.0446
 5129TIP3    H136802   4.267   6.750  11.970  0.2213 -0.7992  0.4806
 5129TIP3    H236803   4.205   6.702  12.100 -1.4650  0.6059  0.2222
 5130TIP3   OH236804   1.247   0.251   0.611 -0.2509  0.0933 -0.0542
 5130TIP3    H136805   1.341   0.258   0.594 -0.0588  0.6839  1.1138
 5130TIP3    H236806   1.237   0.166   0.654 -0.0808  0.4821  0.7727
 5131TIP3   OH236807   3.880   4.927   5.526  0.3975  0.2628  0.1006
 5131TIP3    H136808   3.850   4.939   5.616  1.7079 -1.3626  0.7879
 5131TIP3    H236809   3.825   4.857   5.492  0.7642 -0.0102  0.0662
 5132TIP3   OH236810   1.573   1.310  11.634  0.2812  0.0655  0.1923
 5132TIP3    H136811   1.591   1.217  11.651 -2.9064 -1.3589 -2.7696
 5132TIP3    H236812   1.534   1.342  11.715 -0.9587 -2.0137  0.4965
 5133TIP3   OH236813   4.781   5.260   5.226  0.4137  0.8130  0.8970
 5133TIP3    H136814   4.756   5.343   5.266 -0.8566  0.5946  0.6155
 5133TIP3    H236815   4.738   5.193   5.279  0.8759  0.3784  0.7296
 5134TIP3   OH236816   6.169   0.860   5.256  0.2345 -0.1595 -0.0310
 5134TIP3    H136817   6.240   0.815   5.302 -1.6161 -3.4318 -0.0913
 5134TIP3    H236818   6.095   0.799   5.259 -2.7357  3.1110  0.2174
 5135TIP3   OH236819   4.614   4.106  12.605  0.2104 -0.0271 -0.6370
 5135TIP3    H136820   4.570   4.190  12.618 -0.7865 -0.4028 -1.4719
 5135TIP3    H236821   4.551   4.041  12.637 -1.0968 -0.7811 -4.2211
 5136TIP3   OH236822   6.180   4.528   2.486 -0.0159  0.3067  0.1930
 5136TIP3    H136823   6.162   4.442   2.448 -0.5019  1.7113 -3.0560
 5136TIP3    H236824   6.267   4.551   2.453  0.4923  0.7583  1.7524
 5137TIP3   OH236825   2.439   0.948   6.248  0.1701 -0.0291  0.1005
 5137TIP3    H136826   2.523   0.989   6.224  1.1242 -0.8525  1.8347
 5137TIP3    H236827   2.438   0.867   6.198 -0.5765  0.8978 -1.4624
 5138TIP3   OH236828   5.584   2.912   0.736  0.2892 -0.2180  0.2185
 5138TIP3    H136829   5.603   2.823   0.764 -0.3307 -0.6611 -0.7277
 5138TIP3    H236830   5.492   2.925   0.756 -0.2401 -0.6258 -1.7225
 5139TIP3   OH236831   2.683   3.514  13.215 -0.3121 -0.1681 -0.1511
 5139TIP3    H136832   2.655   3.441  13.159  0.8077 -0.7208 -0.0246
 5139TIP3    H236833   2.657   3.593  13.168 -0.1453 -0.6404 -1.0438
 5140TIP3   OH236834   0.255   2.172  14.872 -0.1781  0.5880  0.0204
 5140TIP3    H136835   0.244   2.131  14.786 -0.7748 -0.6111  0.6286
 5140TIP3    H236836   0.343   2.148  14.899 -0.0246  0.8847 -0.2188
 5141TIP3   OH236837   1.878   4.351  12.439 -0.3224 -0.3046  0.6030
 5141TIP3    H136838   1.789   4.330  12.410 -0.2083 -1.3969  0.9708
 5141TIP3    H236839   1.869   4.429  12.492 -0.7370  0.9369 -1.1887
 5142TIP3   OH236840   6.465   5.324  10.658 -0.2081  0.0746 -0.5214
 5142TIP3    H136841   6.521   5.285  10.725 -1.5475 -0.1665  0.5051
 5142TIP3    H236842   6.449   5.253  10.596 -1.8218 -0.8340  0.8173
 5143TIP3   OH236843   1.774   6.336   1.553 -0.3683 -0.4433  0.6890
 5143TIP3    H136844   1.759   6.273   1.624 -0.1553 -0.9002  0.3342
 5143TIP3    H236845   1.863   6.318   1.524 -0.9593 -1.2620 -0.6876
 5144TIP3   OH236846   5.659   5.035  10.696 -0.1941  0.2974  0.6329
 5144TIP3    H136847   5.569   5.065  10.705 -1.0280 -1.7657 -0.1874
 5144TIP3    H236848   5.712   5.115  10.701 -2.1121  1.6543  0.3080
 5145TIP3   OH236849   5.544   2.392  13.021 -0.0777  0.0784  0.2947
 5145TIP3    H136850   5.628   2.346  13.009  0.2470  0.6951  0.1770
 5145TIP3    H236851   5.543   2.459  12.953 -0.1206  0.8580  1.0436
 5146TIP3   OH236852   1.738   6.579   5.169 -0.1682  0.1747 -0.3182
 5146TIP3    H136853   1.663   6.625   5.131 -0.2592  0.0296 -0.3153
 5146TIP3    H236854   1.773   6.640   5.234 -0.4266  0.1519 -0.1525
 5147TIP3   OH236855   5.613   4.536  11.818 -0.8810 -0.4876 -0.2226
 5147TIP3    H136856   5.602   4.611  11.760 -2.2862  1.1136  1.9656
 5147TIP3    H236857   5.524   4.512  11.843 -0.4993 -3.1791 -1.1143
 5148TIP3   OH236858   4.729   2.921   3.123  0.2913  0.0026 -0.3499
 5148TIP3    H136859   4.763   2.991   3.179 -0.9158 -1.2232  2.0704
 5148TIP3    H236860   4.669   2.965   3.063 -2.3662  0.9024  2.7193
 5149TIP3   OH236861   3.109   6.813  12.062 -0.2311  0.6928 -0.3628
 5149TIP3    H136862   3.187   6.767  12.093  0.4157  1.0087 -1.4400
 5149TIP3    H236863   3.142   6.898  12.032 -1.0421  0.9498 -0.5594
 5150TIP3   OH236864   0.775   2.367   0.311 -0.3949 -0.1238 -0.1008
 5150TIP3    H136865   0.859   2.325   0.292 -0.2490 -0.3133  0.9064
 5150TIP3    H236866   0.796   2.431   0.379 -0.4508  2.1771 -2.1012
 5151TIP3   OH236867   1.056   4.318   2.719  0.2289 -0.6748 -0.3932
 5151TIP3    H136868   0.993   4.268   2.770  0.5662 -0.8216 -0.1188
 5151TIP3    H236869   1.133   4.325   2.775  0.2626 -0.0344 -0.5149
 5152TIP3   OH236870   1.843   6.528  14.950  0.3702 -0.5487 -0.6058
 5152TIP3    H136871   1.805   6.451  14.907  0.9060 -2.3111  1.8367
 5152TIP3    H236872   1.854   6.501  15.041  0.9268  2.3454  0.2765
 5153TIP3   OH236873   6.330   5.402  12.985  0.1898  0.0039  0.1455
 5153TIP3    H136874   6.294   5.490  12.974  1.0801  0.1834 -1.8070
 5153TIP3    H236875   6.382   5.387  12.906  0.7155 -1.9788  0.7946
 5154TIP3   OH236876   2.601   0.175   5.203 -0.0148 -0.1231  0.5151
 5154TIP3    H136877   2.606   0.207   5.112 -0.2574  0.8872  0.8397
 5154TIP3    H236878   2.566   0.086   5.195 -0.1311 -0.0153 -0.3788
 5155TIP3   OH236879   3.422   3.253  12.601  0.0634 -0.0837  0.1211
 5155TIP3    H136880   3.337   3.284  12.567  1.0050  0.9834 -1.4251
 5155TIP3    H236881   3.467   3.220  12.524  1.9294  1.5080  0.4569
 5156TIP3   OH236882   6.136   1.317   3.233 -0.3536  0.0276  0.1062
 5156TIP3    H136883   6.198   1.283   3.298 -0.6257 -0.1299  0.2831
 5156TIP3    H236884   6.181   1.304   3.149 -0.1209 -0.0339  0.2379
 5157TIP3   OH236885   2.854   6.669  16.334  0.0520 -0.2881 -0.0861
 5157TIP3    H136886   2.763   6.643  16.324 -0.5235 -0.5470  3.9467
 5157TIP3    H236887   2.850   6.757  16.371  1.4781 -0.0030 -0.5421
 5158TIP3   OH236888   0.448   1.276  12.938 -0.0084  0.2808 -0.3960
 5158TIP3    H136889   0.504   1.211  12.980  0.3126 -0.1211 -1.4075
 5158TIP3    H236890   0.361   1.260  12.975  0.1932 -0.3096 -0.1631
 5159TIP3   OH236891   2.020   0.848  14.452  0.3655 -0.0232  0.0730
 5159TIP3    H136892   2.030   0.921  14.514  0.3585  1.8128 -1.9703
 5159TIP3    H236893   1.969   0.884  14.380 -0.4859 -2.3805 -0.5884
 5160TIP3   OH236894   5.543   5.608  12.988  0.2314  0.4397 -0.2095
 5160TIP3    H136895   5.565   5.700  13.005  1.5003  0.8261 -3.2461
 5160TIP3    H236896   5.460   5.611  12.941 -1.2738 -0.2815  2.2282
 5161TIP3   OH236897   0.511   6.457  15.710  0.0705 -0.6404 -0.0051
 5161TIP3    H136898   0.423   6.494  15.721  0.7973  1.6026 -1.1859
 5161TIP3    H236899   0.528   6.411  15.792 -1.9759 -0.6901  0.4516
 5162TIP3   OH236900   5.238   3.842  10.936 -0.1831  0.4000 -0.2050
 5162TIP3    H136901   5.285   3.775  10.887 -0.2873  0.4223 -0.3370
 5162TIP3    H236902   5.150   3.807  10.946  0.2725 -0.3654  1.4367
 5163TIP3   OH236903   5.134   1.546  16.549  0.3778 -0.0356  0.0285
 5163TIP3    H136904   5.209   1.605  16.538 -1.3038  2.2557  0.1802
 5163TIP3    H236905   5.125   1.538  16.644 -0.6175  1.1815  0.0602
 5164TIP3   OH236906   5.246   3.389  13.622  0.0356  0.1486  0.0994
 5164TIP3    H136907   5.248   3.474  13.666 -1.0035  0.2284  0.0199
 5164TIP3    H236908   5.287   3.405  13.537  1.9317  0.0273  0.9519
 5165TIP3   OH236909   1.857   3.983  16.312 -0.1250  0.3891 -0.3507
 5165TIP3    H136910   1.768   3.962  16.285  0.0847 -1.2221  0.1223
 5165TIP3    H236911   1.908   3.905  16.291  1.1608  1.2226 -0.4755
 5166TIP3   OH236912   5.195   4.080   6.052  0.5691 -0.0943  0.0977
 5166TIP3    H136913   5.141   4.063   6.129 -0.1436 -0.4785 -0.4613
 5166TIP3    H236914   5.158   4.022   5.985 -0.4926  2.0016 -1.2516
 5167TIP3   OH236915   4.961   5.214   5.756  0.0032  0.3898  0.1533
 5167TIP3    H136916   5.051   5.247   5.754  0.6689 -1.3778 -0.3060
 5167TIP3    H236917   4.968   5.122   5.732 -1.8295 -0.0264  1.0074
 5168TIP3   OH236918   1.745   6.171   0.019  0.6319 -0.4430  0.5901
 5168TIP3    H136919   1.681   6.101   0.032  0.0760 -0.0268  0.1833
 5168TIP3    H236920   1.754   6.178  -0.076  0.8697 -0.1349  0.6318
 5169TIP3   OH236921   0.867   2.226  12.332  0.1060  0.4288 -0.0789
 5169TIP3    H136922   0.791   2.169  12.325 -0.1036  0.7524 -0.4729
 5169TIP3    H236923   0.931   2.175  12.382 -0.0990 -0.1228 -0.3707
 5170TIP3   OH236924   6.035   0.901  14.356 -0.0752  0.2417  0.1735
 5170TIP3    H136925   6.025   0.806  14.356 -0.1619  0.2498  0.1347
 5170TIP3    H236926   6.126   0.916  14.380  0.2355  0.1158 -0.8605
 5171TIP3   OH236927   3.813   3.937   5.331  0.1863 -0.2947 -0.0952
 5171TIP3    H136928   3.842   3.946   5.241  1.0755 -1.3240  0.0746
 5171TIP3    H236929   3.890   3.957   5.384  0.2398 -1.6463  0.3881
 5172TIP3   OH236930   5.932   5.281  12.830 -0.5521  0.0604  0.4698
 5172TIP3    H136931   5.950   5.319  12.744  0.1158 -0.2024  0.4861
 5172TIP3    H236932   5.861   5.219  12.815  0.8116 -1.3958 -0.2859
 5173TIP3   OH236933   5.261   2.808  11.182  0.5351 -0.5186 -0.0661
 5173TIP3    H136934   5.234   2.720  11.157 -1.4406 -0.4867  1.6850
 5173TIP3    H236935   5.299   2.845  11.103  0.3548 -2.5326 -1.1529
 5174TIP3   OH236936   1.715   1.415  15.388 -0.0017  0.1357 -0.0713
 5174TIP3    H136937   1.783   1.365  15.433 -0.4738 -1.0572 -0.6545
 5174TIP3    H236938   1.657   1.349  15.350 -1.0923  1.1273 -0.1991
 5175TIP3   OH236939   5.847   0.045  16.933  0.2527  0.0305 -0.2426
 5175TIP3    H136940   5.768   0.013  16.976  0.4585 -0.1571 -0.0009
 5175TIP3    H236941   5.867   0.128  16.976  0.7189 -0.3784  0.3480
 5176TIP3   OH236942   0.450   0.485  10.420  0.0793  0.0787  0.4351
 5176TIP3    H136943   0.481   0.545  10.489 -0.9270  0.0160  0.9555
 5176TIP3    H236944   0.355   0.493  10.423 -0.0226 -0.8763 -0.1094
 5177TIP3   OH236945   0.225   3.377  16.449  0.1168 -0.0541 -0.5088
 5177TIP3    H136946   0.252   3.302  16.501  0.1832  0.1211 -0.2906
 5177TIP3    H236947   0.275   3.368  16.367  1.0580  0.4032 -0.0051
 5178TIP3   OH236948   5.426   2.639  10.645 -0.9379  0.6194 -0.3788
 5178TIP3    H136949   5.351   2.609  10.696 -0.8476  1.6305  0.3706
 5178TIP3    H236950   5.501   2.598  10.687 -1.1021 -1.1617 -1.7022
 5179TIP3   OH236951   0.873   5.759  16.555 -0.0046  0.2717  0.1849
 5179TIP3    H136952   0.832   5.673  16.555 -0.3491  0.4225  1.2791
 5179TIP3    H236953   0.965   5.742  16.532  1.0822 -1.0209  4.6315
 5180TIP3   OH236954   3.268   6.411   4.534 -0.5887 -0.1584 -0.0217
 5180TIP3    H136955   3.220   6.442   4.457  0.7971  2.0727 -0.0625
 5180TIP3    H236956   3.253   6.478   4.601 -0.2621 -1.1229  1.0528
 5181TIP3   OH236957   6.782   6.143  14.207  0.2880 -0.2142 -0.3846
 5181TIP3    H136958   6.724   6.204  14.161  1.2867  0.2294 -1.0851
 5181TIP3    H236959   6.722   6.089  14.260 -0.6663  0.8791 -0.3135
 5182TIP3   OH236960   2.301   3.842  12.776  0.1444 -0.0833 -0.0059
 5182TIP3    H136961   2.215   3.884  12.783  0.6583  1.1806 -0.8493
 5182TIP3    H236962   2.299   3.799  12.691 -0.3675 -1.8454  0.8395
 5183TIP3   OH236963   0.333   4.768   2.207  0.0034 -0.3441  0.0844
 5183TIP3    H136964   0.338   4.825   2.284  0.7209 -2.5932  1.8175
 5183TIP3    H236965   0.267   4.702   2.231  2.2152 -2.7323  0.0351
 5184TIP3   OH236966   2.102   3.922  12.083 -0.5111  0.3196 -0.6706
 5184TIP3    H136967   2.056   3.889  12.160 -0.6185 -0.2237 -0.9580
 5184TIP3    H236968   2.042   3.904  12.010  0.0753 -0.2402 -1.0274
 5185TIP3   OH236969   3.207   1.886  12.140  0.1186 -0.3699 -0.1934
 5185TIP3    H136970   3.281   1.947  12.144 -0.0555 -0.1747  0.0568
 5185TIP3    H236971   3.231   1.824  12.071  0.7826 -0.6610  0.2956
 5186TIP3   OH236972   0.767   6.058   5.488 -0.1992 -0.2166 -0.2562
 5186TIP3    H136973   0.702   6.003   5.443 -1.7851 -1.1556  2.9410
 5186TIP3    H236974   0.816   5.997   5.543  0.5772  1.0711  0.5382
 5187TIP3   OH236975   5.895   2.886  11.606 -0.0802  0.2671  0.1653
 5187TIP3    H136976   5.932   2.943  11.539 -1.3495  0.1085 -0.7005
 5187TIP3    H236977   5.950   2.808  11.606 -0.6737 -0.1827 -1.4442
 5188TIP3   OH236978   5.579   4.786   3.753 -0.2423  0.0420  0.3315
 5188TIP3    H136979   5.642   4.757   3.688  0.8042  1.3593  0.7233
 5188TIP3    H236980   5.603   4.739   3.833 -0.6658 -0.5320  0.1276
 5189TIP3   OH236981   0.386   0.457   1.792  0.4329  0.3037  0.1681
 5189TIP3    H136982   0.367   0.524   1.726 -0.8411  2.0024  2.1034
 5189TIP3    H236983   0.477   0.433   1.776  0.7586  2.1003 -1.0086
 5190TIP3   OH236984   5.075   1.035   4.888 -0.3118 -0.5920  0.0878
 5190TIP3    H136985   5.145   1.062   4.948 -1.4941 -0.0287  1.2688
 5190TIP3    H236986   5.097   1.076   4.805  0.0127  0.8013  0.8240
 5191TIP3   OH236987   3.833   0.991   5.405 -0.3068 -0.2286 -0.3452
 5191TIP3    H136988   3.801   1.077   5.377  2.9562  1.4410  0.5286
 5191TIP3    H236989   3.851   0.944   5.323 -2.4032 -0.2621 -0.8308
 5192TIP3   OH236990   5.430   3.674  12.414 -0.0208 -0.1348  0.0482
 5192TIP3    H136991   5.446   3.726  12.493  3.3935 -0.9306  0.0470
 5192TIP3    H236992   5.435   3.738  12.343  1.4457 -0.0212  0.2263
 5193TIP3   OH236993   1.828   5.644   3.394  0.7098 -0.2730 -0.0344
 5193TIP3    H136994   1.834   5.730   3.435 -0.9741 -0.5227  0.8418
 5193TIP3    H236995   1.868   5.584   3.458  2.8390 -0.0833 -1.0875
 5194TIP3   OH236996   1.805   4.595  12.556 -0.2586  0.0064 -0.4277
 5194TIP3    H136997   1.733   4.613  12.616 -0.5391 -0.3632 -0.6414
 5194TIP3    H236998   1.884   4.619  12.604 -0.4343 -0.8768  0.3218
 5195TIP3   OH236999   3.116   5.984  12.365 -0.2142  0.4009 -0.1474
 5195TIP3    H137000   3.193   5.972  12.420  1.1235  1.1276 -1.7612
 5195TIP3    H237001   3.106   6.079  12.357 -0.1396  0.3213 -1.4223
 5196TIP3   OH237002   3.076   0.743  12.881  0.5133 -0.0962 -0.0346
 5196TIP3    H137003   3.086   0.812  12.946  1.4503  1.2289 -1.4965
 5196TIP3    H237004   3.078   0.662  12.932  1.4934  0.8620  1.5523
 5197TIP3   OH237005   2.081   5.788   2.842  0.1053 -0.3667  0.4445
 5197TIP3    H137006   2.118   5.874   2.823  0.3050  0.0390  2.4365
 5197TIP3    H237007   2.150   5.727   2.816 -0.1599  0.0151 -1.2878
 5198TIP3   OH237008   6.191   4.897  16.161  0.1812  0.1861  0.4076
 5198TIP3    H137009   6.199   4.809  16.197 -1.0335 -0.8371 -1.6445
 5198TIP3    H237010   6.276   4.938  16.176  0.8671 -1.4383  1.1071
 5199TIP3   OH237011   4.836   1.431  15.412 -0.1723 -0.3074 -0.2646
 5199TIP3    H137012   4.794   1.345  15.414 -1.7375  0.4054 -1.2763
 5199TIP3    H237013   4.765   1.493  15.400  0.9733  1.1252  0.0549
 5200TIP3   OH237014   3.904   1.625  15.302 -0.3668 -0.3023 -0.4685
 5200TIP3    H137015   3.931   1.714  15.322 -1.4441  0.1310 -0.8600
 5200TIP3    H237016   3.907   1.620  15.207 -2.5784  0.1172 -0.6271
 5201TIP3   OH237017   6.358   4.679   3.018  0.2388  0.1697  0.0129
 5201TIP3    H137018   6.324   4.726   3.094  2.3932 -0.8198  1.7118
 5201TIP3    H237019   6.295   4.609   3.003 -0.4066  0.6038  0.6337
 5202TIP3   OH237020   3.532   3.602   3.039 -0.4504 -0.0830 -0.1107
 5202TIP3    H137021   3.452   3.552   3.023 -1.3016 -0.0113  3.1917
 5202TIP3    H237022   3.513   3.689   3.004 -1.0666 -0.5702 -1.0236
 5203TIP3   OH237023   3.023   2.096   1.708  0.0216  0.9612 -1.0870
 5203TIP3    H137024   2.972   2.036   1.654  0.8380 -0.0710 -0.7456
 5203TIP3    H237025   3.113   2.083   1.679  0.9594 -1.7598  2.3097
 5204TIP3   OH237026   3.263   0.672   4.180 -0.1539  0.3449 -0.5890
 5204TIP3    H137027   3.315   0.618   4.121 -0.5788  0.9062 -1.5179
 5204TIP3    H237028   3.192   0.614   4.209  0.8432 -0.3533  0.5096
 5205TIP3   OH237029   0.980   3.755  13.542 -0.0802  0.1998  0.5905
 5205TIP3    H137030   1.007   3.664  13.526 -0.5537 -0.1864  1.8883
 5205TIP3    H237031   0.911   3.771  13.477  0.2544 -0.2430  0.1181
 5206TIP3   OH237032   2.510   6.364  14.042 -0.3641 -0.5852 -0.3873
 5206TIP3    H137033   2.483   6.454  14.025  1.4909  0.0861 -0.0376
 5206TIP3    H237034   2.451   6.334  14.111  1.1994  1.6656  2.1379
 5207TIP3   OH237035   1.178   4.377  12.481 -1.2119  0.0566  0.1262
 5207TIP3    H137036   1.165   4.327  12.401 -1.2061 -0.2375  0.3079
 5207TIP3    H237037   1.097   4.366  12.530 -1.4162  0.6570 -0.0652
 5208TIP3   OH237038   1.923   1.052  16.959 -0.1105 -0.1731 -0.6582
 5208TIP3    H137039   1.882   1.123  17.008  2.5895  0.2502  1.1928
 5208TIP3    H237040   1.851   0.993  16.936 -2.1701  2.1841 -0.6451
 5209TIP3   OH237041   5.873   2.578   0.778  0.1273 -0.6207 -0.3495
 5209TIP3    H137042   5.833   2.491   0.784 -0.6323 -0.2444  0.3185
 5209TIP3    H237043   5.833   2.617   0.700 -0.8312 -0.2509  0.3088
 5210TIP3   OH237044   0.171   5.664  11.920 -0.7128 -0.0060 -0.6278
 5210TIP3    H137045   0.260   5.656  11.885  0.0852  1.5712  0.8960
 5210TIP3    H237046   0.115   5.632  11.849  1.0316 -0.8129 -1.7256
 5211TIP3   OH237047   3.721   5.685   0.019  0.1681 -0.1961  0.1049
 5211TIP3    H137048   3.657   5.756   0.012  0.7837  0.4286  0.7133
 5211TIP3    H237049   3.785   5.705  -0.050  0.4851 -0.0024  0.4522
 5212TIP3   OH237050   1.375   4.050   5.447  0.0410  0.0514  0.4829
 5212TIP3    H137051   1.432   4.108   5.397 -0.9045  1.3645  0.8700
 5212TIP3    H237052   1.424   4.031   5.527  0.4655  0.1291  0.2379
 5213TIP3   OH237053   0.791   2.304  14.066  0.2038  0.0677 -0.8190
 5213TIP3    H137054   0.738   2.239  14.112 -0.6465  0.7407 -0.8076
 5213TIP3    H237055   0.753   2.308  13.978  0.1981  0.5953 -0.7965
 5214TIP3   OH237056   3.749   1.833   3.730 -0.2225  0.4570  0.3891
 5214TIP3    H137057   3.668   1.789   3.757  0.1058 -0.0203  0.6087
 5214TIP3    H237058   3.734   1.925   3.751 -0.8563  0.4393  0.0720
 5215TIP3   OH237059   5.320   0.424  12.191 -0.3782  0.4468  0.0626
 5215TIP3    H137060   5.284   0.488  12.252  0.5000 -1.6295  2.9439
 5215TIP3    H237061   5.414   0.425  12.207 -0.3063 -1.2968 -0.0063
 5216TIP3   OH237062   5.768   4.070  13.065  0.9636 -0.1683 -0.6899
 5216TIP3    H137063   5.770   4.122  12.984  0.0147  0.8412 -0.1009
 5216TIP3    H237064   5.709   4.119  13.123  1.2644 -1.1145  0.4503
 5217TIP3   OH237065   1.947   0.179   2.088 -0.1172  0.4275  0.2808
 5217TIP3    H137066   2.028   0.212   2.126  0.0557 -1.5902  1.8410
 5217TIP3    H237067   1.971   0.156   1.998  0.8137  0.6259  0.4717
 5218TIP3   OH237068   1.677   6.793   0.050  0.1285  0.7411  0.2478
 5218TIP3    H137069   1.583   6.775   0.062  0.1623  0.4748  0.1271
 5218TIP3    H237070   1.680   6.872  -0.002 -0.0298  0.8493  0.3986
 5219TIP3   OH237071   4.080   4.336   5.408  0.5385 -0.1040  0.0779
 5219TIP3    H137072   4.130   4.334   5.327 -0.2737  1.9705 -0.5396
 5219TIP3    H237073   4.123   4.404   5.461  0.9731 -1.3225  1.3612
 5220TIP3   OH237074   4.464   6.687  11.208 -0.4298 -0.0039  0.0866
 5220TIP3    H137075   4.511   6.712  11.129  2.0787 -0.9881  1.1677
 5220TIP3    H237076   4.504   6.739  11.278 -2.1212  0.3517  0.8483
 5221TIP3   OH237077   1.487   1.887   2.787 -0.5373  0.3992 -0.4249
 5221TIP3    H137078   1.471   1.932   2.704 -0.4249  0.9610 -0.1471
 5221TIP3    H237079   1.555   1.938   2.829 -1.7604  1.1065  0.7627
 5222TIP3   OH237080   5.383   2.152  12.517  0.1816 -0.0994 -0.1134
 5222TIP3    H137081   5.360   2.222  12.457 -1.1780 -1.3157 -1.0896
 5222TIP3    H237082   5.330   2.170  12.595 -0.0574  0.0428 -0.3061
 5223TIP3   OH237083   0.528   2.076  11.659  0.2775 -0.2365 -0.0735
 5223TIP3    H137084   0.515   1.986  11.687 -0.3609 -0.2363 -0.3541
 5223TIP3    H237085   0.622   2.092  11.674  0.4452 -1.0106 -0.2180
 5224TIP3   OH237086   2.034   5.661  14.215 -0.3052  0.5104  0.1013
 5224TIP3    H137087   1.991   5.666  14.130 -1.3918 -0.0947  0.5974
 5224TIP3    H237088   1.992   5.586  14.259  1.6919 -0.5204  0.3718
 5225TIP3   OH237089   1.850   6.143  13.670 -0.5224  0.0007 -0.0873
 5225TIP3    H137090   1.937   6.124  13.707 -0.8793  1.3567  1.5584
 5225TIP3    H237091   1.848   6.094  13.588  0.8947 -1.9934  0.9819
 5226TIP3   OH237092   0.179   4.683   3.847  0.2032  0.1308  0.0789
 5226TIP3    H137093   0.204   4.750   3.783  0.9344  1.1951  1.4033
 5226TIP3    H237094   0.214   4.602   3.812  1.4768  0.8528 -0.4049
 5227TIP3   OH237095   4.505   6.713   5.663  0.3779 -0.4862  0.2933
 5227TIP3    H137096   4.549   6.633   5.689  0.4506 -0.7287 -0.5543
 5227TIP3    H237097   4.576   6.773   5.639  0.2627 -1.0354 -1.5255
 5228TIP3   OH237098   3.155   3.965  14.586  0.8318  0.0461  0.4737
 5228TIP3    H137099   3.118   3.946  14.500 -1.8065  2.0311  1.0440
 5228TIP3    H237100   3.235   4.014  14.567  2.3087 -2.6420 -0.7951
 5229TIP3   OH237101   4.956   1.752  14.240  0.2273 -0.4302  0.1910
 5229TIP3    H137102   4.903   1.692  14.188  0.0657 -0.8490  0.8264
 5229TIP3    H237103   4.899   1.778  14.312  0.7180 -0.5132  0.6182
 5230TIP3   OH237104   0.686   3.689   0.230 -0.0763 -0.0722 -0.6819
 5230TIP3    H137105   0.695   3.659   0.139 -0.7225 -2.1850 -0.1072
 5230TIP3    H237106   0.615   3.753   0.227 -0.5482 -0.6173 -1.5699
 5231TIP3   OH237107   2.723   1.139   2.683 -0.3468 -0.8094  0.4249
 5231TIP3    H137108   2.710   1.175   2.595  0.2164 -0.6413  0.4081
 5231TIP3    H237109   2.694   1.048   2.675 -0.6006 -0.7098  0.1522
 5232TIP3   OH237110   5.554   0.142  12.340 -0.0935 -0.3265  0.6013
 5232TIP3    H137111   5.490   0.154  12.271  0.2541  0.5692  0.4166
 5232TIP3    H237112   5.509   0.169  12.420 -0.1229 -0.2295  0.5524
 5233TIP3   OH237113   3.238   3.342  10.034  0.0970 -0.4444  0.6847
 5233TIP3    H137114   3.145   3.346  10.059  0.0329  0.4275  0.3433
 5233TIP3    H237115   3.254   3.249  10.017 -1.5754 -0.3137 -2.4249
 5234TIP3   OH237116   4.829   5.336   3.433  0.1668  0.3601  0.1422
 5234TIP3    H137117   4.847   5.324   3.340 -0.4849  2.1243 -0.2629
 5234TIP3    H237118   4.891   5.404   3.461 -0.2623  0.5104  0.7531
 5235TIP3   OH237119   5.300   1.675  13.926  0.3392  0.1220  0.1768
 5235TIP3    H137120   5.243   1.746  13.953  1.4122  0.4728  1.6001
 5235TIP3    H237121   5.298   1.678  13.830 -2.0186  0.0904  0.1577
 5236TIP3   OH237122   0.957   5.874   5.167  0.7811  0.2312 -0.0190
 5236TIP3    H137123   0.886   5.934   5.190  0.1387 -1.0453  1.5625
 5236TIP3    H237124   0.984   5.901   5.079 -1.4389  0.9584 -0.5451
 5237TIP3   OH237125   5.952   5.057   5.278  0.4209 -0.3251 -0.2397
 5237TIP3    H137126   5.917   4.969   5.292 -0.6297 -0.1717 -1.7634
 5237TIP3    H237127   5.932   5.103   5.359 -1.3682 -0.7523 -0.3970
 5238TIP3   OH237128   0.920   6.248  15.795 -0.1017 -0.1029 -0.3929
 5238TIP3    H137129   0.891   6.163  15.761 -2.7233  0.5108  0.0565
 5238TIP3    H237130   0.854   6.309  15.765 -0.0903  1.2235  1.9927
 5239TIP3   OH237131   6.160   4.258  15.102  0.3354 -0.1054  0.4197
 5239TIP3    H137132   6.137   4.250  15.195 -1.8231  0.1257 -0.0381
 5239TIP3    H237133   6.243   4.306  15.102 -0.5251  1.5116  2.1689
 5240TIP3   OH237134   1.702   2.247  16.651 -0.1431 -0.1756  0.8023
 5240TIP3    H137135   1.784   2.226  16.607 -0.9798 -0.3621 -0.7354
 5240TIP3    H237136   1.652   2.298  16.588 -1.2825 -0.1959  1.6353
 5241TIP3   OH237137   1.635   2.063  12.316  0.2996  0.7407  0.1421
 5241TIP3    H137138   1.662   2.078  12.407  0.5015  0.6570  0.0970
 5241TIP3    H237139   1.541   2.043  12.322  0.6127 -0.7553  0.5007
 5242TIP3   OH237140   0.954   2.311   1.464 -0.1470 -0.2674 -0.0020
 5242TIP3    H137141   0.903   2.259   1.401 -1.2703  1.4267 -0.5770
 5242TIP3    H237142   1.043   2.310   1.429 -0.0687 -1.9998  0.1597
 5243TIP3   OH237143   6.726   1.108   0.604  0.9296  0.0226  0.5856
 5243TIP3    H137144   6.652   1.049   0.620  0.7581  0.7038  2.6201
 5243TIP3    H237145   6.727   1.120   0.509 -1.5820 -0.0171  0.4855
 5244TIP3   OH237146   2.619   0.217   3.783  0.0339 -0.4327  0.4855
 5244TIP3    H137147   2.685   0.149   3.777  2.4315  1.8164 -0.6648
 5244TIP3    H237148   2.579   0.219   3.696  2.1684  1.5391 -0.5618
 5245TIP3   OH237149   5.150   6.573   4.847 -0.3360 -0.6959  0.2137
 5245TIP3    H137150   5.110   6.602   4.765 -0.9303  1.6709  1.2384
 5245TIP3    H237151   5.234   6.535   4.821  0.0942  1.2053 -1.4408
 5246TIP3   OH237152   4.927   0.652   6.030 -0.1361 -0.0489 -0.2619
 5246TIP3    H137153   4.839   0.666   6.064 -0.3713 -0.2375 -0.7852
 5246TIP3    H237154   4.937   0.557   6.026 -0.6944 -0.0712 -2.1456
 5247TIP3   OH237155   4.432   1.666  16.964  0.1596 -0.0820 -0.2187
 5247TIP3    H137156   4.444   1.588  17.019 -3.5746  0.8954  2.3978
 5247TIP3    H237157   4.483   1.734  17.007  2.6367 -0.6867 -1.9635
 5248TIP3   OH237158   0.717   0.558  16.522  0.0120 -0.2547 -0.0481
 5248TIP3    H137159   0.758   0.476  16.553  1.2216  0.0219 -0.8719
 5248TIP3    H237160   0.668   0.532  16.444  0.1558 -0.2501 -0.1404
 5249TIP3   OH237161   0.374   1.433   3.984 -0.0614 -0.2020 -0.0797
 5249TIP3    H137162   0.427   1.411   4.060  0.3294  0.1275 -0.2532
 5249TIP3    H237163   0.339   1.520   4.003 -1.4202 -0.8396  0.5048
 5250TIP3   OH237164   6.698   5.024  13.343  0.2268 -0.2272  0.1961
 5250TIP3    H137165   6.610   4.989  13.359  0.1789  0.3638  1.3260
 5250TIP3    H237166   6.757   4.960  13.382  0.4981 -1.8146 -2.5335
 5251TIP3   OH237167   4.964   2.754  10.905  0.0313 -0.1432  0.3378
 5251TIP3    H137168   4.929   2.773  10.818  1.2074 -0.9306 -0.3382
 5251TIP3    H237169   4.944   2.833  10.956 -2.4440 -0.4475 -0.0376
 5252TIP3   OH237170   2.932   2.330  12.712 -0.2312 -0.2213  0.0040
 5252TIP3    H137171   2.923   2.383  12.792 -2.3721 -0.0857 -0.2802
 5252TIP3    H237172   2.986   2.383  12.654  1.6607 -0.4725  1.4472
 5253TIP3   OH237173   3.710   0.668  16.093 -0.0664 -0.7525  0.2255
 5253TIP3    H137174   3.691   0.660  16.187  1.3940 -0.4697  0.5744
 5253TIP3    H237175   3.750   0.755  16.085  0.6910 -1.1601 -0.4977
 5254TIP3   OH237176   4.661   6.048  14.140 -0.2694  0.0981 -0.5438
 5254TIP3    H137177   4.645   6.007  14.055 -0.6789 -0.0109 -0.4171
 5254TIP3    H237178   4.753   6.072  14.138 -0.6230  1.5297 -1.6515
 5255TIP3   OH237179   3.403   1.404  15.796 -0.6561 -0.4583 -0.0058
 5255TIP3    H137180   3.452   1.481  15.825 -0.9948 -0.3605  0.3065
 5255TIP3    H237181   3.470   1.345  15.762 -0.3248 -0.3008  0.3653
 5256TIP3   OH237182   5.630   4.772  14.302 -0.2985 -0.0354  0.6487
 5256TIP3    H137183   5.593   4.731  14.224 -2.0138  1.2079  0.7705
 5256TIP3    H237184   5.639   4.864  14.280  0.2325  0.1482  1.5636
 5257TIP3   OH237185   5.723   3.514   1.015 -0.6237 -0.0307 -0.1921
 5257TIP3    H137186   5.665   3.478   0.948  0.2056 -0.6047 -0.6197
 5257TIP3    H237187   5.676   3.503   1.097 -1.4443  0.2300 -0.6175
 5258TIP3   OH237188   6.430   1.359   6.204 -0.7841  0.3111 -0.3711
 5258TIP3    H137189   6.453   1.388   6.292 -0.4800  2.0097 -0.9613
 5258TIP3    H237190   6.487   1.411   6.146 -1.4868 -0.2315 -1.5931
 5259TIP3   OH237191   1.645   0.200   4.014  0.0722 -0.0570  0.1904
 5259TIP3    H137192   1.727   0.154   4.033 -0.6153 -2.0845 -1.3881
 5259TIP3    H237193   1.580   0.156   4.068 -0.3315  0.1705 -0.1048
 5260TIP3   OH237194   0.499   5.706  15.515 -0.0599 -0.6621  0.5276
 5260TIP3    H137195   0.411   5.738  15.497 -0.2402 -1.1136  0.6191
 5260TIP3    H237196   0.514   5.639  15.449  0.5929  0.0917 -0.1183
 5261TIP3   OH237197   2.160   3.841   4.935  0.1667 -0.2221 -0.3362
 5261TIP3    H137198   2.236   3.852   4.993 -0.7944 -0.1393  0.9408
 5261TIP3    H237199   2.152   3.747   4.922 -1.0127 -0.4481  1.6456
 5262TIP3   OH237200   6.477   0.616  15.515 -0.1660  0.0540  0.0373
 5262TIP3    H137201   6.445   0.638  15.603  2.0244  1.0898  0.6388
 5262TIP3    H237202   6.426   0.673  15.457 -1.6264 -0.6286  0.6045
 5263TIP3   OH237203   0.828   2.550   0.527  0.2453 -0.5450  0.1551
 5263TIP3    H137204   0.922   2.567   0.520  0.0233  0.1633 -1.5866
 5263TIP3    H237205   0.798   2.606   0.598  0.8420  0.5899 -0.4753
 5264TIP3   OH237206   5.003   2.826  12.665 -0.2275  0.2910  0.6688
 5264TIP3    H137207   5.067   2.863  12.605 -0.8243 -1.2941 -1.0646
 5264TIP3    H237208   4.932   2.796  12.608 -0.1709 -2.6307  1.9399
 5265TIP3   OH237209   4.689   1.368   3.110 -0.3021  0.0995  0.1848
 5265TIP3    H137210   4.597   1.381   3.131 -0.0935  0.3733  0.9349
 5265TIP3    H237211   4.716   1.295   3.166  0.0116  0.2080  0.1757
 5266TIP3   OH237212   3.766   5.251   2.744  0.5995 -0.1163 -0.1948
 5266TIP3    H137213   3.670   5.253   2.744  0.5438 -0.8574  1.5868
 5266TIP3    H237214   3.790   5.273   2.834  2.1149  0.2669 -0.6819
 5267TIP3   OH237215   3.310   4.064  16.621  0.0404 -0.7374 -0.6091
 5267TIP3    H137216   3.230   4.118  16.626  0.8405  0.4959 -0.5774
 5267TIP3    H237217   3.381   4.126  16.641  0.8964 -2.1137  0.8324
 5268TIP3   OH237218   5.535   4.977  16.646  0.3774  0.4173  0.0272
 5268TIP3    H137219   5.619   5.005  16.682  1.5359 -0.4103 -1.8760
 5268TIP3    H237220   5.508   5.049  16.590 -0.7168  1.0929  1.3566
 5269TIP3   OH237221   5.276   4.835  16.351 -0.3067  0.0978  0.5586
 5269TIP3    H137222   5.357   4.817  16.398 -0.4883 -0.9338  0.4993
 5269TIP3    H237223   5.287   4.793  16.266 -0.6103  0.5866  0.2728
 5270TIP3   OH237224   1.200   0.186  15.220 -0.0240  0.0798  0.6583
 5270TIP3    H137225   1.261   0.113  15.231 -1.5858 -1.2978  0.5565
 5270TIP3    H237226   1.254   0.258  15.188  1.3740 -1.3555 -0.3478
 5271TIP3   OH237227   5.934   0.207   0.740  0.0878 -0.0902  0.0196
 5271TIP3    H137228   5.897   0.168   0.661  0.1970  0.1817 -0.1661
 5271TIP3    H237229   5.857   0.227   0.794  0.0969 -2.1931  0.9088
 5272TIP3   OH237230   6.003   6.185   6.594  0.3792  0.5957 -0.4087
 5272TIP3    H137231   6.055   6.150   6.666  3.2966  1.2870 -2.0188
 5272TIP3    H237232   5.928   6.126   6.587  1.7901 -1.5081  1.0117
 5273TIP3   OH237233   0.514   0.803  12.892  0.6686  1.1644 -0.2601
 5273TIP3    H137234   0.563   0.875  12.932 -1.1280  0.2412  4.1580
 5273TIP3    H237235   0.557   0.724  12.924 -1.7560  0.3697  1.3238
 5274TIP3   OH237236   4.822   1.662  16.873  0.1622 -0.0251  0.0158
 5274TIP3    H137237   4.914   1.683  16.857 -0.3695  2.3427 -0.2782
 5274TIP3    H237238   4.824   1.579  16.920  2.3779 -0.6055 -1.0094
 5275TIP3   OH237239   4.514   6.441  12.448 -0.1618  0.3590  0.5254
 5275TIP3    H137240   4.592   6.495  12.461 -0.6131  0.8546  1.3059
 5275TIP3    H237241   4.458   6.462  12.524 -1.5335  0.8849 -0.5818
 5276TIP3   OH237242   2.826   2.079   6.527  0.0337 -0.1921 -0.2992
 5276TIP3    H137243   2.798   2.034   6.607  0.7104  1.2957  0.8181
 5276TIP3    H237244   2.750   2.071   6.468 -0.5371 -1.1797  0.5308
 5277TIP3   OH237245   3.066   1.934   5.366  0.2092  0.2925 -0.2211
 5277TIP3    H137246   2.984   1.983   5.358 -0.7440 -0.8781  1.7427
 5277TIP3    H237247   3.101   1.959   5.451  0.7990 -0.8564 -0.1153
 5278TIP3   OH237248   3.247   6.296  16.372  0.3757  0.2194 -0.4785
 5278TIP3    H137249   3.299   6.233  16.422  1.0813  0.6487 -0.6667
 5278TIP3    H237250   3.242   6.373  16.429  0.5040  0.4166 -0.7303
 5279TIP3   OH237251   2.325   3.035  11.515 -0.8283 -0.0384  0.6361
 5279TIP3    H137252   2.230   3.051  11.514 -1.0353 -1.2046  0.5945
 5279TIP3    H237253   2.359   3.097  11.579 -1.8263 -0.6906  1.8345
 5280TIP3   OH237254   1.745   3.421   0.723 -0.0712 -0.6537 -0.2864
 5280TIP3    H137255   1.703   3.337   0.743 -0.5361 -0.5033 -0.6057
 5280TIP3    H237256   1.798   3.403   0.646  0.8274 -0.9564  0.3887
 5281TIP3   OH237257   1.731   6.317  14.768 -0.3537 -0.2656  0.5577
 5281TIP3    H137258   1.739   6.224  14.790  2.4362 -0.3731 -0.5498
 5281TIP3    H237259   1.638   6.330  14.751 -0.6534 -3.1771 -0.5466
 5282TIP3   OH237260   6.264   6.335   3.580  0.1959 -0.0703  0.1783
 5282TIP3    H137261   6.295   6.343   3.671 -0.2979  0.2506  0.3189
 5282TIP3    H237262   6.343   6.349   3.527  0.6678 -1.1417  0.5649
 5283TIP3   OH237263   3.259   2.673   1.243 -0.3373 -0.2650  0.5275
 5283TIP3    H137264   3.186   2.635   1.292  0.2831 -3.3257 -0.6994
 5283TIP3    H237265   3.337   2.630   1.280  0.3913 -0.4881 -1.1800
 5284TIP3   OH237266   5.944   3.270   2.099 -0.1657  0.1172 -0.0083
 5284TIP3    H137267   6.016   3.216   2.131  0.8623 -0.4744 -3.0227
 5284TIP3    H237268   5.867   3.215   2.109  0.0072  0.1058  1.6523
 5285TIP3   OH237269   6.104   0.587  12.533 -0.2960 -0.3446 -0.2737
 5285TIP3    H137270   6.083   0.656  12.596 -2.1651  0.0771 -1.3004
 5285TIP3    H237271   6.174   0.624  12.479 -0.9642  0.5931 -0.5196
 5286TIP3   OH237272   1.321   6.437  13.232  0.4298 -0.2879 -0.5011
 5286TIP3    H137273   1.376   6.403  13.303  1.8798 -0.3732 -1.6248
 5286TIP3    H237274   1.288   6.520  13.265  1.6572  0.0157  0.0232
 5287TIP3   OH237275   5.567   0.825   1.659  0.1862 -0.0092 -0.1363
 5287TIP3    H137276   5.604   0.749   1.613 -0.2819  0.4169 -1.2629
 5287TIP3    H237277   5.574   0.896   1.595  0.2866  0.8124  0.7772
 5288TIP3   OH237278   5.807   0.909   1.311  0.1141 -0.6350  0.1461
 5288TIP3    H137279   5.847   0.833   1.268  0.6382 -0.6711  0.6850
 5288TIP3    H237280   5.881   0.961   1.342 -0.2267  0.3858 -0.6829
 5289TIP3   OH237281   3.578   1.229  13.123  0.0270 -0.1575  0.6752
 5289TIP3    H137282   3.551   1.137  13.127 -0.3545 -0.0546  0.4844
 5289TIP3    H237283   3.497   1.277  13.103 -0.1318  0.3906  2.4013
 5290TIP3   OH237284   6.724   2.541   0.504  0.0586  0.6029  0.5491
 5290TIP3    H137285   6.808   2.568   0.540 -0.2731  1.2409  0.8464
 5290TIP3    H237286   6.667   2.617   0.513 -0.7276 -0.0068  0.8930
 5291TIP3   OH237287   1.941   0.117  15.457 -0.0069  0.2344  0.1473
 5291TIP3    H137288   1.991   0.052  15.407 -0.4171  0.4728 -0.5827
 5291TIP3    H237289   1.967   0.102  15.548 -0.7610 -1.5635  0.1141
 5292TIP3   OH237290   3.107   5.788   4.793  0.6642 -0.2791 -0.0821
 5292TIP3    H137291   3.129   5.746   4.876  1.4761  0.8363  0.2879
 5292TIP3    H237292   3.188   5.785   4.743  0.5135  0.1522 -0.3533
 5293TIP3   OH237293   4.188   4.643  16.653 -0.2184  0.1883  0.9612
 5293TIP3    H137294   4.275   4.611  16.676 -0.1324 -0.3183 -0.0232
 5293TIP3    H237295   4.128   4.574  16.682 -0.3041  0.5553  1.6772
 5294TIP3   OH237296   0.002   0.485   0.897  0.0685 -0.2089 -0.3163
 5294TIP3    H137297   0.097   0.495   0.893  0.0297 -0.2443 -1.6014
 5294TIP3    H237298  -0.013   0.392   0.876 -0.1882 -0.5226  1.1474
 5295TIP3   OH237299   6.161   3.584   4.573 -0.4590 -0.2194  0.0827
 5295TIP3    H137300   6.247   3.627   4.574 -0.0643 -1.0003  0.3043
 5295TIP3    H237301   6.121   3.614   4.491  0.0867  0.0331 -0.1036
 5296TIP3   OH237302   6.344   5.434   0.616  1.0327 -0.0285 -0.5032
 5296TIP3    H137303   6.369   5.370   0.682  1.3796 -0.0029 -0.6073
 5296TIP3    H237304   6.266   5.397   0.574  1.0193 -0.2092 -0.3196
 5297TIP3   OH237305   1.078   4.094   1.466 -0.3213 -0.1250  0.4256
 5297TIP3    H137306   1.095   4.152   1.391 -0.8354  0.6083  0.8577
 5297TIP3    H237307   1.138   4.021   1.454  0.6632  0.7075  0.0883
 5298TIP3   OH237308   5.281   4.395  11.879 -0.1715  0.2862 -0.3198
 5298TIP3    H137309   5.350   4.349  11.926 -1.0611 -0.4547  0.2885
 5298TIP3    H237310   5.286   4.361  11.789 -0.6444 -0.8252  0.0562
 5299TIP3   OH237311   0.060   6.153  12.069 -0.1218 -0.0432  0.0732
 5299TIP3    H137312   0.075   6.195  11.984 -0.5291  1.2952  0.6217
 5299TIP3    H237313   0.030   6.065  12.048 -2.4461  0.9609 -1.2725
 5300TIP3   OH237314   0.739   3.210   2.930 -0.5917  0.2617  0.0838
 5300TIP3    H137315   0.706   3.189   3.017 -1.0071  1.6217  0.2821
 5300TIP3    H237316   0.710   3.137   2.875 -0.0549 -0.7664  1.1265
 5301TIP3   OH237317   4.211   4.092  11.637  0.6805 -0.5599 -0.0684
 5301TIP3    H137318   4.163   4.021  11.681 -0.6678 -0.2810 -1.0140
 5301TIP3    H237319   4.230   4.057  11.550  1.0957 -0.1973 -0.1218
 5302TIP3   OH237320   2.746   4.458  16.846 -0.3014 -0.6213 -0.1361
 5302TIP3    H137321   2.777   4.370  16.866  0.0731 -0.3118  0.7292
 5302TIP3    H237322   2.795   4.484  16.768  0.8447 -0.5458  0.5884
 5303TIP3   OH237323   5.657   1.491  11.512 -0.8539 -0.1010  0.1595
 5303TIP3    H137324   5.731   1.471  11.568 -2.8076 -1.6152  2.4167
 5303TIP3    H237325   5.659   1.423  11.444  0.3213  0.4720 -0.4151
 5304TIP3   OH237326   1.010   1.169  14.618 -0.3384 -0.0713  0.0691
 5304TIP3    H137327   1.052   1.209  14.694 -0.0442 -0.5233  0.1515
 5304TIP3    H237328   1.002   1.076  14.642 -2.2382  0.1518  0.4481
 5305TIP3   OH237329   1.601   4.114   0.684  0.1504  0.2640  0.0253
 5305TIP3    H137330   1.564   4.102   0.596 -1.0863 -0.1998  0.5907
 5305TIP3    H237331   1.633   4.028   0.708 -1.1927 -0.0603  0.7503
 5306TIP3   OH237332   1.655   0.607  12.582  0.6767 -0.1795 -0.8409
 5306TIP3    H137333   1.732   0.649  12.545  1.5251 -1.4904 -0.6597
 5306TIP3    H237334   1.681   0.515  12.594 -0.8330 -0.6105 -0.5519
 5307TIP3   OH237335   6.034   4.322  14.789 -0.2494 -0.3994 -0.2153
 5307TIP3    H137336   6.064   4.378  14.717  0.5896  0.2188  0.5903
 5307TIP3    H237337   6.110   4.316  14.848 -0.2603 -2.5066 -0.3379
 5308TIP3   OH237338   5.526   6.043   4.621  0.2807  0.3076  0.1594
 5308TIP3    H137339   5.564   5.989   4.552 -0.6725 -0.0073 -0.1402
 5308TIP3    H237340   5.433   6.019   4.623 -0.4351  2.6524 -0.7127
 5309TIP3   OH237341   6.169   5.582   5.186 -0.8276  0.0354 -0.3801
 5309TIP3    H137342   6.187   5.490   5.203  1.7475  0.5696  0.1114
 5309TIP3    H237343   6.094   5.602   5.242  1.2856 -0.7473  3.0185
 5310TIP3   OH237344   4.704   2.763  13.568  0.2024 -0.2074  0.0039
 5310TIP3    H137345   4.671   2.758  13.478  1.8763 -1.3075 -0.5874
 5310TIP3    H237346   4.681   2.852  13.596 -1.8125 -0.3907 -0.8877
 5311TIP3   OH237347   4.221   6.739   3.729 -0.1057 -0.4014 -0.0745
 5311TIP3    H137348   4.175   6.774   3.805 -0.2775  0.6524 -0.6466
 5311TIP3    H237349   4.151   6.708   3.671 -0.0890  0.5931 -0.6520
 5312TIP3   OH237350   1.339   5.567  16.955  0.1809  0.2247  0.4934
 5312TIP3    H137351   1.301   5.639  17.005 -1.3276 -0.1884 -0.0317
 5312TIP3    H237352   1.421   5.548  17.001  0.0149  1.4465  1.3655
 5313TIP3   OH237353   2.912   1.537  15.988 -0.2604  0.4432 -0.5860
 5313TIP3    H137354   2.936   1.472  15.922 -0.7586  0.1088 -0.4445
 5313TIP3    H237355   2.941   1.499  16.071 -0.3836  0.4818 -0.5240
 5314TIP3   OH237356   0.233   2.346   0.965  0.7092  0.1509 -0.3135
 5314TIP3    H137357   0.251   2.354   1.058 -0.5698 -1.1920  0.0908
 5314TIP3    H237358   0.228   2.436   0.933  2.4024  0.6135  0.6303
 5315TIP3   OH237359   4.794   1.897   1.640  0.3431 -0.0642  0.7106
 5315TIP3    H137360   4.885   1.895   1.610 -0.3302 -0.9278 -1.4837
 5315TIP3    H237361   4.748   1.949   1.574 -0.6444  0.9601  2.1730
 5316TIP3   OH237362   5.564   3.272   5.124 -0.1141  0.1726 -0.2113
 5316TIP3    H137363   5.584   3.203   5.061  1.6686 -0.9228  1.4453
 5316TIP3    H237364   5.604   3.351   5.087 -0.8500  0.0079 -1.3921
 5317TIP3   OH237365   5.002   0.162  11.533 -0.1283 -0.7853 -0.0657
 5317TIP3    H137366   4.985   0.167  11.627  0.0154 -1.2594 -0.0145
 5317TIP3    H237367   4.915   0.156  11.494 -0.2331  0.2890 -0.0215
 5318TIP3   OH237368   4.571   5.813   1.746  0.0480  0.4985  0.3723
 5318TIP3    H137369   4.550   5.815   1.839 -0.8083 -0.8655  0.2482
 5318TIP3    H237370   4.656   5.770   1.741  0.9432  2.1562  0.6045
 5319TIP3   OH237371   3.017   1.073   6.038  0.3160 -0.2461 -0.2933
 5319TIP3    H137372   2.998   1.142   6.101 -0.4345 -0.1496 -0.6170
 5319TIP3    H237373   3.027   0.993   6.091  2.0456  0.2245  0.1741
 5320TIP3   OH237374   1.108   5.899  14.776  0.0574  0.4598  0.1181
 5320TIP3    H137375   1.071   5.912  14.864  0.9508 -1.3851  0.8262
 5320TIP3    H237376   1.110   5.804  14.765 -3.9175  0.5217 -3.6666
 5321TIP3   OH237377   2.263   4.195  16.856 -0.1210 -1.1548  0.3561
 5321TIP3    H137378   2.286   4.220  16.767  2.2700  0.4157  1.3080
 5321TIP3    H237379   2.346   4.171  16.897 -0.5164  1.4516  3.0732
 5322TIP3   OH237380   3.900   1.162   2.311  0.2066  0.2373  0.8821
 5322TIP3    H137381   3.847   1.134   2.236  1.7154  1.3686 -0.6779
 5322TIP3    H237382   3.962   1.090   2.324 -0.5631 -0.3201  1.6114
 5323TIP3   OH237383   4.048   3.328  12.087 -0.0270  0.4523 -0.8184
 5323TIP3    H137384   3.990   3.285  12.150 -2.4579  2.2615 -1.6813
 5323TIP3    H237385   4.024   3.291  12.002  1.0179  0.3106 -1.0670
 5324TIP3   OH237386   1.661   4.622  14.237  0.3537 -0.2031 -0.3531
 5324TIP3    H137387   1.753   4.627  14.209  0.3425 -0.4502 -0.4367
 5324TIP3    H237388   1.616   4.584  14.162  0.3240 -0.8826 -0.0007
 5325TIP3   OH237389   2.396   2.295  11.079 -0.1932 -0.4628  0.2941
 5325TIP3    H137390   2.433   2.293  11.167  0.4214 -2.3222  0.0276
 5325TIP3    H237391   2.415   2.384  11.047  2.0250 -0.6300  1.0171
 5326TIP3   OH237392   4.313   4.889  15.548  0.7076 -0.2355  0.3939
 5326TIP3    H137393   4.299   4.979  15.520  1.1996 -0.3045 -0.0976
 5326TIP3    H237394   4.243   4.839  15.505  0.6972 -0.1547  0.3190
 5327TIP3   OH237395   0.118   5.479  13.247  0.3266  0.9226  0.0705
 5327TIP3    H137396   0.076   5.564  13.235  0.0040  0.7896  0.2415
 5327TIP3    H237397   0.046   5.419  13.268  0.3168  0.2089 -1.8620
 5328TIP3   OH237398   4.300   5.011   0.276 -0.5045 -0.1861 -0.2879
 5328TIP3    H137399   4.216   5.002   0.321  0.7674 -0.0264  2.3187
 5328TIP3    H237400   4.328   5.100   0.298  1.2165 -0.9114  0.6166
 5329TIP3   OH237401   6.239   3.861  15.409 -0.0771  0.2501 -0.2099
 5329TIP3    H137402   6.314   3.811  15.438 -0.3556  0.8434  1.6985
 5329TIP3    H237403   6.171   3.796  15.390  0.8763 -0.2892 -2.0106
 5330TIP3   OH237404   1.314   4.475  16.318  0.4367  0.3180  0.2970
 5330TIP3    H137405   1.261   4.494  16.241  2.0167  1.0555 -0.6619
 5330TIP3    H237406   1.316   4.557  16.366  0.6779  0.2836  0.3459
 5331TIP3   OH237407   2.026   1.137  13.216 -0.0423 -0.7483  0.3256
 5331TIP3    H137408   1.964   1.192  13.166  2.3771  0.6692 -1.3202
 5331TIP3    H237409   1.997   1.146  13.307 -1.9538  0.2367 -0.3098
 5332TIP3   OH237410   4.443   3.162  14.889 -0.0089  1.1215 -0.3222
 5332TIP3    H137411   4.494   3.243  14.879  2.9367 -0.5869 -0.2734
 5332TIP3    H237412   4.425   3.135  14.799 -0.2203  1.3578 -0.3535
 5333TIP3   OH237413   6.431   0.967   0.363 -0.0196 -0.4925 -0.1811
 5333TIP3    H137414   6.522   0.990   0.346 -0.0174 -0.2556  0.1494
 5333TIP3    H237415   6.405   1.023   0.436 -1.2449  1.4535 -1.9614
 5334TIP3   OH237416   6.539   6.130   2.677  0.2606 -0.1607  0.2757
 5334TIP3    H137417   6.600   6.134   2.603  0.2732  1.9093  0.3369
 5334TIP3    H237418   6.489   6.212   2.671 -0.2752 -0.3097  2.1064
 5335TIP3   OH237419   3.986   2.490  12.859 -0.4743 -0.4962 -0.3086
 5335TIP3    H137420   4.030   2.449  12.784  0.2923 -0.0484 -0.1084
 5335TIP3    H237421   3.991   2.584  12.841 -2.6423 -0.4667 -0.9969
 5336TIP3   OH237422   6.297   6.647   6.289 -0.2236 -0.7127 -0.2307
 5336TIP3    H137423   6.377   6.596   6.275  0.2352  0.3226 -1.5697
 5336TIP3    H237424   6.258   6.655   6.202 -0.4431  0.9285 -0.0156
 5337TIP3   OH237425   2.368   1.138   2.049  1.2579  0.3908 -0.2718
 5337TIP3    H137426   2.376   1.044   2.068 -1.4746  0.2282  0.5254
 5337TIP3    H237427   2.359   1.179   2.135  1.0303  1.2053 -0.6723
 5338TIP3   OH237428   6.177   1.997  13.123  0.1647  0.2985 -0.0702
 5338TIP3    H137429   6.177   1.977  13.029 -1.7891 -0.1241 -0.0175
 5338TIP3    H237430   6.242   1.936  13.160 -1.5790 -2.1093 -0.7114
 5339TIP3   OH237431   5.759   1.268  15.410  0.4643 -0.3723  0.2401
 5339TIP3    H137432   5.680   1.260  15.357  0.1304  3.2924 -0.0381
 5339TIP3    H237433   5.829   1.290  15.347  0.2736  2.9237  0.9816
 5340TIP3   OH237434   2.158   6.423  13.434 -0.0187  0.0076  0.5315
 5340TIP3    H137435   2.246   6.386  13.434 -0.4554 -1.2735 -2.0504
 5340TIP3    H237436   2.136   6.435  13.527  1.4615 -3.0783  1.3911
 5341TIP3   OH237437   3.273   5.352  14.027 -0.2197  0.4772  0.0211
 5341TIP3    H137438   3.190   5.309  14.006  0.0419 -2.2401  3.6725
 5341TIP3    H237439   3.329   5.331  13.952 -1.6303 -1.2921 -0.6237
 5342TIP3   OH237440   1.446   6.259   2.547 -0.4921  0.0303  0.1391
 5342TIP3    H137441   1.519   6.255   2.610  0.7502  1.3994 -1.1252
 5342TIP3    H237442   1.373   6.294   2.597  0.0147 -0.3482  1.1812
 5343TIP3   OH237443   3.180   4.511   4.695 -0.0055 -1.0588  0.2273
 5343TIP3    H137444   3.103   4.527   4.750  1.9296  0.7625  2.7005
 5343TIP3    H237445   3.198   4.418   4.706 -0.3030 -0.9624  1.9143
 5344TIP3   OH237446   0.260   1.916   0.340  0.4654  0.5708  0.1674
 5344TIP3    H137447   0.291   2.007   0.344  0.8945  0.4334  0.0185
 5344TIP3    H237448   0.200   1.908   0.414  0.9801  0.7732  0.6156
 5345TIP3   OH237449   6.639   0.759   5.538  0.1217  0.2052 -0.1443
 5345TIP3    H137450   6.626   0.671   5.573  1.2715 -0.0696 -0.3529
 5345TIP3    H237451   6.550   0.792   5.521 -0.3128 -1.0248 -0.3412
 5346TIP3   OH237452   2.947   2.400   2.623  0.0712  0.1438 -0.2345
 5346TIP3    H137453   2.859   2.366   2.640 -1.1943  3.1052 -0.2926
 5346TIP3    H237454   2.933   2.481   2.575  2.8649  0.7929 -0.1431
 5347TIP3   OH237455   3.984   3.635  16.866 -0.4509  0.2826  0.2027
 5347TIP3    H137456   3.924   3.566  16.840  0.0322 -0.4645  1.0209
 5347TIP3    H237457   3.983   3.697  16.793 -1.6041 -0.1093 -0.1257
 5348TIP3   OH237458   6.055   2.361  16.345 -0.1272 -0.0246 -0.0985
 5348TIP3    H137459   6.002   2.372  16.424  0.5981  3.9447  0.0755
 5348TIP3    H237460   6.144   2.383  16.373 -0.0169  2.5523 -2.0829
 5349TIP3   OH237461   2.188   2.407   3.645  0.4754  0.6235  0.6344
 5349TIP3    H137462   2.248   2.347   3.600 -1.4029 -1.1412  0.3141
 5349TIP3    H237463   2.231   2.426   3.728  1.5403 -0.5077  0.3752
 5350TIP3   OH237464   1.602   3.810   3.739  0.0526 -0.0719  0.1447
 5350TIP3    H137465   1.687   3.811   3.693 -0.2693 -0.6294 -0.4856
 5350TIP3    H237466   1.622   3.839   3.827  0.7868  0.5157 -0.2021
 5351TIP3   OH237467   6.686   1.408   4.917  0.1199  0.1049 -0.4250
 5351TIP3    H137468   6.594   1.395   4.894 -0.3776  1.0620  0.9020
 5351TIP3    H237469   6.683   1.463   4.996  1.8248  0.0223 -0.2798
 5352TIP3   OH237470   5.852   0.764  15.439  0.3569  0.3160  0.0032
 5352TIP3    H137471   5.789   0.759  15.510  0.4904  0.3367  0.1247
 5352TIP3    H237472   5.856   0.857  15.416 -2.1940 -0.0523 -2.3131
 5353TIP3   OH237473   2.694   6.077  15.938  0.0341  0.5298 -0.4558
 5353TIP3    H137474   2.747   6.153  15.965 -1.8476  1.7734 -0.1074
 5353TIP3    H237475   2.684   6.087  15.843 -1.3960  1.5672 -0.2296
 5354TIP3   OH237476   0.056   2.571  12.024 -0.5706 -0.3426 -0.1435
 5354TIP3    H137477   0.071   2.578  12.118  0.0782 -0.7341 -0.2082
 5354TIP3    H237478   0.128   2.515  11.993 -1.0401 -0.5961 -0.7967
 5355TIP3   OH237479   2.868   0.897   1.862 -0.4121 -0.3536 -0.3278
 5355TIP3    H137480   2.935   0.829   1.855  0.6356  0.5973  0.0024
 5355TIP3    H237481   2.839   0.912   1.772 -1.0652 -1.6068 -0.3435
 5356TIP3   OH237482   3.708   5.174   5.314 -0.5299 -0.1066 -0.5378
 5356TIP3    H137483   3.656   5.095   5.328  0.6580 -0.8616 -0.1666
 5356TIP3    H237484   3.733   5.202   5.403  0.8390 -0.5858 -0.7434
 5357TIP3   OH237485   2.570   4.051  16.948 -0.7228 -0.7469 -0.1868
 5357TIP3    H137486   2.591   4.109  17.022 -0.2656 -1.4944  0.2823
 5357TIP3    H237487   2.487   4.010  16.973 -2.2594  1.3366 -1.5217
 5358TIP3   OH237488   3.689   5.045  12.289  0.0367  0.0339 -0.7519
 5358TIP3    H137489   3.676   5.052  12.384  1.3456 -1.1467 -0.4485
 5358TIP3    H237490   3.702   5.135  12.261  0.0305  0.3727  0.2664
 5359TIP3   OH237491   5.634   3.138   5.464 -0.6008 -0.5340 -0.5133
 5359TIP3    H137492   5.546   3.110   5.439 -1.5534  0.3933  1.5886
 5359TIP3    H237493   5.630   3.233   5.461  0.6129 -0.4915 -1.2103
 5360TIP3   OH237494   5.550   3.400   5.377 -0.6611 -0.1058 -0.4832
 5360TIP3    H137495   5.455   3.412   5.369 -0.7081 -1.0954 -1.7585
 5360TIP3    H237496   5.574   3.351   5.298  0.6212 -1.4670  0.6956
 5361TIP3   OH237497   1.036   3.455   0.784  0.3425 -0.0945  0.3434
 5361TIP3    H137498   1.091   3.378   0.769 -0.5010 -0.6208 -0.1075
 5361TIP3    H237499   1.095   3.530   0.771  0.6454 -0.6183 -1.4701
 5362TIP3   OH237500   4.002   4.752   0.868  0.0701  0.0528  0.5346
 5362TIP3    H137501   3.926   4.745   0.925 -0.7396 -0.6393 -0.6008
 5362TIP3    H237502   3.966   4.758   0.780  1.2837  1.2630  0.0790
 5363TIP3   OH237503   5.225   3.079  13.419 -0.2484  0.1599 -0.1771
 5363TIP3    H137504   5.259   3.164  13.445  1.0018 -0.5182  0.5405
 5363TIP3    H237505   5.244   3.072  13.326  0.0476  0.4878 -0.1427
 5364TIP3   OH237506   6.049   4.653  13.355  0.1662  0.1957 -0.4545
 5364TIP3    H137507   6.118   4.624  13.294  1.3788  0.9134  0.5251
 5364TIP3    H237508   6.097   4.693  13.427 -1.2507 -0.2708  0.7933
 5365TIP3   OH237509   0.739   3.866  15.621 -0.1580  0.8807 -0.4131
 5365TIP3    H137510   0.709   3.884  15.532 -0.8894  0.1705 -0.3144
 5365TIP3    H237511   0.694   3.930  15.676 -0.0323  1.0411 -0.4954
 5366TIP3   OH237512   2.285   2.432   4.069  0.1752  0.3190  0.0082
 5366TIP3    H137513   2.318   2.454   3.982  0.7462 -1.1856 -0.1895
 5366TIP3    H237514   2.322   2.499   4.127  0.8345  0.5938 -0.7233
 5367TIP3   OH237515   2.595   3.939  13.767  0.2195  0.3313 -0.1503
 5367TIP3    H137516   2.532   3.911  13.700 -0.7827  0.5828  0.6566
 5367TIP3    H237517   2.555   4.017  13.805  0.2820 -0.3825  1.4234
 5368TIP3   OH237518   4.517   5.499   1.837  0.1968 -0.4545  0.4540
 5368TIP3    H137519   4.490   5.535   1.752  0.3465 -0.2825  0.4782
 5368TIP3    H237520   4.523   5.575   1.894  1.1274 -0.4311  0.3445
 5369TIP3   OH237521   1.396   2.987   2.569 -0.0694 -0.1983  0.1865
 5369TIP3    H137522   1.348   2.965   2.490 -1.4037  0.2930  0.8367
 5369TIP3    H237523   1.329   3.002   2.635  1.0140 -0.6495  1.4403
 5370TIP3   OH237524   3.287   0.691  15.749  0.6528  0.5471 -0.0442
 5370TIP3    H137525   3.235   0.771  15.756 -1.5941 -0.9006  1.1088
 5370TIP3    H237526   3.375   0.717  15.777 -0.1360  2.4711  0.8209
 5371TIP3   OH237527   3.326   0.013  16.045  0.3357  0.4128 -1.0340
 5371TIP3    H137528   3.341  -0.031  15.961  0.6565  0.5173 -1.0325
 5371TIP3    H237529   3.365  -0.046  16.110 -3.3090 -1.6906 -0.4825
 5372TIP3   OH237530   3.534   1.063   1.707 -0.3692  0.2128 -0.3618
 5372TIP3    H137531   3.499   1.005   1.639  0.7673  0.4924 -1.2229
 5372TIP3    H237532   3.551   1.005   1.781  0.1896 -0.4652 -1.0019
 5373TIP3   OH237533   1.658   0.345  15.711 -0.0285  0.2831 -0.0159
 5373TIP3    H137534   1.738   0.335  15.764 -0.2453  0.0850  0.2752
 5373TIP3    H237535   1.683   0.313  15.625  0.7561  1.9538 -0.4378
 5374TIP3   OH237536   3.232   1.130  16.253 -0.1432  0.1024 -0.2829
 5374TIP3    H137537   3.263   1.121  16.343 -0.6108  0.0530 -0.1193
 5374TIP3    H237538   3.173   1.055  16.241 -1.1648  0.8747 -0.1646
 5375TIP3   OH237539   5.531   1.118  15.259  0.2948 -0.2587 -0.2534
 5375TIP3    H137540   5.523   1.132  15.165  1.8115  0.2650 -0.3425
 5375TIP3    H237541   5.444   1.135  15.294 -0.1579  0.0737 -1.5077
 5376TIP3   OH237542   6.038   3.021   4.173 -0.0391 -0.1908  0.1114
 5376TIP3    H137543   5.998   3.108   4.170 -1.1456 -0.7158 -0.8837
 5376TIP3    H237544   6.054   2.999   4.081  0.5034 -0.9251  0.3731
 5377TIP3   OH237545   0.130   6.759   2.683 -0.4697  0.0003 -0.5065
 5377TIP3    H137546   0.180   6.786   2.760  1.0023  0.0758 -1.4335
 5377TIP3    H237547   0.146   6.829   2.619  1.2203 -1.6705 -2.0341
 5378TIP3   OH237548   0.384   3.717  15.338 -0.1312 -0.7207 -0.1143
 5378TIP3    H137549   0.467   3.751  15.304  0.5347 -3.3752 -1.3902
 5378TIP3    H237550   0.402   3.625  15.356 -1.9267 -0.6223  2.7646
 5379TIP3   OH237551   4.222   4.113   5.712 -0.3939  0.9283 -0.0852
 5379TIP3    H137552   4.245   4.110   5.805  2.5909 -2.2043 -0.7150
 5379TIP3    H237553   4.274   4.185   5.676 -0.8790  1.5732  0.4869
 5380TIP3   OH237554   6.170   6.127   1.881  0.3406 -0.2364  0.5965
 5380TIP3    H137555   6.196   6.209   1.924 -1.0009  0.0134  0.9892
 5380TIP3    H237556   6.097   6.152   1.824  1.4355 -0.7582 -1.0938
 5381TIP3   OH237557   6.791   0.948   5.404 -0.9154  0.2457  0.6907
 5381TIP3    H137558   6.734   1.017   5.369 -1.3328  0.2296  1.3310
 5381TIP3    H237559   6.732   0.888   5.448 -0.6300 -0.8651 -0.3732
 5382TIP3   OH237560   5.801   5.598   6.532  0.5129  0.1265  0.0833
 5382TIP3    H137561   5.726   5.653   6.555  0.9349  0.6961  0.1252
 5382TIP3    H237562   5.858   5.602   6.608  0.0742 -1.2210  0.4979
 5383TIP3   OH237563   1.926   1.452  11.168 -0.5382 -0.3090  0.2250
 5383TIP3    H137564   1.852   1.486  11.118 -0.3834 -0.7182 -0.2833
 5383TIP3    H237565   1.966   1.386  11.111  1.0044  0.8068 -0.0476
 5384TIP3   OH237566   3.301   1.117   4.213 -0.3201  0.3915 -0.3228
 5384TIP3    H137567   3.269   1.088   4.299  1.4885 -2.0707 -0.3337
 5384TIP3    H237568   3.387   1.155   4.232 -0.1167  0.2666 -0.9804
 5385TIP3   OH237569   5.252   6.443  11.558  0.1050 -0.5919 -0.1328
 5385TIP3    H137570   5.204   6.505  11.503 -2.3078 -2.5542 -0.3739
 5385TIP3    H237571   5.222   6.461  11.647 -0.3284 -1.1267 -0.1625
 5386TIP3   OH237572   3.869   1.367   4.381 -0.3893  0.0178 -0.2741
 5386TIP3    H137573   3.887   1.297   4.443  1.5840  0.1109 -0.6860
 5386TIP3    H237574   3.818   1.325   4.311 -1.2710 -0.4344  0.6207
 5387TIP3   OH237575   1.228   6.611   5.309  0.2313 -0.0932  0.3549
 5387TIP3    H137576   1.212   6.703   5.332  0.2514 -0.1444  0.5754
 5387TIP3    H237577   1.323   6.602   5.314  0.2854  0.0379 -0.2975
 5388TIP3   OH237578   2.108   6.096  14.744 -0.2203  0.3345  0.5080
 5388TIP3    H137579   2.165   6.173  14.741 -0.2455  0.3663  0.8504
 5388TIP3    H237580   2.076   6.093  14.834 -0.5173  0.1396  0.3964
 5389TIP3   OH237581   0.736   2.330  17.019 -0.5779  0.2879  0.1565
 5389TIP3    H137582   0.748   2.425  17.021 -1.6269  0.4486 -0.4234
 5389TIP3    H237583   0.662   2.314  17.078 -1.2902 -0.0035 -0.7829
 5390TIP3   OH237584   3.192   1.183   0.402  0.3200 -0.1700  1.0670
 5390TIP3    H137585   3.173   1.275   0.421  1.6341 -0.2468  3.0371
 5390TIP3    H237586   3.286   1.181   0.386 -0.1997 -0.6211 -2.9918
 5391TIP3   OH237587   0.870   1.165   5.114 -0.3461  0.1195 -0.0420
 5391TIP3    H137588   0.829   1.112   5.046  0.0891  0.7962 -0.8331
 5391TIP3    H237589   0.805   1.233   5.134  0.2171  0.9568 -1.0176
 5392TIP3   OH237590   3.698   6.672  11.782 -0.2951  0.3449  0.2194
 5392TIP3    H137591   3.708   6.686  11.688 -0.6454 -1.8519 -0.2154
 5392TIP3    H237592   3.776   6.712  11.822  0.9414 -0.5129 -1.2335
 5393TIP3   OH237593   1.925   6.027   0.545  0.5636 -0.5627 -0.1666
 5393TIP3    H137594   1.932   6.112   0.502  0.8402 -0.3106  0.3650
 5393TIP3    H237595   1.998   5.976   0.509  1.7981  0.1823  1.1658
 5394TIP3   OH237596   6.675   0.138  15.571  0.1539  0.2252 -0.0740
 5394TIP3    H137597   6.633   0.161  15.488 -1.0633 -0.1076  0.4292
 5394TIP3    H237598   6.675   0.221  15.620 -1.0321 -0.0199  0.3794
 5395TIP3   OH237599   6.549   6.190   4.367 -0.1976 -0.2845 -0.1035
 5395TIP3    H137600   6.634   6.205   4.409  0.0846 -2.9418  0.4559
 5395TIP3    H237601   6.570   6.141   4.288 -1.1626 -0.6697 -0.1334
 5396TIP3   OH237602   1.560   3.148   3.087  0.1540  0.3761  0.0499
 5396TIP3    H137603   1.642   3.116   3.049  0.3159 -0.1471  0.8119
 5396TIP3    H237604   1.528   3.213   3.025  0.9126  0.2493 -0.4821
 5397TIP3   OH237605   3.588   3.658  15.314  0.8582 -1.0064 -0.2028
 5397TIP3    H137606   3.598   3.625  15.403  0.8897 -0.0157  0.1654
 5397TIP3    H237607   3.516   3.606  15.278 -1.1782  0.5317  1.3942
 5398TIP3   OH237608   4.267   0.068   1.854  0.1791  0.1264 -0.3333
 5398TIP3    H137609   4.300  -0.018   1.827  0.7137  0.4181 -0.6349
 5398TIP3    H237610   4.340   0.128   1.837  0.8450  0.2360  2.4360
 5399TIP3   OH237611   4.200   1.136   0.740  0.0771 -0.1811 -0.4662
 5399TIP3    H137612   4.179   1.153   0.648 -0.7656 -3.0234 -0.8865
 5399TIP3    H237613   4.286   1.094   0.738 -0.1795 -0.7474 -0.0263
 5400TIP3   OH237614   3.648   5.700  14.964 -0.4259 -0.0193  0.0875
 5400TIP3    H137615   3.733   5.744  14.966 -0.4743  0.0619  0.9513
 5400TIP3    H237616   3.667   5.609  14.985 -0.7375  0.3982  2.6397
 5401TIP3   OH237617   0.782   1.277   1.523  0.2024  0.0510 -1.1063
 5401TIP3    H137618   0.818   1.316   1.444 -1.4436  0.3368 -1.7553
 5401TIP3    H237619   0.750   1.351   1.574 -0.2615 -0.2491 -0.9573
 5402TIP3   OH237620   1.177   0.026   4.431  0.1950 -0.2141  0.2042
 5402TIP3    H137621   1.201   0.081   4.356 -0.0693  0.8512  0.8835
 5402TIP3    H237622   1.240   0.050   4.499  0.1736 -0.8799  0.4599
 5403TIP3   OH237623   2.374   2.063   1.107 -0.4743 -0.2188  0.2136
 5403TIP3    H137624   2.281   2.042   1.119 -0.6940  0.9422  0.6679
 5403TIP3    H237625   2.411   2.059   1.195 -0.1344 -0.4838  0.0594
 5404TIP3   OH237626   2.265   1.640   5.252  0.4132  0.4391 -0.1747
 5404TIP3    H137627   2.292   1.601   5.335  0.2825  1.0958  0.1855
 5404TIP3    H237628   2.169   1.642   5.256  0.1965 -2.2369 -1.6127
 5405TIP3   OH237629   1.492   6.811   2.939 -0.5137 -0.3902  0.0263
 5405TIP3    H137630   1.522   6.782   2.853  0.6229  1.0877 -0.1143
 5405TIP3    H237631   1.402   6.841   2.925 -0.1998  0.2077 -0.7461
 5406TIP3   OH237632   3.782   3.316  15.786  1.0117 -0.2176  0.4498
 5406TIP3    H137633   3.869   3.351  15.805  0.1680  2.3306 -0.0701
 5406TIP3    H237634   3.722   3.372  15.835 -0.3924 -1.5793  0.3691
 5407TIP3   OH237635   1.615   6.349  15.105  0.0252  0.0952 -0.0436
 5407TIP3    H137636   1.639   6.300  15.184 -0.5827  1.1880  0.8401
 5407TIP3    H237637   1.619   6.284  15.035 -0.4280 -1.1432  1.0414
 5408TIP3   OH237638   0.797   6.418   5.787 -0.1145 -0.2379 -0.5643
 5408TIP3    H137639   0.855   6.344   5.769 -1.1605 -1.6495  1.4264
 5408TIP3    H237640   0.829   6.453   5.871 -2.8070 -1.9694  1.3754
 5409TIP3   OH237641   0.591   2.275  14.735  0.3588  0.1675 -0.3595
 5409TIP3    H137642   0.626   2.237  14.654  1.9005 -0.4550  0.5514
 5409TIP3    H237643   0.573   2.199  14.791  0.9276  0.6555  0.5013
 5410TIP3   OH237644   6.596   1.247   3.483 -0.0369  0.1144 -0.1382
 5410TIP3    H137645   6.658   1.175   3.499 -0.3410 -0.0555  0.2794
 5410TIP3    H237646   6.616   1.312   3.550 -0.8988 -0.3296  0.5618
 5411TIP3   OH237647   4.608   4.640  14.090  0.8397  0.1609  0.2420
 5411TIP3    H137648   4.662   4.647  14.169  1.0298  1.6681  0.0087
 5411TIP3    H237649   4.658   4.688  14.023  0.5081 -0.7812 -0.7062
 5412TIP3   OH237650   2.929   1.095   1.374  0.1216 -0.1326 -0.7512
 5412TIP3    H137651   2.948   1.042   1.296  1.1368  0.8583 -1.2082
 5412TIP3    H237652   2.834   1.100   1.377  0.0518 -0.7941 -1.5191
 5413TIP3   OH237653   1.971   5.366  12.645 -0.1814  0.1702  0.5796
 5413TIP3    H137654   1.903   5.324  12.699  0.4736  0.0311  1.3152
 5413TIP3    H237655   2.043   5.381  12.706  0.6082 -0.0534 -0.2831
 5414TIP3   OH237656   4.680   4.990   1.841 -0.0281  0.3475  0.2392
 5414TIP3    H137657   4.709   4.990   1.932  0.0619  0.4385  0.2116
 5414TIP3    H237658   4.721   5.068   1.803  2.1005 -1.0602 -0.5651
 5415TIP3   OH237659   4.156   2.773   4.773  0.4570 -0.4822 -0.0605
 5415TIP3    H137660   4.081   2.714   4.784 -0.7952  0.8934 -0.8968
 5415TIP3    H237661   4.215   2.724   4.715 -0.1457 -1.2803 -0.0258
 5416TIP3   OH237662   0.708   6.657  13.881 -0.0655 -0.6608  0.6463
 5416TIP3    H137663   0.685   6.750  13.876 -0.9548 -0.8767  0.6955
 5416TIP3    H237664   0.785   6.654  13.938 -0.5119 -0.0389  1.2853
 5417TIP3   OH237665   2.702   0.470  12.825  0.0818  0.2315  0.4301
 5417TIP3    H137666   2.701   0.566  12.823 -2.8989  0.3058  0.0219
 5417TIP3    H237667   2.663   0.448  12.910  1.7376 -0.6974  0.9950
 5418TIP3   OH237668   4.094   4.526  15.575 -0.0911 -0.1716  0.2362
 5418TIP3    H137669   4.039   4.541  15.651 -0.5244 -1.4818  0.1994
 5418TIP3    H237670   4.164   4.468  15.607  0.6408  0.5629  0.0103
 5419TIP3   OH237671   1.274   0.809   3.534 -0.4074 -0.2065  0.2157
 5419TIP3    H137672   1.251   0.823   3.443  2.1121 -1.6506 -0.7379
 5419TIP3    H237673   1.366   0.784   3.533 -0.1527  0.1660  3.2137
 5420TIP3   OH237674   3.408   2.929   4.185 -0.3037 -0.7894 -0.1106
 5420TIP3    H137675   3.459   2.903   4.262 -0.7095 -1.9158 -0.2102
 5420TIP3    H237676   3.467   2.987   4.137 -0.0025 -0.1606  0.9752
 5421TIP3   OH237677   5.994   4.711  12.574 -0.0504  0.5556  0.0789
 5421TIP3    H137678   6.053   4.648  12.532  1.0438  1.1320  0.6957
 5421TIP3    H237679   6.050   4.785  12.595 -1.1308  1.3656  0.1860
 5422TIP3   OH237680   3.455   1.772   0.515 -0.0120 -0.3397  0.0436
 5422TIP3    H137681   3.471   1.679   0.503 -0.6428 -0.6165  1.2066
 5422TIP3    H237682   3.461   1.786   0.609  0.1935  0.8238 -0.1201
 5423TIP3   OH237683   3.682   5.507   0.427 -0.1297  0.0217 -0.1070
 5423TIP3    H137684   3.607   5.556   0.459 -0.9296 -0.9011 -0.5218
 5423TIP3    H237685   3.688   5.530   0.334 -0.2697 -0.3441 -0.2109
 5424TIP3   OH237686   1.637   2.674  16.048 -0.5194 -0.1021  0.7546
 5424TIP3    H137687   1.634   2.665  15.952 -0.3483  0.5938  0.6742
 5424TIP3    H237688   1.596   2.595  16.081  2.2366 -1.9505  0.1610
 5425TIP3   OH237689   5.086   0.459   1.403  0.0040 -0.5823  0.0507
 5425TIP3    H137690   5.019   0.466   1.335  1.2513 -2.9209 -1.5618
 5425TIP3    H237691   5.042   0.419   1.477 -0.3195 -2.7444 -1.2249
 5426TIP3   OH237692   1.928   2.031  12.281 -0.1983 -0.7689 -0.0403
 5426TIP3    H137693   1.987   2.061  12.211  0.8650 -2.1960  0.1888
 5426TIP3    H237694   1.868   1.970  12.237 -0.9260 -0.0265 -0.0955
 5427TIP3   OH237695   3.514   2.169  13.052 -0.2523  0.2541  0.3931
 5427TIP3    H137696   3.529   2.082  13.089 -1.5405  0.4833  1.5605
 5427TIP3    H237697   3.601   2.199  13.025 -0.1235 -2.5688 -2.9567
 5428TIP3   OH237698   4.755   0.564   2.438  0.1761 -0.5264  0.6069
 5428TIP3    H137699   4.735   0.557   2.532  0.7280 -2.2687  0.6475
 5428TIP3    H237700   4.850   0.552   2.434  0.4319  1.3975 -0.0614
 5429TIP3   OH237701   4.828   6.266   6.072 -0.2729  0.3143  0.2218
 5429TIP3    H137702   4.911   6.313   6.079  1.4250 -2.4935  0.2999
 5429TIP3    H237703   4.818   6.221   6.156 -2.0887  0.8549  0.3420
 5430TIP3   OH237704   2.527   3.596  16.923  0.1999  0.1313  0.0166
 5430TIP3    H137705   2.537   3.528  16.990  0.1734 -1.5428 -1.6030
 5430TIP3    H237706   2.474   3.664  16.966  1.0646 -0.3747  2.0025
 5431TIP3   OH237707   1.018   0.593  14.045  0.0309  0.4493  0.8497
 5431TIP3    H137708   0.939   0.618  13.996 -0.0400 -0.5018  0.4536
 5431TIP3    H237709   1.088   0.596  13.980  0.4134  1.6606  1.2844
 5432TIP3   OH237710   4.774   3.032   3.505 -0.3695 -0.5750 -0.1715
 5432TIP3    H137711   4.727   3.112   3.528  0.3673 -0.1405 -0.1436
 5432TIP3    H237712   4.848   3.030   3.566  0.0571 -0.8637 -0.6914
 5433TIP3   OH237713   4.151   6.819   6.604 -0.0815 -0.8255  1.0088
 5433TIP3    H137714   4.101   6.762   6.547  0.5974  0.6178 -1.1923
 5433TIP3    H237715   4.232   6.771   6.622 -0.3063 -1.3104  0.7261
 5434TIP3   OH237716   4.079   3.134  16.584 -0.2750 -0.1159  0.2567
 5434TIP3    H137717   4.135   3.204  16.551  0.4226 -0.6388  0.3144
 5434TIP3    H237718   4.127   3.098  16.659 -1.7174  0.8992  1.7397
 5435TIP3   OH237719   3.664   0.348   2.789 -0.3074 -0.0268  0.5860
 5435TIP3    H137720   3.710   0.343   2.705 -0.3165 -0.1301  0.5874
 5435TIP3    H237721   3.666   0.259   2.823 -2.9212 -0.6468 -0.6859
 5436TIP3   OH237722   0.199   0.550  14.445 -0.2658  0.3276 -0.1530
 5436TIP3    H137723   0.265   0.620  14.451  0.3902 -0.2082 -0.7869
 5436TIP3    H237724   0.251   0.470  14.436 -1.0006 -0.0831 -0.8907
 5437TIP3   OH237725   5.563   5.636  13.529 -0.4635  0.2730  0.3513
 5437TIP3    H137726   5.651   5.674  13.524 -0.2001  0.2047  2.9815
 5437TIP3    H237727   5.554   5.586  13.448  0.8757  2.3837 -1.1971
 5438TIP3   OH237728   6.647   3.166   2.677 -0.0746  1.0055  0.5870
 5438TIP3    H137729   6.678   3.227   2.611 -0.7593 -0.2070 -0.9223
 5438TIP3    H237730   6.553   3.157   2.660  0.1692 -1.2221  0.0369
 5439TIP3   OH237731   4.169   5.619  15.408  0.0246  0.6258  0.5659
 5439TIP3    H137732   4.212   5.699  15.437  1.5541  0.1593 -0.2803
 5439TIP3    H237733   4.241   5.556  15.396 -0.7300  0.1256 -1.9905
 5440TIP3   OH237734   5.742   5.962  14.700 -0.0896 -0.4939  0.1038
 5440TIP3    H137735   5.651   5.952  14.674 -0.6070  1.3427  1.0630
 5440TIP3    H237736   5.777   5.872  14.701 -1.0871 -1.0317 -2.8619
 5441TIP3   OH237737   1.075   5.803   2.540 -0.7856 -0.0700 -0.3832
 5441TIP3    H137738   1.122   5.757   2.471  1.3481  0.0521  0.8822
 5441TIP3    H237739   1.052   5.888   2.502 -0.2226 -0.2408 -1.1212
 5442TIP3   OH237740   1.312   6.510   3.000 -0.1083 -0.1057 -0.2707
 5442TIP3    H137741   1.357   6.510   3.084 -1.4406  1.4958  0.5005
 5442TIP3    H237742   1.220   6.529   3.021 -0.8741 -1.6773 -1.9273
 5443TIP3   OH237743   3.394   5.172  16.915 -0.7185 -0.4055 -0.3937
 5443TIP3    H137744   3.326   5.108  16.896 -0.3294 -0.6949 -0.8362
 5443TIP3    H237745   3.462   5.155  16.850  0.2090 -0.7771  0.6504
 5444TIP3   OH237746   0.344   3.815   4.858  0.3414 -0.7150 -0.0942
 5444TIP3    H137747   0.356   3.778   4.946 -0.8488  0.9615  0.8317
 5444TIP3    H237748   0.335   3.738   4.801 -2.7048 -1.9636  1.8326
 5445TIP3   OH237749   0.192   2.410  14.057  0.4574  0.1654 -0.2172
 5445TIP3    H137750   0.118   2.364  14.095  1.5585 -1.4182  0.1127
 5445TIP3    H237751   0.216   2.357  13.981  0.5672  1.2804 -0.9814
 5446TIP3   OH237752   3.613   2.762  13.134  0.1812 -0.0200  0.2544
 5446TIP3    H137753   3.693   2.711  13.149 -0.0151 -0.3802  0.0824
 5446TIP3    H237754   3.622   2.837  13.192  0.6245 -0.0839  0.2744
 5447TIP3   OH237755   3.649   1.084  16.751 -0.8495  0.3858 -0.0002
 5447TIP3    H137756   3.638   1.011  16.689  1.2378 -0.5027  0.5856
 5447TIP3    H237757   3.709   1.144  16.706 -1.6386  1.1846 -0.0025
 5448TIP3   OH237758   1.041   1.223  13.030 -0.2871 -0.3950 -0.2706
 5448TIP3    H137759   1.005   1.163  12.964 -0.9184 -0.2615 -0.0516
 5448TIP3    H237760   1.055   1.305  12.983  1.0304 -0.8206 -0.6947
 5449TIP3   OH237761   0.682   5.828  12.455 -0.7191 -0.2121 -0.1290
 5449TIP3    H137762   0.637   5.912  12.449 -2.2364 -1.0259 -0.4134
 5449TIP3    H237763   0.631   5.777  12.517  1.6277 -0.0985  2.0837
 5450TIP3   OH237764   6.571   5.363   2.816 -0.5131 -0.2829 -0.2954
 5450TIP3    H137765   6.662   5.370   2.846 -0.1586 -0.5150 -1.2914
 5450TIP3    H237766   6.521   5.352   2.897  0.3687 -0.4524  0.2504
 5451TIP3   OH237767   6.602   6.311   5.430 -0.1535 -0.1993 -0.2854
 5451TIP3    H137768   6.670   6.373   5.402  0.8610 -0.9890  0.3360
 5451TIP3    H237769   6.541   6.309   5.356  0.3196  0.7784 -0.7343
 5452TIP3   OH237770   5.564   1.921  10.965 -0.1851  0.7115 -0.7354
 5452TIP3    H137771   5.557   1.830  10.936 -4.5059  0.1406  1.3033
 5452TIP3    H237772   5.589   1.916  11.057 -1.6883  1.4127 -0.2447
 5453TIP3   OH237773   4.921   3.719  15.394  0.0844 -0.0938 -0.3178
 5453TIP3    H137774   4.887   3.629  15.391 -0.4407  0.0308  1.0085
 5453TIP3    H237775   5.008   3.713  15.356  0.9588 -1.6325  1.7051
 5454TIP3   OH237776   0.745   6.215  10.715 -0.4771 -0.6537  0.0074
 5454TIP3    H137777   0.664   6.164  10.718  0.9174 -2.9555  0.7838
 5454TIP3    H237778   0.760   6.241  10.806 -0.8841  0.7794 -0.2995
 5455TIP3   OH237779   3.537   2.776   2.270  0.3987 -0.3795  0.1205
 5455TIP3    H137780   3.550   2.788   2.176 -1.2418 -0.4940 -0.1584
 5455TIP3    H237781   3.558   2.861   2.308  0.2477 -0.0750 -0.4611
 5456TIP3   OH237782   1.469   6.791   3.212 -0.5985  0.2701  0.0055
 5456TIP3    H137783   1.468   6.787   3.117  0.4456 -0.4602  0.0058
 5456TIP3    H237784   1.377   6.789   3.237 -0.8966  0.7876 -0.9856
 5457TIP3   OH237785   3.037   1.355   4.328 -0.1792 -0.7962 -0.2128
 5457TIP3    H137786   3.016   1.282   4.271 -0.9773 -1.2818  0.6928
 5457TIP3    H237787   2.954   1.382   4.365  0.4983 -1.6367  2.0886
 5458TIP3   OH237788   4.952   1.559  12.291  0.2629  0.3153 -0.0785
 5458TIP3    H137789   4.961   1.518  12.205  1.5497 -0.8127  0.5669
 5458TIP3    H237790   5.042   1.583  12.316 -0.1727  1.2417  0.6721
 5459TIP3   OH237791   2.860   4.429   5.279 -0.9201  0.4307 -0.0245
 5459TIP3    H137792   2.938   4.449   5.227 -0.1079  0.0938  0.9996
 5459TIP3    H237793   2.787   4.441   5.219 -0.0943  0.9577 -0.9667
 5460TIP3   OH237794   5.539   6.653  12.321  0.2576  0.4056  0.3184
 5460TIP3    H137795   5.521   6.677  12.412 -2.1683  0.4803 -0.1279
 5460TIP3    H237796   5.523   6.733  12.271  1.6137  0.3795 -0.2034
 5461TIP3   OH237797   4.526   1.963  10.911 -0.1860 -0.1752 -0.3587
 5461TIP3    H137798   4.620   1.978  10.917 -0.0135 -1.4896  0.8071
 5461TIP3    H237799   4.518   1.878  10.868 -0.7576 -0.8253  0.9843
 5462TIP3   OH237800   6.409   0.526   5.982  0.6173  0.1967  0.5888
 5462TIP3    H137801   6.325   0.568   5.998  1.2584  0.9716  2.1922
 5462TIP3    H237802   6.387   0.434   5.968 -0.7033  0.8219 -1.8721
 5463TIP3   OH237803   5.932   5.374   1.808 -0.1296  0.2201 -0.3275
 5463TIP3    H137804   6.005   5.354   1.749 -0.0739 -0.1280 -0.1432
 5463TIP3    H237805   5.946   5.317   1.884 -0.6118  0.1207 -0.3085
 5464TIP3   OH237806   1.067   5.443   1.414 -0.5308 -0.1316 -0.6575
 5464TIP3    H137807   1.124   5.384   1.464 -1.3076  1.1447  1.9550
 5464TIP3    H237808   1.113   5.528   1.417 -0.8388  0.0820 -1.7362
 5465TIP3   OH237809   5.475   3.214  12.178  0.0147 -0.0972 -0.0259
 5465TIP3    H137810   5.394   3.165  12.168 -0.2084  0.4733 -1.1279
 5465TIP3    H237811   5.519   3.173  12.253 -1.2513 -0.4396  0.5443
 5466TIP3   OH237812   2.402   2.300  12.888  0.0246  0.4348  0.2664
 5466TIP3    H137813   2.472   2.271  12.947 -1.7829 -1.4446  1.6223
 5466TIP3    H237814   2.355   2.367  12.937 -0.7912 -0.3196  0.5514
 5467TIP3   OH237815   6.645   0.024   3.272 -0.1942 -0.0672  0.3573
 5467TIP3    H137816   6.585   0.055   3.204  1.0706  2.3514  0.2254
 5467TIP3    H237817   6.618   0.069   3.351  0.5817 -0.0133  0.6054
 5468TIP3   OH237818   0.176   0.327  12.039 -0.3354  0.5674  0.3032
 5468TIP3    H137819   0.124   0.246  12.040 -2.8632  2.0859  1.5545
 5468TIP3    H237820   0.251   0.308  12.095 -1.4138 -0.6327  1.4101
 5469TIP3   OH237821   2.000   4.237   5.284 -0.6507  0.3374 -0.0571
 5469TIP3    H137822   2.017   4.164   5.225 -2.1916  0.0614 -0.2097
 5469TIP3    H237823   1.931   4.205   5.342 -1.1087  1.5542  0.0906
 5470TIP3   OH237824   1.001   1.194  16.188  0.3321  0.0696  0.2987
 5470TIP3    H137825   1.042   1.271  16.149  2.6904 -1.8378 -1.2363
 5470TIP3    H237826   1.040   1.188  16.276  1.0103 -0.0019 -0.0049
 5471TIP3   OH237827   6.108   3.572  16.022  0.2908  0.4237  0.0824
 5471TIP3    H137828   6.047   3.552  16.093  1.4111 -0.1171  0.9256
 5471TIP3    H237829   6.083   3.659  15.993 -0.6439  0.3646  0.6683
 5472TIP3   OH237830   4.995   3.086   4.524 -0.5121  0.7537 -0.7230
 5472TIP3    H137831   4.982   3.153   4.456  0.0839  0.5906 -1.0082
 5472TIP3    H237832   5.090   3.088   4.541 -0.3853 -0.4865 -1.2187
 5473TIP3   OH237833   3.275   4.488  16.257  0.7438 -0.2126 -0.5005
 5473TIP3    H137834   3.299   4.454  16.171 -0.0257 -1.0712 -0.3841
 5473TIP3    H237835   3.232   4.415  16.301  0.7771  0.3349  0.4742
 5474TIP3   OH237836   5.791   5.044   0.156 -0.2952 -0.3506  0.2874
 5474TIP3    H137837   5.806   4.964   0.107 -2.9104 -0.0545 -1.1700
 5474TIP3    H237838   5.866   5.099   0.136  0.1946 -1.4109 -0.9001
 5475TIP3   OH237839   6.198   0.539  12.926  0.2121 -0.2466 -0.3955
 5475TIP3    H137840   6.288   0.569  12.914  0.0519  0.1083 -0.7245
 5475TIP3    H237841   6.145   0.602  12.877 -0.3152  0.2156  0.7351
 5476TIP3   OH237842   4.420   1.067   4.721  0.2404  0.0987  0.1060
 5476TIP3    H137843   4.380   1.154   4.724  0.4746  0.2057  0.2702
 5476TIP3    H237844   4.391   1.029   4.638 -0.5681 -0.0113  0.4314
 5477TIP3   OH237845   3.387   2.815  14.584  0.7515  0.5945 -0.1270
 5477TIP3    H137846   3.376   2.897  14.536 -0.3235 -0.3626 -1.5861
 5477TIP3    H237847   3.467   2.776  14.548  1.9527  1.5269  1.4214
 5478TIP3   OH237848   6.209   2.513   0.680 -0.2402 -0.1434 -0.0664
 5478TIP3    H137849   6.298   2.511   0.716  0.2248  0.0289 -1.1665
 5478TIP3    H237850   6.182   2.421   0.677  0.0580 -0.2309 -0.1046
 5479TIP3   OH237851   0.074   2.825  15.908  0.2916 -0.2624 -0.2262
 5479TIP3    H137852   0.128   2.849  15.832 -0.1143 -1.7092 -1.0237
 5479TIP3    H237853  -0.016   2.830  15.876  0.1396 -1.4505 -0.0560
 5480TIP3   OH237854   4.999   6.344   4.340 -0.2773  0.4582 -0.0697
 5480TIP3    H137855   5.092   6.321   4.335 -0.6033 -1.1368  0.6918
 5480TIP3    H237856   4.994   6.431   4.300  1.1733 -0.3936 -2.3164
 5481TIP3   OH237857   0.945   0.375  16.327  0.5973 -0.2637  0.2255
 5481TIP3    H137858   0.889   0.446  16.297  0.6386 -0.4764 -0.3599
 5481TIP3    H237859   0.916   0.299  16.278  1.6621 -0.2933 -0.3853
 5482TIP3   OH237860   3.488   4.503  12.832 -0.0777  0.2457 -0.4197
 5482TIP3    H137861   3.476   4.411  12.812 -1.6988  0.1726  0.6709
 5482TIP3    H237862   3.496   4.546  12.747  1.9882 -0.9873 -0.9310
 5483TIP3   OH237863   0.353   4.064   5.511 -0.1185 -0.2186  0.1130
 5483TIP3    H137864   0.440   4.091   5.538  0.3428 -0.8504 -0.7053
 5483TIP3    H237865   0.334   4.119   5.434  0.2377 -1.1896 -0.6886
 5484TIP3   OH237866   2.622   1.475  14.427 -0.3086 -0.1280  0.4152
 5484TIP3    H137867   2.653   1.442  14.343 -1.3973 -0.6178  0.1813
 5484TIP3    H237868   2.558   1.409  14.456  0.5950 -0.3528  1.9905
 5485TIP3   OH237869   4.158   6.316   6.029  0.2330 -0.2584  0.2365
 5485TIP3    H137870   4.186   6.335   6.118  1.3192  0.9272 -0.3298
 5485TIP3    H237871   4.185   6.226   6.014 -0.9919 -0.8774  1.4659
 5486TIP3   OH237872   4.686   5.975  11.835 -0.3028 -0.0584  0.2356
 5486TIP3    H137873   4.780   5.974  11.853 -0.1636 -2.3283 -0.3956
 5486TIP3    H237874   4.649   5.912  11.897 -1.1759 -0.4317 -0.6402
 5487TIP3   OH237875   4.324   5.336  13.435  0.3623  0.2534 -0.3347
 5487TIP3    H137876   4.273   5.256  13.429 -0.2057  0.5770  0.0498
 5487TIP3    H237877   4.278   5.389  13.500  0.3495  1.1557 -1.0507
 5488TIP3   OH237878   0.016   2.751  15.308 -0.2701  0.3922  0.3691
 5488TIP3    H137879   0.089   2.807  15.337 -0.9915  1.2720  0.5535
 5488TIP3    H237880  -0.034   2.807  15.249  1.9403 -1.7887 -3.9642
 5489TIP3   OH237881   6.420   5.382   2.430  0.1412 -0.0876  0.0901
 5489TIP3    H137882   6.402   5.289   2.418  2.1479 -0.1931 -3.1035
 5489TIP3    H237883   6.348   5.426   2.384  0.2383 -0.1267 -0.1010
 5490TIP3   OH237884   3.362   6.441  14.590  0.1835  0.3996 -0.0646
 5490TIP3    H137885   3.295   6.380  14.622  0.0979 -0.3943 -1.6837
 5490TIP3    H237886   3.313   6.516  14.559  0.3109  1.5735  2.3392
 5491TIP3   OH237887   2.389   4.765  14.668  0.1606  0.6306  0.5400
 5491TIP3    H137888   2.318   4.705  14.691  0.2964  0.8223  1.5070
 5491TIP3    H237889   2.391   4.829  14.739  0.0951  1.7257 -0.4189
 5492TIP3   OH237890   2.636   2.320   4.393 -0.1627  0.3184  0.1749
 5492TIP3    H137891   2.671   2.407   4.373 -0.7637  0.3782 -0.6820
 5492TIP3    H237892   2.569   2.336   4.460  0.6294  0.3436  0.9757
 5493TIP3   OH237893   5.735   4.193  13.486 -0.1362  0.5173 -0.5661
 5493TIP3    H137894   5.656   4.142  13.501  0.6121 -0.6037 -0.3174
 5493TIP3    H237895   5.725   4.271  13.540 -0.1633 -0.5893  1.0707
 5494TIP3   OH237896   2.003   1.045  12.746  0.5100  0.2587 -0.4840
 5494TIP3    H137897   1.952   0.988  12.803  1.3541  0.9688  1.0306
 5494TIP3    H237898   2.040   1.112  12.804  1.3777  1.0450 -1.8635
 5495TIP3   OH237899   5.989   6.663  13.153 -0.3507  0.6702 -0.0208
 5495TIP3    H137900   6.002   6.711  13.071 -1.9124  0.7281 -0.2688
 5495TIP3    H237901   6.038   6.582  13.141  1.0390  1.5023 -0.2149
 5496TIP3   OH237902   4.420   0.145  16.586  0.0770  0.7556  0.0977
 5496TIP3    H137903   4.400   0.134  16.680  1.7455  2.7410  0.7406
 5496TIP3    H237904   4.406   0.058  16.549 -0.0151 -0.2405  2.3079
 5497TIP3   OH237905   6.563   6.685  14.493 -0.1362 -0.1629 -0.5673
 5497TIP3    H137906   6.527   6.699  14.581 -0.6542  0.3366 -0.8460
 5497TIP3    H237907   6.625   6.613  14.503  0.4546  0.4540  0.3844
 5498TIP3   OH237908   5.627   3.293  14.466 -0.0349  0.1595  0.2060
 5498TIP3    H137909   5.686   3.234  14.420 -1.3833 -0.9066 -0.2254
 5498TIP3    H237910   5.628   3.262  14.557  0.6619  0.6627  0.3840
 5499TIP3   OH237911   5.243   6.200   2.095  0.2519  0.0235 -0.0268
 5499TIP3    H137912   5.225   6.290   2.121 -0.8047  1.0562 -3.6975
 5499TIP3    H237913   5.175   6.148   2.138  2.2873  0.4019  4.1106
 5500TIP3   OH237914   5.226   3.153  11.167 -1.0619 -0.2253 -0.2593
 5500TIP3    H137915   5.158   3.217  11.192  0.8424  0.4293  4.2952
 5500TIP3    H237916   5.302   3.206  11.146 -0.6594 -0.9783 -0.7175
 5501TIP3   OH237917   1.053   5.106  12.204 -0.3341  0.5636  0.1728
 5501TIP3    H137918   1.093   5.078  12.287 -0.1328 -4.1557 -1.2365
 5501TIP3    H237919   0.974   5.053  12.196 -0.0015  0.3522 -2.8861
 5502TIP3   OH237920   2.015   0.281  15.173 -0.2047  0.3695 -0.0641
 5502TIP3    H137921   1.950   0.349  15.158 -0.8941 -0.1411  0.5087
 5502TIP3    H237922   2.044   0.296  15.263 -1.0391 -0.6251  0.3949
 5503TIP3   OH237923   3.852   3.862  14.913  0.0869  0.3661  0.0101
 5503TIP3    H137924   3.882   3.850  14.822  0.5827 -1.8171  0.4185
 5503TIP3    H237925   3.925   3.908  14.955 -0.1037  1.3047 -0.6469
 5504TIP3   OH237926   1.575   4.227   0.936 -0.5439 -0.5986  0.4886
 5504TIP3    H137927   1.603   4.233   0.845 -0.0751  0.0880  0.6747
 5504TIP3    H237928   1.489   4.269   0.938  0.2518  1.1124  0.6985
 5505TIP3   OH237929   1.931   2.358   3.545 -0.1490 -0.2089 -0.1462
 5505TIP3    H137930   1.919   2.264   3.555 -0.7822 -0.0712  0.4561
 5505TIP3    H237931   2.025   2.372   3.559 -0.1947 -0.6472  0.6861
 5506TIP3   OH237932   2.420   2.006  13.666  0.2906 -0.2850 -0.3611
 5506TIP3    H137933   2.400   2.086  13.715  0.5975 -0.7229  0.5070
 5506TIP3    H237934   2.408   1.936  13.730  1.4779 -0.8155 -0.7054
 5507TIP3   OH237935   1.642   0.914   1.299  1.0657  0.3338  0.2028
 5507TIP3    H137936   1.587   0.951   1.229  2.0329  0.3776 -0.5499
 5507TIP3    H237937   1.623   0.820   1.297  0.7703  0.3938  0.1652
 5508TIP3   OH237938   4.947   6.197  12.474  0.7163  0.1108 -0.2336
 5508TIP3    H137939   4.946   6.289  12.446  1.0992 -0.0355 -0.7346
 5508TIP3    H237940   5.014   6.156  12.420 -0.3406 -0.7576 -0.9260
 5509TIP3   OH237941   0.379   0.748   0.517  0.3288  0.0152  0.1295
 5509TIP3    H137942   0.392   0.819   0.579 -0.0608  1.3749 -1.2803
 5509TIP3    H237943   0.287   0.755   0.491  0.5193 -0.4129 -0.7177
 5510TIP3   OH237944   0.102   1.745  15.965 -0.3571 -0.2176  0.2472
 5510TIP3    H137945   0.118   1.673  15.904  3.0045 -0.7520  1.5683
 5510TIP3    H237946   0.142   1.821  15.923  0.1674 -0.1435  0.8765
 5511TIP3   OH237947   3.420   2.869   5.235 -0.8014 -0.1849 -0.2511
 5511TIP3    H137948   3.489   2.808   5.264 -0.9277  0.3012  1.1646
 5511TIP3    H237949   3.348   2.812   5.207 -0.4872 -0.6963 -0.0319
 5512TIP3   OH237950   5.725   0.975  11.077 -0.2345 -0.2104 -0.0920
 5512TIP3    H137951   5.702   0.973  11.170 -0.0423  0.4723 -0.0198
 5512TIP3    H237952   5.646   1.009  11.034  0.1712  0.9122  0.0083
 5513TIP3   OH237953   6.447   6.340   5.185  0.1837  0.2825 -0.1435
 5513TIP3    H137954   6.367   6.389   5.169 -0.6161 -0.4510  1.3156
 5513TIP3    H237955   6.453   6.279   5.112  1.2024  2.4749 -1.9890
 5514TIP3   OH237956   4.224   0.798   0.920 -0.0382  0.0776  0.0533
 5514TIP3    H137957   4.161   0.727   0.906  0.1914 -0.3797  1.1527
 5514TIP3    H237958   4.212   0.821   1.013  2.8140 -1.4644  0.9215
 5515TIP3   OH237959   4.132   4.115  12.374  0.4953  0.4718 -0.1115
 5515TIP3    H137960   4.170   4.082  12.455  0.0582 -0.1375 -0.1401
 5515TIP3    H237961   4.173   4.063  12.305 -0.7776 -0.6224 -0.1010
 5516TIP3   OH237962   4.571   1.511   0.643 -0.0587  1.0634  0.1067
 5516TIP3    H137963   4.496   1.492   0.699 -0.3443  0.8211 -0.3590
 5516TIP3    H237964   4.623   1.574   0.694  0.1448  0.1828  1.0298
 5517TIP3   OH237965   2.592   5.308  12.939 -0.5055  0.0817  0.0791
 5517TIP3    H137966   2.530   5.293  12.868 -0.8013  0.6795  0.2084
 5517TIP3    H237967   2.673   5.267  12.909 -0.6513  0.2586 -0.5677
 5518TIP3   OH237968   3.272   3.695   3.354 -0.4177 -0.2380  0.7879
 5518TIP3    H137969   3.253   3.601   3.349 -0.9195 -0.2583  2.4940
 5518TIP3    H237970   3.337   3.703   3.424 -0.9170  0.7516  1.1567
 5519TIP3   OH237971   3.240   6.625  11.081 -0.2862  0.8697  0.1634
 5519TIP3    H137972   3.263   6.546  11.032 -2.0672 -0.3421  1.1951
 5519TIP3    H237973   3.221   6.691  11.014 -0.0311  0.0494 -0.7216
 5520TIP3   OH237974   1.599   3.085  14.093  0.2184  0.3019  0.1175
 5520TIP3    H137975   1.511   3.071  14.058  0.1426  1.2291 -0.0862
 5520TIP3    H237976   1.585   3.116  14.182  0.3811 -0.7215  0.5181
 5521TIP3   OH237977   1.827   2.533  13.235  0.2869 -0.6638  0.2825
 5521TIP3    H137978   1.801   2.517  13.144  0.0715 -2.9134  0.6735
 5521TIP3    H237979   1.751   2.574  13.275  0.1757 -0.1831 -0.3933
 5522TIP3   OH237980   1.052   5.864  15.686 -0.0982 -0.2461  0.0239
 5522TIP3    H137981   0.997   5.909  15.750 -1.9722  0.0150 -1.6940
 5522TIP3    H237982   1.066   5.929  15.617 -0.3716 -1.3491 -1.0924
 5523TIP3   OH237983   0.240   4.627  14.099  0.2874 -0.6523 -0.6835
 5523TIP3    H137984   0.253   4.715  14.066 -1.9266 -0.0060  0.0403
 5523TIP3    H237985   0.324   4.604  14.140  0.5457  1.5973  0.1728
 5524TIP3   OH237986   2.893   5.700   1.170 -0.4082 -0.7060 -0.0645
 5524TIP3    H137987   2.816   5.709   1.226  0.4333 -1.9212  1.3603
 5524TIP3    H237988   2.913   5.606   1.172  0.0823 -0.6740 -1.8441
 5525TIP3   OH237989   6.470   6.298   0.601  0.1026 -0.0814 -0.0654
 5525TIP3    H137990   6.377   6.308   0.581  0.1964  0.3701 -0.2920
 5525TIP3    H237991   6.476   6.213   0.644 -1.0075  1.4501  3.4714
 5526TIP3   OH237992   3.419   2.353  15.979 -0.1803  0.4812  0.0184
 5526TIP3    H137993   3.325   2.359  15.960 -0.1536  1.7835  0.1933
 5526TIP3    H237994   3.461   2.361  15.893 -0.2225  0.0761 -0.0412
 5527TIP3   OH237995   5.911   2.297   3.064  0.1392  0.2947  0.0498
 5527TIP3    H137996   5.965   2.339   3.131 -0.1456  0.6723  0.0492
 5527TIP3    H237997   5.926   2.203   3.075  1.7450  0.4236 -0.7539
 5528TIP3   OH237998   4.165   3.997   5.184 -0.0069 -0.0160  0.2749
 5528TIP3    H137999   4.076   4.020   5.160 -0.1156 -1.7380 -1.2278
 5528TIP3    H238000   4.217   4.016   5.105  0.0857 -3.3373 -0.6536
 5529TIP3   OH238001   5.557   0.201  16.878  0.1118 -0.0036 -0.2081
 5529TIP3    H138002   5.616   0.190  16.803 -0.8879 -0.5156 -0.9369
 5529TIP3    H238003   5.491   0.263  16.848 -0.4792 -0.4609  0.1382
 5530TIP3   OH238004   3.175   2.608  11.553 -0.0082 -0.3922 -0.0110
 5530TIP3    H138005   3.258   2.645  11.522 -0.5262  0.1906 -0.7311
 5530TIP3    H238006   3.201   2.543  11.618  1.0292 -0.3923 -0.4031
 5531TIP3   OH238007   0.572   4.584  16.780 -0.6001  0.4033 -0.4389
 5531TIP3    H138008   0.641   4.573  16.714 -0.6729  0.9540 -0.6153
 5531TIP3    H238009   0.535   4.497  16.791  0.9605 -0.1868  0.5934
 5532TIP3   OH238010   5.293   4.353  10.435 -0.8054 -0.5004 -0.0619
 5532TIP3    H138011   5.245   4.283  10.391  0.0440 -2.4408  1.9561
 5532TIP3    H238012   5.344   4.309  10.503  1.2334  1.8690  0.0865
 5533TIP3   OH238013   0.664   0.543   3.482 -0.3173 -0.4827 -1.0495
 5533TIP3    H138014   0.756   0.563   3.469 -0.1649 -0.4492 -0.0004
 5533TIP3    H238015   0.660   0.502   3.568 -1.2231 -0.8993 -1.2744
 5534TIP3   OH238016   3.825   1.358  14.243  0.4541 -0.0864 -0.2697
 5534TIP3    H138017   3.880   1.304  14.299  0.3833  2.0229  2.0608
 5534TIP3    H238018   3.739   1.317  14.246 -0.2327  1.2222  3.4632
 5535TIP3   OH238019   1.753   3.123   1.980  0.1569 -0.4823  0.4741
 5535TIP3    H138020   1.841   3.125   2.019  0.3489 -1.8269  0.1338
 5535TIP3    H238021   1.694   3.115   2.055  0.3331  0.0669  0.6800
 5536TIP3   OH238022   5.333   2.033  16.399  0.2551  0.3143  0.0107
 5536TIP3    H138023   5.295   2.121  16.411 -2.0084 -0.4251 -1.1168
 5536TIP3    H238024   5.291   2.000  16.320 -0.7679 -2.7115  1.6766
 5537TIP3   OH238025   0.236   3.266   0.570  0.3136 -0.2100 -0.5341
 5537TIP3    H138026   0.288   3.289   0.494 -1.7242 -0.6925 -2.1673
 5537TIP3    H238027   0.232   3.170   0.569  1.8410 -0.3564  1.3587
 5538TIP3   OH238028   4.843   5.707  12.732  0.3616 -0.0554  0.8046
 5538TIP3    H138029   4.794   5.629  12.756  0.3268  0.0341  1.0273
 5538TIP3    H238030   4.933   5.676  12.718  0.4520 -0.0527  1.3760
 5539TIP3   OH238031   2.947   2.912  14.673 -0.4052  0.3798 -0.2911
 5539TIP3    H138032   2.968   2.990  14.622 -0.7598  1.6062  1.3536
 5539TIP3    H238033   2.852   2.917  14.688 -0.3023  0.1057  0.5450
 5540TIP3   OH238034   2.844   5.092   2.489 -0.0918  0.2448 -0.0568
 5540TIP3    H138035   2.750   5.101   2.470  0.0382  0.5852 -0.5729
 5540TIP3    H238036   2.852   5.114   2.581  0.0631  4.8358 -0.9553
 5541TIP3   OH238037   0.846   0.798  13.511 -0.2974 -0.3435  0.0036
 5541TIP3    H138038   0.764   0.842  13.533 -0.5039  0.5566 -2.2779
 5541TIP3    H238039   0.819   0.715  13.472 -0.3010  0.6613 -2.3158
 5542TIP3   OH238040   2.475   0.000   2.193 -0.3680 -0.1077  0.6380
 5542TIP3    H138041   2.404   0.030   2.249 -0.2042  0.2932  0.6332
 5542TIP3    H238042   2.464   0.049   2.111  0.8057  1.1156  1.1664
 5543TIP3   OH238043   5.126   1.099   4.096  1.0557  0.5645  0.1292
 5543TIP3    H138044   5.081   1.123   4.015  0.0032  2.4892  1.2042
 5543TIP3    H238045   5.187   1.172   4.112  0.3420  0.8649  1.6787
 5544TIP3   OH238046   6.641   1.562   5.139 -0.3084  0.1123 -0.6021
 5544TIP3    H138047   6.632   1.583   5.232 -1.1811  2.8440 -1.2018
 5544TIP3    H238048   6.710   1.621   5.108  0.2887 -1.0812 -1.6399
 5545TIP3   OH238049   4.717   4.610   0.132  0.2329 -0.3693 -0.0668
 5545TIP3    H138050   4.792   4.665   0.110  1.0219 -1.6669 -0.7359
 5545TIP3    H238051   4.704   4.624   0.226  2.3163 -1.2889  0.4124
 5546TIP3   OH238052   2.178   3.407   4.069 -0.1151 -0.1808  0.0417
 5546TIP3    H138053   2.127   3.354   4.009 -1.3616  2.1410 -1.1010
 5546TIP3    H238054   2.113   3.458   4.118  0.9354 -0.9792  2.4556
 5547TIP3   OH238055   4.806   2.358  12.341  0.3284 -0.4191 -0.1745
 5547TIP3    H138056   4.882   2.400  12.301  0.7493 -0.3459  0.6902
 5547TIP3    H238057   4.840   2.315  12.419 -0.4584 -0.6792  0.0332
 5548TIP3   OH238058   4.763   2.204  13.354 -0.0381 -0.0341 -0.0706
 5548TIP3    H138059   4.678   2.162  13.367  0.6322 -1.6207 -0.5447
 5548TIP3    H238060   4.781   2.193  13.261  1.2908 -0.9832  0.2652
 5549TIP3   OH238061   5.547   2.992  15.183  0.0507 -0.3465 -0.1034
 5549TIP3    H138062   5.458   2.976  15.150 -0.3279  0.1748  0.6159
 5549TIP3    H238063   5.533   3.016  15.275  0.9657 -0.5172  0.0852
 5550TIP3   OH238064   2.590   3.100   2.189  0.2054  0.0404  0.4774
 5550TIP3    H138065   2.643   3.021   2.174  1.6954  0.3719  3.2871
 5550TIP3    H238066   2.552   3.086   2.276 -0.8749  1.7181  0.3086
 5551TIP3   OH238067   1.392   1.256   5.393 -0.4798  0.3807 -0.1598
 5551TIP3    H138068   1.399   1.350   5.375  0.7066  0.4377  0.5617
 5551TIP3    H238069   1.479   1.230   5.419 -1.2327 -0.5333  1.5627
 5552TIP3   OH238070   4.847   1.865  13.128 -0.4137 -0.2777 -0.0333
 5552TIP3    H138071   4.885   1.789  13.172 -1.3196 -0.3495  0.6465
 5552TIP3    H238072   4.753   1.860  13.148 -0.3290  1.6861  1.0479
 5553TIP3   OH238073   5.478   0.508  11.800 -0.1076  0.1969  0.0802
 5553TIP3    H138074   5.540   0.525  11.729  0.5933  1.7700  1.0114
 5553TIP3    H238075   5.502   0.421  11.832  1.6744  0.7764  0.4337
 5554TIP3   OH238076   2.449   3.012   2.740 -0.2173  0.1280  0.3757
 5554TIP3    H138077   2.358   3.043   2.742 -1.3645 -2.9155  2.4763
 5554TIP3    H238078   2.447   2.936   2.681  1.4471  1.0452 -0.9696
 5555TIP3   OH238079   2.782   4.475  13.344  0.2341  1.2376  0.3126
 5555TIP3    H138080   2.689   4.462  13.360  0.9427 -0.5077  4.4909
 5555TIP3    H238081   2.807   4.547  13.402  1.6844  0.6796  0.4484
 5556TIP3   OH238082   6.298   3.767   5.063  0.0874  0.0265  0.0486
 5556TIP3    H138083   6.215   3.805   5.090 -0.0393 -0.2551  0.0621
 5556TIP3    H238084   6.354   3.771   5.141  0.8670  2.2951 -0.5536
 5557TIP3   OH238085   6.345   4.870   1.104  0.2586  0.8171 -0.6401
 5557TIP3    H138086   6.404   4.811   1.153 -0.1887 -0.4600 -1.5951
 5557TIP3    H238087   6.295   4.915   1.172  0.9101  0.4170  0.1263
 5558TIP3   OH238088   6.489   4.030   3.936  0.2527  0.1646 -0.1439
 5558TIP3    H138089   6.456   4.112   3.973  1.0226 -0.0621  1.0795
 5558TIP3    H238090   6.583   4.033   3.951 -0.0270 -2.4906  3.2194
 5559TIP3   OH238091   2.038   0.762  17.076 -0.1865 -1.1872 -0.2162
 5559TIP3    H138092   1.996   0.736  17.158  0.2447 -1.3052 -0.0307
 5559TIP3    H238093   1.989   0.839  17.047  1.6135  0.8703  1.8044
 5560TIP3   OH238094   6.200   5.738   3.454 -0.5362 -0.2478  0.0016
 5560TIP3    H138095   6.182   5.648   3.426 -0.5080 -0.6378  1.1489
 5560TIP3    H238096   6.165   5.743   3.543  0.1688  0.6324  0.2564
 5561TIP3   OH238097   3.395   6.239  14.406 -0.0708 -0.0636 -0.0412
 5561TIP3    H138098   3.423   6.309  14.465  0.8619  0.9771 -1.6747
 5561TIP3    H238099   3.301   6.254  14.393  0.0289  0.5880 -0.0092
 5562TIP3   OH238100   2.714   2.917  12.605 -0.1118  0.4340 -0.4104
 5562TIP3    H138101   2.720   2.952  12.694  2.5840  0.5731 -0.5635
 5562TIP3    H238102   2.725   2.822  12.616  1.6141  0.5775 -0.6467
 5563TIP3   OH238103   0.937   3.622   6.030 -0.4522 -0.5579  0.0997
 5563TIP3    H138104   1.015   3.632   6.085 -0.4759 -1.0712  0.2292
 5563TIP3    H238105   0.886   3.701   6.048 -0.0899 -0.3465  0.2210
 5564TIP3   OH238106   2.651   0.546   4.073  0.3899  0.1670 -0.0024
 5564TIP3    H138107   2.571   0.535   4.023  0.1140  0.7472  0.3075
 5564TIP3    H238108   2.720   0.512   4.015 -0.2738 -2.2842  0.5153
 5565TIP3   OH238109   2.078   4.405  15.633 -0.1686  0.0817  0.2887
 5565TIP3    H138110   2.081   4.499  15.653  0.4063  0.2639 -0.5733
 5565TIP3    H238111   2.170   4.378  15.631 -0.3253 -0.4563  0.3466
 5566TIP3   OH238112   6.048   4.191   3.213 -0.0631  0.2628  0.3810
 5566TIP3    H138113   6.004   4.276   3.201 -1.3527 -0.5419 -0.8868
 5566TIP3    H238114   6.115   4.189   3.146 -0.8523 -0.2111 -0.4116
 5567TIP3   OH238115   3.899   0.283  12.063  0.2926  0.0910 -0.9632
 5567TIP3    H138116   3.992   0.286  12.045  0.2393  1.6476 -1.1074
 5567TIP3    H238117   3.888   0.336  12.143 -0.2602 -1.5251  0.0941
 5568TIP3   OH238118   5.286   6.319  14.316 -0.4463  0.3172  0.0807
 5568TIP3    H138119   5.209   6.376  14.319 -1.6763 -1.2246 -0.9156
 5568TIP3    H238120   5.320   6.329  14.227  1.2099  1.8193  0.8327
 5569TIP3   OH238121   5.717   4.857   6.084 -0.0915 -0.8432  0.6444
 5569TIP3    H138122   5.735   4.766   6.108  0.7314 -0.6090  0.9354
 5569TIP3    H238123   5.672   4.893   6.161  3.7665  0.3001  2.6262
 5570TIP3   OH238124   2.566   5.101   1.445 -0.3776 -0.1215  0.0279
 5570TIP3    H138125   2.568   5.117   1.350 -1.8975  0.7964  0.1349
 5570TIP3    H238126   2.476   5.076   1.463 -0.3760  0.8073  1.4109
 5571TIP3   OH238127   5.548   4.265  11.948  1.1370 -0.6953  0.4711
 5571TIP3    H138128   5.616   4.212  11.905  0.7421  0.8136 -2.2321
 5571TIP3    H238129   5.593   4.346  11.971  0.8890 -0.7805  1.2725
 5572TIP3   OH238130   1.377   3.415  11.353  0.4086  0.0858 -0.2922
 5572TIP3    H138131   1.454   3.452  11.309  2.2227 -1.9845  0.8956
 5572TIP3    H238132   1.370   3.465  11.434  2.5239 -1.6280  1.0637
 5573TIP3   OH238133   3.169   0.943  13.077  0.7087 -0.2282  0.2927
 5573TIP3    H138134   3.230   0.870  13.088  1.2134  0.3978  1.9198
 5573TIP3    H238135   3.226   1.018  13.058  0.3596  0.1343  0.6594
 5574TIP3   OH238136   4.883   2.796   2.072 -0.0832 -0.7624  0.5684
 5574TIP3    H138137   4.868   2.852   1.996  1.5309 -1.4017 -0.2684
 5574TIP3    H238138   4.843   2.844   2.145  1.0289  1.3946 -0.1466
 5575TIP3   OH238139   0.271   5.024  13.834  0.3082  0.2708  0.4530
 5575TIP3    H138140   0.342   4.973  13.795  1.1878  0.7921  1.3280
 5575TIP3    H238141   0.301   5.115  13.830 -0.0042  0.4347  1.4299
 5576TIP3   OH238142   1.802   6.548  13.745 -0.5720 -0.7612 -0.5948
 5576TIP3    H138143   1.896   6.529  13.750  0.1008  2.2347 -0.0424
 5576TIP3    H238144   1.786   6.607  13.819 -2.9602 -1.3415 -0.5869
 5577TIP3   OH238145   2.508   5.348  11.558 -0.3060 -0.2302  0.0839
 5577TIP3    H138146   2.514   5.253  11.546  0.3745 -0.2866  0.8053
 5577TIP3    H238147   2.592   5.373  11.595  0.2856  0.9495 -1.8854
 5578TIP3   OH238148   0.371   4.655  14.429 -0.7050  0.8749  0.5366
 5578TIP3    H138149   0.398   4.586  14.491  0.8902  1.1673  0.2089
 5578TIP3    H238150   0.398   4.621  14.344  1.1903  2.3734  0.4841
 5579TIP3   OH238151   5.426   4.480   4.165  0.1832  0.1740 -0.0259
 5579TIP3    H138152   5.463   4.472   4.253 -0.5488  0.0716  0.2828
 5579TIP3    H238153   5.490   4.531   4.116 -1.6463  4.9170  1.9656
 5580TIP3   OH238154   5.781   1.233   5.457 -0.9671 -0.5591  0.0986
 5580TIP3    H138155   5.685   1.236   5.460 -1.0169  0.3955 -1.3163
 5580TIP3    H238156   5.801   1.170   5.388 -0.5412 -1.3784  0.9511
 5581TIP3   OH238157   1.489   0.631   2.051  0.6825  0.1390  0.2560
 5581TIP3    H138158   1.541   0.653   2.128  1.3138  0.1019 -0.1465
 5581TIP3    H238159   1.505   0.537   2.039  2.4252  0.5582 -1.2185
 5582TIP3   OH238160   0.309   3.709   2.187 -0.1461  0.2491  0.2181
 5582TIP3    H138161   0.344   3.756   2.111  0.7739 -0.3574  0.2462
 5582TIP3    H238162   0.379   3.649   2.212 -0.1416  0.9454  2.0180
 5583TIP3   OH238163   1.269   4.770   4.818  0.0451 -0.0460 -0.5459
 5583TIP3    H138164   1.316   4.690   4.794 -0.0119 -0.8527  1.7209
 5583TIP3    H238165   1.297   4.788   4.908 -1.4775  1.3350 -0.2884
 5584TIP3   OH238166   1.621   5.260  12.614 -0.5241  0.0718  0.7071
 5584TIP3    H138167   1.681   5.248  12.687 -0.9713 -0.5684  0.9848
 5584TIP3    H238168   1.668   5.315  12.552  1.1475 -2.0125  0.0073
 5585TIP3   OH238169   0.327   1.172   1.293  0.2248  0.0075 -0.1273
 5585TIP3    H138170   0.234   1.157   1.307  0.4566 -1.1181  0.2700
 5585TIP3    H238171   0.370   1.098   1.334  1.2450 -0.1063 -1.3409
 5586TIP3   OH238172   2.814   5.535  12.437 -0.5091  0.3691 -0.3060
 5586TIP3    H138173   2.743   5.507  12.494  0.2868  0.9601  1.0475
 5586TIP3    H238174   2.853   5.610  12.483  1.1584 -0.1161 -0.8464
 5587TIP3   OH238175   0.997   1.249  15.334 -0.1080  0.3109  0.0391
 5587TIP3    H138176   0.940   1.178  15.363 -0.8453  0.5267 -0.7962
 5587TIP3    H238177   1.023   1.294  15.414  1.2580 -1.5192  0.6751
 5588TIP3   OH238178   3.428   1.585  14.856  0.6444 -0.5199 -0.2801
 5588TIP3    H138179   3.365   1.641  14.900 -0.0117 -1.0041 -0.5922
 5588TIP3    H238180   3.439   1.624  14.769  2.5891  0.9396  0.5346
 5589TIP3   OH238181   3.484   3.420  12.935 -0.1559 -0.0309  0.2934
 5589TIP3    H138182   3.400   3.420  12.982 -0.4558 -1.4596 -0.2078
 5589TIP3    H238183   3.544   3.464  12.995 -1.1909  0.7790  0.7856
 5590TIP3   OH238184   2.371   0.121   0.641 -0.2736  0.7832  0.9749
 5590TIP3    H138185   2.426   0.060   0.692 -2.2142 -1.7888  0.2288
 5590TIP3    H238186   2.283   0.109   0.677 -1.3077  0.5426 -1.4346
 5591TIP3   OH238187   4.512   1.072  16.237 -0.0650 -0.2131  0.1005
 5591TIP3    H138188   4.516   1.089  16.331 -1.2894  0.6012  0.0270
 5591TIP3    H238189   4.581   1.127  16.199  0.6459 -0.7842  0.5228
 5592TIP3   OH238190   3.415   4.301  15.519  0.1616 -0.2462  0.3080
 5592TIP3    H138191   3.390   4.215  15.553  1.2579 -0.7772 -0.1892
 5592TIP3    H238192   3.486   4.283  15.457 -0.2139  0.9366 -0.4911
 5593TIP3   OH238193   0.980   3.993  12.616  0.5629 -0.3595 -0.0294
 5593TIP3    H138194   1.062   3.953  12.589  1.4599  1.8012 -0.7157
 5593TIP3    H238195   0.961   3.955  12.701  1.5977 -1.8132 -0.4185
 5594TIP3   OH238196   1.820   2.103   2.487  0.6269 -0.5635  0.3860
 5594TIP3    H138197   1.885   2.036   2.505 -1.7952 -2.6125  2.4083
 5594TIP3    H238198   1.786   2.126   2.573 -1.1196  0.5922 -0.5536
 5595TIP3   OH238199   0.760   6.078  14.919  0.0925 -0.1499  0.5867
 5595TIP3    H138200   0.738   6.085  15.011  2.9621  2.1144  1.2496
 5595TIP3    H238201   0.852   6.051  14.918  0.5444  1.1639 -1.4904
 5596TIP3   OH238202   1.541   4.526   6.630 -0.7265  0.4867  0.1503
 5596TIP3    H138203   1.585   4.599   6.586 -1.0085 -0.5475 -1.9501
 5596TIP3    H238204   1.583   4.521   6.716 -0.0996  2.5395  0.0165
 5597TIP3   OH238205   2.562   2.498  15.561 -0.1146  0.0034  0.0633
 5597TIP3    H138206   2.560   2.580  15.611  0.3350  0.5213 -0.7465
 5597TIP3    H238207   2.497   2.442  15.603  1.9002 -0.5026  2.7926
 5598TIP3   OH238208   4.897   1.181  11.854  0.3699 -0.5639 -0.2089
 5598TIP3    H138209   4.807   1.159  11.828 -0.3441 -0.3763  1.8837
 5598TIP3    H238210   4.929   1.238  11.785 -1.8149  0.8939 -0.1121
 5599TIP3   OH238211   1.915   4.006   2.357  0.1967  0.4527 -0.0216
 5599TIP3    H138212   1.856   4.076   2.385 -1.4901 -0.3285 -1.4183
 5599TIP3    H238213   1.918   4.013   2.261 -2.0168 -2.7433 -0.5133
 5600TIP3   OH238214   5.617   2.326  16.230  0.3033 -0.3863  0.3649
 5600TIP3    H138215   5.638   2.332  16.137  1.3578  0.7731  0.6432
 5600TIP3    H238216   5.660   2.246  16.260 -0.4710 -1.0424 -0.2244
 5601TIP3   OH238217   4.026   5.054  12.172 -0.3084 -0.4337 -0.0838
 5601TIP3    H138218   4.060   5.143  12.171 -0.6530 -0.2998 -0.3066
 5601TIP3    H238219   3.942   5.060  12.126  0.6423 -1.2556 -2.0465
 5602TIP3   OH238220   2.944   6.576   0.020  0.7407  0.5772 -0.1921
 5602TIP3    H138221   3.038   6.558   0.013  0.3219 -1.5087 -1.3170
 5602TIP3    H238222   2.907   6.494   0.051 -0.6385  1.6817  1.2342
 5603TIP3   OH238223   0.836   5.859   3.033  0.7101 -0.0079  0.6103
 5603TIP3    H138224   0.821   5.873   2.939  0.3284 -0.8231  0.5427
 5603TIP3    H238225   0.931   5.862   3.043  0.9556 -2.6186 -0.2715
 5604TIP3   OH238226   3.856   4.176   5.992 -0.4907 -0.0719  0.0958
 5604TIP3    H138227   3.920   4.171   6.063  1.7563  1.6232 -1.6444
 5604TIP3    H238228   3.777   4.211   6.033  0.8498  1.1960  1.7267
 5605TIP3   OH238229   0.479   4.418  10.881 -0.3747 -0.3148  0.2134
 5605TIP3    H138230   0.500   4.329  10.910 -3.3144 -1.2687 -0.3205
 5605TIP3    H238231   0.513   4.423  10.792  0.4812 -0.6002  0.5110
 5606TIP3   OH238232   0.465   3.471   3.021  0.0317  0.0383 -0.3141
 5606TIP3    H138233   0.534   3.512   3.074 -0.2969  0.7700 -0.4446
 5606TIP3    H238234   0.444   3.390   3.068 -1.0704  1.2183  1.3235
 5607TIP3   OH238235   4.528   3.528   2.792  0.0042  0.4667  0.9094
 5607TIP3    H138236   4.442   3.522   2.834 -0.8663  1.2946 -0.6733
 5607TIP3    H238237   4.527   3.612   2.746  1.0543 -0.1997 -0.4114
 5608TIP3   OH238238   5.366   5.149  11.135  0.5344 -0.2315 -0.3719
 5608TIP3    H138239   5.331   5.064  11.109 -2.0198  0.0405  1.7500
 5608TIP3    H238240   5.364   5.149  11.230  1.1447  1.9354 -0.2908
 5609TIP3   OH238241   0.228   2.779  11.367 -0.3259  0.4599  0.4601
 5609TIP3    H138242   0.207   2.786  11.274 -0.6387  3.6089  0.6799
 5609TIP3    H238243   0.289   2.850  11.384 -0.7820  0.3726  2.8140
 5610TIP3   OH238244   4.577   0.227   2.139 -0.0420  0.1349 -0.0655
 5610TIP3    H138245   4.615   0.159   2.083 -1.6253 -1.5382  0.7609
 5610TIP3    H238246   4.519   0.179   2.198 -0.9904  2.2023  0.7834
 5611TIP3   OH238247   3.572   0.008   0.693  0.7443 -0.2890  0.5110
 5611TIP3    H138248   3.570   0.078   0.758  0.8015  1.3458 -1.1362
 5611TIP3    H238249   3.648  -0.045   0.716  0.9277  0.4185  1.5956
 5612TIP3   OH238250   2.370   5.508   1.365 -0.1092  0.1080 -0.3772
 5612TIP3    H138251   2.299   5.540   1.422  0.7240 -1.2650  1.5398
 5612TIP3    H238252   2.325   5.468   1.291 -1.2670  1.2424 -0.3244
 5613TIP3   OH238253   5.813   1.950   2.283 -0.2951 -0.1369 -0.9972
 5613TIP3    H138254   5.734   1.932   2.232 -1.2122 -0.5913  0.5464
 5613TIP3    H238255   5.804   2.042   2.308 -0.2610 -0.1496 -0.9387
 5614TIP3   OH238256   4.799   6.659  13.619 -0.0511  0.0670 -0.1997
 5614TIP3    H138257   4.748   6.595  13.669  1.0431  0.8117  2.0048
 5614TIP3    H238258   4.858   6.606  13.565 -0.9770 -0.7633 -0.4269
 5615TIP3   OH238259   6.285   0.173   1.041  0.2799  0.4707  0.3378
 5615TIP3    H138260   6.377   0.201   1.044  1.1908 -1.7135 -2.4045
 5615TIP3    H238261   6.243   0.235   0.981  0.8985 -0.5139 -1.1831
 5616TIP3   OH238262   3.684   2.254  15.049  0.4444 -0.1257 -0.5589
 5616TIP3    H138263   3.637   2.224  15.127  0.9756  0.0110 -0.1765
 5616TIP3    H238264   3.666   2.348  15.044  2.1532  0.3310  0.6850
 5617TIP3   OH238265   5.219   3.507   3.085  0.3872  0.4070 -0.3644
 5617TIP3    H138266   5.228   3.602   3.097  1.2482  0.2141  0.7892
 5617TIP3    H238267   5.195   3.496   2.993 -0.1290  1.7619 -0.4132
 5618TIP3   OH238268   5.789   6.708   2.440 -0.1889 -0.5929  0.3219
 5618TIP3    H138269   5.823   6.728   2.527  0.1142 -1.6545  0.4660
 5618TIP3    H238270   5.826   6.775   2.383 -0.1253 -0.0856  0.9504
 5619TIP3   OH238271   0.393   0.351  14.043  0.0769 -0.1972  0.0915
 5619TIP3    H138272   0.426   0.363  14.132 -0.1308 -0.4632  0.2049
 5619TIP3    H238273   0.467   0.375  13.987  0.7554 -1.5437  0.3492
 5620TIP3   OH238274   1.607   3.546   3.199 -0.6410 -0.4054 -0.3574
 5620TIP3    H138275   1.626   3.620   3.257 -1.5250 -2.0596  2.2135
 5620TIP3    H238276   1.523   3.568   3.158  0.3480  1.1099 -1.7055
 5621TIP3   OH238277   2.221   2.839   6.568  0.5724  0.1730 -0.3352
 5621TIP3    H138278   2.292   2.777   6.587  1.8187  1.8954  0.9742
 5621TIP3    H238279   2.234   2.862   6.476  2.5352  1.3200  0.1545
 5622TIP3   OH238280   4.596   5.814   3.006  0.2262  0.1815  0.1655
 5622TIP3    H138281   4.653   5.823   3.082 -0.3856  0.6429  0.5737
 5622TIP3    H238282   4.512   5.849   3.034 -0.7207 -1.8573  0.0761
 5623TIP3   OH238283   5.627   1.735  13.476 -0.4575  0.5982  0.0911
 5623TIP3    H138284   5.711   1.732  13.430 -1.7500  2.0791 -2.6089
 5623TIP3    H238285   5.617   1.827  13.501 -1.5206  0.5440 -0.1026
 5624TIP3   OH238286   5.904   4.308  10.171 -0.2866 -0.3118  0.1381
 5624TIP3    H138287   5.991   4.329  10.138  0.1766 -3.0468 -0.6447
 5624TIP3    H238288   5.889   4.370  10.242  1.6899  1.1168 -0.6052
 5625TIP3   OH238289   2.154   5.305  16.236 -0.0310  0.3240 -0.1770
 5625TIP3    H138290   2.141   5.225  16.287  1.5461  0.6033  0.7300
 5625TIP3    H238291   2.137   5.280  16.146 -0.2539 -0.8560  0.1792
 5626TIP3   OH238292   4.643   2.901  15.963  0.2810 -0.5393  0.3389
 5626TIP3    H138293   4.650   2.896  16.058 -1.2167  0.1746  0.5205
 5626TIP3    H238294   4.703   2.972  15.938  2.2034 -2.0187  0.4766
 5627TIP3   OH238295   6.301   1.527   1.085 -0.1624 -0.6228 -0.1461
 5627TIP3    H138296   6.313   1.470   1.009  0.8004  0.3473 -0.7432
 5627TIP3    H238297   6.222   1.493   1.128 -1.1673 -0.7427 -1.9903
 5628TIP3   OH238298   1.565   6.486   0.489  0.9431  0.0830  0.0374
 5628TIP3    H138299   1.606   6.537   0.419  2.5687  2.0277  2.2558
 5628TIP3    H238300   1.637   6.459   0.545 -0.3125 -1.2595  1.1012
 5629TIP3   OH238301   0.979   1.384  15.086  0.1078 -0.3506 -1.2103
 5629TIP3    H138302   1.066   1.392  15.047 -0.4573 -0.6529 -2.5559
 5629TIP3    H238303   0.997   1.360  15.177  1.4510  0.5496 -1.1976
 5630TIP3   OH238304   2.752   3.279  12.702  0.0368  0.1836 -0.1790
 5630TIP3    H138305   2.742   3.371  12.678 -1.4017 -0.4447 -2.2972
 5630TIP3    H238306   2.711   3.231  12.630  0.3257 -2.1134  1.0939
 5631TIP3   OH238307   2.081   1.161   4.314  0.0185 -0.2805 -0.0661
 5631TIP3    H138308   2.067   1.067   4.319 -1.5146 -0.1148 -0.5794
 5631TIP3    H238309   2.022   1.198   4.380 -1.0860  0.4087 -1.3778
 5632TIP3   OH238310   2.396   3.653   0.112  0.3087 -0.0648 -0.1349
 5632TIP3    H138311   2.357   3.591   0.173 -0.2856 -0.8099 -1.2285
 5632TIP3    H238312   2.321   3.697   0.072  0.4178 -2.0842 -2.8563
 5633TIP3   OH238313   6.798   6.519  11.166  0.0011 -0.3820 -0.4131
 5633TIP3    H138314   6.858   6.458  11.209  0.5659  0.5111  0.1240
 5633TIP3    H238315   6.728   6.465  11.131 -0.0693 -1.2304  0.9614
 5634TIP3   OH238316   3.335   6.407  12.197  0.0951 -0.1154  0.5117
 5634TIP3    H138317   3.360   6.345  12.128  2.3766 -0.3823  1.4883
 5634TIP3    H238318   3.348   6.493  12.157 -0.7792 -0.2551 -0.0949
 5635TIP3   OH238319   3.527   3.498  12.284 -0.2524  0.6384  0.1169
 5635TIP3    H138320   3.537   3.593  12.286  0.6602  0.5808 -0.7957
 5635TIP3    H238321   3.521   3.473  12.376 -0.1293  1.5383  0.3857
 5636TIP3   OH238322   2.660   4.039  13.414  0.0151  0.1627  0.4089
 5636TIP3    H138323   2.585   4.033  13.354  1.3867  0.6477 -1.4585
 5636TIP3    H238324   2.634   4.105  13.478 -1.3998 -0.1648  0.2079
 5637TIP3   OH238325   5.042   3.346  11.376 -0.0467 -0.2443  0.4363
 5637TIP3    H138326   5.122   3.347  11.427  0.0417 -0.4340  0.3036
 5637TIP3    H238327   5.003   3.260  11.392  0.2365 -0.4987 -0.2012
 5638TIP3   OH238328   4.532   4.257  11.976 -0.7347 -0.2480 -0.2708
 5638TIP3    H138329   4.566   4.195  11.912 -2.5953 -0.6924 -0.8991
 5638TIP3    H238330   4.562   4.222  12.060 -0.3166 -1.0364 -0.7317
 5639TIP3   OH238331   3.045   2.287  12.201  0.0935 -0.7013  0.2877
 5639TIP3    H138332   3.034   2.192  12.193  1.3803 -0.9587  1.2120
 5639TIP3    H238333   3.087   2.299  12.287  3.2427  0.3888 -1.2495
 5640TIP3   OH238334   5.726   0.575   1.622  0.2741  0.1808  0.2934
 5640TIP3    H138335   5.747   0.497   1.570  0.8208 -0.0339  0.8078
 5640TIP3    H238336   5.811   0.618   1.635  0.8173 -1.5669  3.8081
 5641TIP3   OH238337   0.674   3.043  12.995 -0.1424 -0.5921 -0.2716
 5641TIP3    H138338   0.642   2.960  12.959  1.2380 -0.5887 -1.6235
 5641TIP3    H238339   0.752   3.063  12.944 -0.3309  1.4673  0.1293
 5642TIP3   OH238340   4.902   0.703   5.437 -0.5990  0.3764  0.6707
 5642TIP3    H138341   4.815   0.663   5.428  0.4478 -1.9694  0.3754
 5642TIP3    H238342   4.919   0.701   5.531 -0.2858 -0.5543  0.6074
 5643TIP3   OH238343   4.403   3.656  12.475  0.2516 -0.0944 -0.0408
 5643TIP3    H138344   4.444   3.652  12.388 -0.8600 -1.1096 -0.5487
 5643TIP3    H238345   4.423   3.571  12.515 -1.3253 -0.6356 -0.3173
 5644TIP3   OH238346   1.038   3.349   3.811  0.4764 -0.7178 -0.1372
 5644TIP3    H138347   1.064   3.417   3.749  1.6585 -0.1108  0.9812
 5644TIP3    H238348   0.943   3.361   3.823  0.2119 -0.8850 -1.8222
 5645TIP3   OH238349   2.108   0.324   2.735  0.2815 -0.5750 -0.4297
 5645TIP3    H138350   2.068   0.274   2.664  0.1997  0.0719 -0.8566
 5645TIP3    H238351   2.082   0.415   2.717  1.7148 -0.1693 -0.5613
 5646TIP3   OH238352   6.008   6.286   0.122  0.4230  0.7777 -0.2101
 5646TIP3    H138353   5.996   6.247   0.035 -0.9887  1.2538 -0.2458
 5646TIP3    H238354   6.076   6.231   0.163 -1.5830 -1.8950 -0.1781
 5647TIP3   OH238355   4.842   5.920   0.882  0.1365 -0.1810  0.6931
 5647TIP3    H138356   4.897   5.843   0.863  1.5377  1.0133 -0.3264
 5647TIP3    H238357   4.873   5.950   0.968  1.3807  0.6611 -0.0041
 5648TIP3   OH238358   6.569   4.055   4.198 -0.4077 -0.6367  0.1642
 5648TIP3    H138359   6.535   4.127   4.144 -0.7105 -0.4564  0.5859
 5648TIP3    H238360   6.499   4.037   4.260  0.5127  0.1941  1.4908
 5649TIP3   OH238361   1.834   1.046  14.300  0.3402 -0.0429 -0.1485
 5649TIP3    H138362   1.847   1.141  14.290  1.5146 -0.2842 -1.0739
 5649TIP3    H238363   1.844   1.011  14.212 -1.2018 -0.9324 -0.0039
 5650TIP3   OH238364   6.460   4.143  15.598 -0.0641  0.0066  0.2049
 5650TIP3    H138365   6.513   4.127  15.676 -1.0295  1.5980  1.2541
 5650TIP3    H238366   6.521   4.135  15.525  0.5660 -3.0803  0.9421
 5651TIP3   OH238367   3.784   0.621  14.860 -0.0105  0.8941 -0.1046
 5651TIP3    H138368   3.700   0.589  14.890  0.8432 -0.8662  0.5111
 5651TIP3    H238369   3.832   0.643  14.940  1.0160 -0.5333 -0.2945
 5652TIP3   OH238370   1.050   4.748  14.663  0.3957  0.8188 -0.2849
 5652TIP3    H138371   1.028   4.780  14.576  0.8296  0.8038 -0.4028
 5652TIP3    H238372   0.993   4.797  14.722 -0.2108  0.5146 -0.6127
 5653TIP3   OH238373   2.732   0.778  13.144 -0.3562  0.2680  0.1135
 5653TIP3    H138374   2.705   0.826  13.222  1.1854  1.6283 -0.1456
 5653TIP3    H238375   2.793   0.836  13.099  0.1246 -1.1850 -1.2235
 5654TIP3   OH238376   4.524   6.504  13.385  0.2326  0.1145  0.2457
 5654TIP3    H138377   4.565   6.426  13.421  1.1350  0.5937  0.2890
 5654TIP3    H238378   4.596   6.552  13.343 -0.2367  1.0917  0.5242
 5655TIP3   OH238379   6.323   1.342   5.949 -0.0634  0.3028 -1.1878
 5655TIP3    H138380   6.369   1.361   6.030  1.1766  1.6502 -2.1524
 5655TIP3    H238381   6.263   1.271   5.971 -0.1776  1.0221  1.0195
 5656TIP3   OH238382   4.607   2.012   3.903  0.0941  0.8155 -0.1123
 5656TIP3    H138383   4.562   1.952   3.843  1.6900 -0.2038 -0.3532
 5656TIP3    H238384   4.654   2.072   3.845 -1.5138  2.4123  0.1262
 5657TIP3   OH238385   2.728   2.574  16.888 -0.3178  0.6200  0.2717
 5657TIP3    H138386   2.747   2.501  16.830  0.9590  0.4411  0.8824
 5657TIP3    H238387   2.802   2.634  16.877 -0.5897  1.0915  0.9002
 5658TIP3   OH238388   3.440   3.342   2.577 -0.3925  0.6198  0.1611
 5658TIP3    H138389   3.510   3.400   2.605  0.8429 -0.3756 -0.7591
 5658TIP3    H238390   3.402   3.385   2.501  0.1147  0.5342 -0.1465
 5659TIP3   OH238391   3.399   4.723  14.025  0.0471  0.0248  0.0493
 5659TIP3    H138392   3.336   4.784  14.063 -0.6466  0.3568 -1.5469
 5659TIP3    H238393   3.426   4.765  13.943  1.6313 -0.5644  0.2274
 5660TIP3   OH238394   2.897   5.613   0.525  0.3792  0.3681  0.2720
 5660TIP3    H138395   2.973   5.596   0.580  0.1318 -0.8983  0.2394
 5660TIP3    H238396   2.923   5.587   0.437 -0.2681 -0.6112  0.3592
 5661TIP3   OH238397   4.517   1.811   1.271 -0.3860  0.2455  0.3821
 5661TIP3    H138398   4.451   1.746   1.294 -1.3605  1.2386  0.4795
 5661TIP3    H238399   4.532   1.798   1.177 -0.8887  0.1461  0.3122
 5662TIP3   OH238400   2.030   2.686  13.952  0.0127 -0.3168 -0.1354
 5662TIP3    H138401   1.995   2.709  13.866 -0.2665 -1.6366 -0.3975
 5662TIP3    H238402   2.071   2.766  13.983 -2.1291  0.9438 -0.3645
 5663TIP3   OH238403   5.224   2.466   4.302 -0.2429  0.0604 -1.0068
 5663TIP3    H138404   5.137   2.428   4.292  0.1012 -1.0733  0.0619
 5663TIP3    H238405   5.228   2.534   4.235 -2.0343  0.3082 -0.9206
 5664TIP3   OH238406   0.900   5.460   2.461  0.2490  0.1537  0.3870
 5664TIP3    H138407   0.921   5.529   2.397 -0.3720 -0.4014 -0.4419
 5664TIP3    H238408   0.957   5.387   2.436  0.7164  0.2607  1.1005
 5665TIP3   OH238409   0.792   4.508  15.608  0.2002  0.3092  0.2679
 5665TIP3    H138410   0.849   4.443  15.649  1.7045  0.4382 -1.5343
 5665TIP3    H238411   0.820   4.591  15.646  0.6343  0.2734  0.0333
 5666TIP3   OH238412   2.183   2.934   3.819 -0.2830  0.1748  0.3500
 5666TIP3    H138413   2.122   2.874   3.777  0.8669  0.2966 -1.6203
 5666TIP3    H238414   2.250   2.951   3.753  1.7852  0.2497  2.3139
 5667TIP3   OH238415   1.517   1.853  13.190 -0.0879  0.0615  0.2662
 5667TIP3    H138416   1.457   1.863  13.116 -1.5399 -1.2741  1.2036
 5667TIP3    H238417   1.595   1.811  13.153  0.6501  2.4648 -1.1133
 5668TIP3   OH238418   0.302   5.104   1.562 -0.4231  0.0671  0.9080
 5668TIP3    H138419   0.375   5.044   1.551 -0.9041 -0.7697  2.1256
 5668TIP3    H238420   0.321   5.150   1.644 -1.1774 -0.0464  1.1515
 5669TIP3   OH238421   0.458   1.953   0.698 -0.3576 -0.8117  0.5721
 5669TIP3    H138422   0.369   1.964   0.732  0.2386 -0.6551  2.1956
 5669TIP3    H238423   0.494   1.882   0.750 -0.1008 -2.1382 -1.3329
 5670TIP3   OH238424   4.759   5.840  11.507  0.0621 -0.2220 -0.2939
 5670TIP3    H138425   4.850   5.865  11.489 -0.3131  1.5926  0.0955
 5670TIP3    H238426   4.714   5.924  11.520 -1.9833 -1.0124 -1.8932
 5671TIP3   OH238427   3.013   5.839   3.364 -0.1249  0.4572 -0.2952
 5671TIP3    H138428   3.022   5.863   3.272 -1.7338 -1.0692 -0.9048
 5671TIP3    H238429   3.031   5.920   3.412  0.0542  1.4584 -1.9765
 5672TIP3   OH238430   5.421   5.258   1.303 -0.1384 -0.1590  0.1576
 5672TIP3    H138431   5.385   5.333   1.256  1.1384 -0.6687 -1.7973
 5672TIP3    H238432   5.465   5.296   1.379  0.3435  1.0798 -0.7060
 5673TIP3   OH238433   2.581   1.054  13.362  0.9303  0.1486  0.3908
 5673TIP3    H138434   2.486   1.053  13.352  1.0594  0.9738 -1.0893
 5673TIP3    H238435   2.596   1.005  13.443 -0.6307 -1.6595 -0.3153
 5674TIP3   OH238436   6.804   5.084  13.073  0.4527  0.0422 -0.5041
 5674TIP3    H138437   6.758   5.076  13.156  0.7588  0.1381 -0.3251
 5674TIP3    H238438   6.790   5.000  13.029  1.9498 -0.7631  0.4897
 5675TIP3   OH238439   4.204   2.140  16.786 -0.0249 -0.5397 -0.5312
 5675TIP3    H138440   4.261   2.069  16.813 -0.4124 -1.6402 -2.3790
 5675TIP3    H238441   4.231   2.160  16.696  0.1655  1.7778 -0.0240
 5676TIP3   OH238442   5.898   6.271   5.696 -0.0481 -0.0109 -0.4391
 5676TIP3    H138443   5.991   6.280   5.717 -0.1575  1.1514 -0.4254
 5676TIP3    H238444   5.861   6.358   5.711 -1.0011 -0.2795 -1.1436
 5677TIP3   OH238445   0.651   2.477  16.765  0.3674  0.3221 -0.4962
 5677TIP3    H138446   0.658   2.556  16.818  0.6521  0.3806 -0.6230
 5677TIP3    H238447   0.740   2.444  16.759  0.6663  1.3051 -2.4425
 5678TIP3   OH238448   5.126   4.604   3.552  0.2359  0.8215  0.1550
 5678TIP3    H138449   5.122   4.512   3.578  0.0610  0.5241 -0.8465
 5678TIP3    H238450   5.140   4.652   3.633 -1.2425  0.0345  0.9207
 5679TIP3   OH238451   3.472   2.090  11.051  0.2716 -0.4114 -0.1822
 5679TIP3    H138452   3.384   2.124  11.034 -0.2147 -0.8493  1.3053
 5679TIP3    H238453   3.515   2.091  10.966 -0.4358  1.8824 -0.5879
 5680TIP3   OH238454   6.072   4.790  15.387 -0.0253  0.0384  0.0675
 5680TIP3    H138455   6.044   4.787  15.296 -1.1988  0.9026  0.3762
 5680TIP3    H238456   6.033   4.870  15.422 -0.8973 -1.0461  1.7324
 5681TIP3   OH238457   2.726   1.058  14.712  0.6779  0.6292 -0.0808
 5681TIP3    H138458   2.715   1.002  14.635  1.1972 -0.0459  0.3183
 5681TIP3    H238459   2.807   1.027  14.753  0.3159  0.8525  0.8427
 5682TIP3   OH238460   2.771   6.605   1.901  0.2234  1.0709 -0.1146
 5682TIP3    H138461   2.830   6.666   1.856  0.7930  1.6407  1.3388
 5682TIP3    H238462   2.782   6.522   1.855  1.6884  1.3276 -0.2815
 5683TIP3   OH238463   5.144   1.627  15.926  0.2111 -0.1939 -0.0425
 5683TIP3    H138464   5.095   1.567  15.870  0.7208 -0.0209 -0.6985
 5683TIP3    H238465   5.157   1.704  15.872  2.5116 -0.8094 -0.4891
 5684TIP3   OH238466   3.151   4.862   3.962 -0.1209 -0.7021  0.4939
 5684TIP3    H138467   3.171   4.895   4.049 -1.4157 -0.1526  0.6048
 5684TIP3    H238468   3.202   4.916   3.902 -1.4319  0.8680  0.7412
 5685TIP3   OH238469   2.977   2.183   5.051 -0.3601 -0.5588  0.1135
 5685TIP3    H138470   3.059   2.134   5.051  1.2704  1.9766  0.4286
 5685TIP3    H238471   2.977   2.231   4.969 -2.8060 -2.3141 -1.0392
 5686TIP3   OH238472   1.679   3.842   1.953  0.1747  0.1832  0.7498
 5686TIP3    H138473   1.596   3.839   1.905  0.5162 -0.3408  0.1837
 5686TIP3    H238474   1.744   3.811   1.891  1.2973  3.3214  0.2107
 5687TIP3   OH238475   1.012   5.001  13.396 -0.4064  0.4197  0.0605
 5687TIP3    H138476   0.923   5.023  13.426  0.0752  1.6489  0.6517
 5687TIP3    H238477   1.043   5.081  13.354  1.0683  0.6274  1.4508
 5688TIP3   OH238478   1.001   1.879   5.899 -0.3474 -0.0034  0.6479
 5688TIP3    H138479   1.024   1.955   5.847  0.7306 -0.5562  0.2889
 5688TIP3    H238480   1.084   1.847   5.934 -0.5817 -1.7520 -0.2361
 5689TIP3   OH238481   6.179   6.321  14.579  0.4595  0.0351  0.0566
 5689TIP3    H138482   6.164   6.310  14.485  2.6078  2.2351 -0.6252
 5689TIP3    H238483   6.099   6.363  14.611  1.3377  3.3413 -1.7136
 5690TIP3   OH238484   5.055   0.944  11.596 -0.3341  0.6863  0.1579
 5690TIP3    H138485   5.104   1.025  11.579  3.0136 -1.1257  0.3423
 5690TIP3    H238486   5.010   0.926  11.513  0.6922  1.5935 -0.6364
 5691TIP3   OH238487   4.768   0.740  10.324  0.6026 -0.4203 -0.4319
 5691TIP3    H138488   4.712   0.664  10.340 -0.4373 -0.5880 -4.0084
 5691TIP3    H238489   4.856   0.704  10.314  0.1606 -1.1447 -1.8221
 5692TIP3   OH238490   0.468   0.879  12.345 -0.0366 -0.1560 -0.2600
 5692TIP3    H138491   0.529   0.816  12.383 -0.2450  0.1734  0.6533
 5692TIP3    H238492   0.470   0.861  12.251  1.8119  0.1425 -0.3211
 5693TIP3   OH238493   0.661   5.991   1.649 -0.1167  1.0922 -0.5092
 5693TIP3    H138494   0.572   5.986   1.613 -0.1378  2.3333 -0.6576
 5693TIP3    H238495   0.699   5.905   1.629 -0.6243  1.2125 -2.1862
 5694TIP3   OH238496   2.722   1.623   3.914  0.1836 -0.3098  0.6800
 5694TIP3    H138497   2.793   1.580   3.866 -0.4792  0.0396 -0.6737
 5694TIP3    H238498   2.736   1.716   3.899 -2.3766 -0.2588 -2.5410
 5695TIP3   OH238499   0.087   2.096   0.978 -0.4193  0.3712 -0.2035
 5695TIP3    H138500  -0.008   2.098   0.987 -0.3671 -0.5789  0.8929
 5695TIP3    H238501   0.114   2.187   0.996 -0.9820  0.1957  1.9010
 5696TIP3   OH238502   6.179   1.953  11.413  0.2395  0.8761  0.2615
 5696TIP3    H138503   6.104   2.010  11.395 -1.4762 -1.4306 -0.3936
 5696TIP3    H238504   6.165   1.923  11.503 -0.6549 -0.8789 -0.4062
 5697TIP3   OH238505   5.876   6.257  11.228  0.1945 -0.1667  0.1786
 5697TIP3    H138506   5.956   6.230  11.183  0.5255  1.2191 -0.1211
 5697TIP3    H238507   5.890   6.234  11.319  1.2760  0.7418  0.2605
 5698TIP3   OH238508   0.179   2.644   1.077 -0.3273 -0.2290  0.0358
 5698TIP3    H138509   0.151   2.724   1.122 -0.1998  0.0297 -0.3480
 5698TIP3    H238510   0.205   2.585   1.148  0.9328  0.5688  0.2584
 5699TIP3   OH238511   0.069   1.305  11.464  1.1380  0.2948  0.7863
 5699TIP3    H138512   0.003   1.244  11.431  0.5820  1.7046 -0.9445
 5699TIP3    H238513   0.078   1.285  11.557 -0.9195 -0.6768  0.8191
 5700TIP3   OH238514   5.518   1.199   1.633 -0.2190 -0.4800  0.0569
 5700TIP3    H138515   5.611   1.204   1.657 -0.5944  2.0204  1.2794
 5700TIP3    H238516   5.490   1.290   1.628 -2.7336 -1.1865  0.1122
 5701TIP3   OH238517   2.975   1.644   5.346  0.1955  0.2031  0.1927
 5701TIP3    H138518   3.023   1.719   5.383  0.2646 -0.5754  1.7890
 5701TIP3    H238519   2.919   1.682   5.279 -0.9263  1.9654  2.0259
 5702TIP3   OH238520   6.778   3.816  15.915  0.0407 -0.1726 -0.2135
 5702TIP3    H138521   6.693   3.823  15.959 -0.0954  1.2411 -0.6374
 5702TIP3    H238522   6.842   3.824  15.986 -0.1855  0.2507 -0.0482
 5703TIP3   OH238523   1.062   2.482  15.671  0.3852 -0.0786  0.2038
 5703TIP3    H138524   1.118   2.406  15.682  0.9532  0.3929  0.5959
 5703TIP3    H238525   1.010   2.487  15.751  1.4535  0.8344  0.8738
 5704TIP3   OH238526   1.107   3.854   3.589  0.1950  0.0055 -0.4824
 5704TIP3    H138527   1.085   3.897   3.671  1.5334  0.2518 -0.2308
 5704TIP3    H238528   1.135   3.926   3.532  2.3673 -0.4675 -0.0855
 5705TIP3   OH238529   1.082   3.822   2.387 -0.2286 -0.1468  0.1804
 5705TIP3    H138530   1.079   3.912   2.419 -1.0024  0.1499 -0.6950
 5705TIP3    H238531   1.176   3.804   2.376 -0.0777  0.6539  0.0919
 5706TIP3   OH238532   3.094   0.595  16.860  0.1102 -0.0513  0.3163
 5706TIP3    H138533   3.095   0.528  16.791  0.5911 -0.4886  0.7399
 5706TIP3    H238534   3.001   0.620  16.867  0.3338  1.8681 -2.2284
 5707TIP3   OH238535   2.283   3.823  11.840  0.2983  0.6823 -0.4602
 5707TIP3    H138536   2.202   3.774  11.855  0.4630  0.1511 -1.2488
 5707TIP3    H238537   2.306   3.859  11.926 -1.1566  1.4516 -0.3554
 5708TIP3   OH238538   4.863   0.834   4.809  0.7289 -0.3509  0.2018
 5708TIP3    H138539   4.924   0.882   4.866  2.1364 -2.5224  0.6384
 5708TIP3    H238540   4.783   0.827   4.861  1.2251 -0.2986  0.9894
 5709TIP3   OH238541   0.428   2.800   4.538 -0.5661  0.5466 -0.3652
 5709TIP3    H138542   0.506   2.768   4.583 -0.7102  1.6173  0.6857
 5709TIP3    H238543   0.412   2.886   4.577 -1.5753  0.8468 -1.4208
 5710TIP3   OH238544   0.264   6.492   3.062 -0.4561 -0.1896  0.4446
 5710TIP3    H138545   0.200   6.527   3.001  0.0997  0.2849  0.1263
 5710TIP3    H238546   0.261   6.397   3.048 -1.7851 -0.2747  1.1410
 5711TIP3   OH238547   0.521   0.902   3.982  0.3555  0.4279  0.3545
 5711TIP3    H138548   0.488   0.825   4.030 -0.4911  0.1201 -0.6871
 5711TIP3    H238549   0.484   0.893   3.894 -0.3971  2.4313  0.4171
 5712TIP3   OH238550   5.476   6.679  10.800 -0.0795 -0.4285 -0.3660
 5712TIP3    H138551   5.517   6.745  10.743 -0.4930 -1.3651 -1.7978
 5712TIP3    H238552   5.401   6.647  10.750  1.6500 -3.9682 -1.0302
 5713TIP3   OH238553   0.564   1.232   5.752  0.3201  0.3284  0.2795
 5713TIP3    H138554   0.632   1.258   5.689 -2.4341  2.1990 -2.1899
 5713TIP3    H238555   0.533   1.147   5.720  0.8538 -0.0873  0.8553
 5714TIP3   OH238556   1.624   0.387   3.431  0.0159 -0.7799 -0.4445
 5714TIP3    H138557   1.681   0.404   3.506 -1.3437 -2.5063  1.0728
 5714TIP3    H238558   1.616   0.292   3.427 -1.0023 -0.6740 -1.9783
 5715TIP3   OH238559   4.395   5.787  14.787  0.3899  0.1261  0.4890
 5715TIP3    H138560   4.337   5.819  14.856  0.1139  0.5485  0.0646
 5715TIP3    H238561   4.350   5.808  14.705  0.0411 -1.6172  0.1882
 5716TIP3   OH238562   1.686   4.597  13.210  1.0317 -0.3231 -0.0854
 5716TIP3    H138563   1.725   4.676  13.247  2.9009 -0.4885 -1.5484
 5716TIP3    H238564   1.593   4.604  13.231  1.1827  2.1109  0.0894
 5717TIP3   OH238565   4.409   1.562  12.555  0.2905 -0.2945 -0.2144
 5717TIP3    H138566   4.393   1.541  12.463  0.1490 -1.4474  0.0613
 5717TIP3    H238567   4.330   1.608  12.584 -0.4289 -1.5215 -0.1975
 5718TIP3   OH238568   0.728   0.408   1.076  0.0983 -0.5794 -0.4602
 5718TIP3    H138569   0.767   0.472   1.136 -0.6171 -0.0264 -0.5799
 5718TIP3    H238570   0.756   0.323   1.111  0.1507 -0.2462  0.3319
 5719TIP3   OH238571   1.671   6.301  16.275 -0.4820 -0.3464  0.2226
 5719TIP3    H138572   1.750   6.350  16.298  0.7843 -0.2372 -3.5969
 5719TIP3    H238573   1.653   6.245  16.350  0.8892  2.4084  2.7727
 5720TIP3   OH238574   0.001   2.557   0.234  0.0572 -0.1920 -0.2061
 5720TIP3    H138575  -0.071   2.605   0.194 -0.1299 -0.5425 -0.2967
 5720TIP3    H238576  -0.023   2.549   0.326 -0.0933 -0.4429 -0.2671
 5721TIP3   OH238577   5.297   0.597  15.867  0.2835  0.4224 -0.0496
 5721TIP3    H138578   5.238   0.624  15.938 -0.0995 -1.0330  0.2165
 5721TIP3    H238579   5.244   0.541  15.811  1.5227 -1.5099  0.5745
 5722TIP3   OH238580   4.574   5.863   0.819  0.4065  0.0149  0.5702
 5722TIP3    H138581   4.581   5.869   0.724 -1.3565  0.8179  0.4652
 5722TIP3    H238582   4.665   5.859   0.849  0.9931 -0.1920 -1.1316
 5723TIP3   OH238583   2.940   1.378   3.551  0.2558  0.0022  0.1449
 5723TIP3    H138584   2.944   1.431   3.631  0.0963 -0.4908  0.4842
 5723TIP3    H238585   2.851   1.390   3.518  0.1486 -0.2233  0.3447
 5724TIP3   OH238586   6.309   3.981  14.167 -0.1747  0.0728 -0.1375
 5724TIP3    H138587   6.308   4.009  14.075  1.8608 -0.1413 -0.2618
 5724TIP3    H238588   6.231   3.925  14.175 -1.1977  1.2478 -1.3293
 5725TIP3   OH238589   5.012   2.083  12.878  0.0610  0.5586  0.0669
 5725TIP3    H138590   5.004   1.988  12.873 -1.4929  0.6552  0.2364
 5725TIP3    H238591   4.934   2.117  12.834  0.3804  1.7564  0.3680
 5726TIP3   OH238592   5.286   0.784   3.822 -0.0955  0.0724  0.5073
 5726TIP3    H138593   5.249   0.741   3.745 -0.4719  2.3979 -0.7087
 5726TIP3    H238594   5.373   0.746   3.832  0.2332  0.2066 -1.5114
 5727TIP3   OH238595   0.387   3.728   1.069  0.8240 -0.2987 -0.3635
 5727TIP3    H138596   0.350   3.777   1.142 -0.5828 -0.9201 -0.6196
 5727TIP3    H238597   0.476   3.762   1.059  0.5724  0.7382  0.7591
 5728TIP3   OH238598   6.250   3.061  16.405  0.6281  0.5176 -0.6148
 5728TIP3    H138599   6.225   2.979  16.364  0.4987 -0.2188  0.8805
 5728TIP3    H238600   6.180   3.122  16.383  0.4408  0.0832 -1.2475
 5729TIP3   OH238601   1.644   5.399  11.165 -0.3909 -0.0088  0.1367
 5729TIP3    H138602   1.654   5.434  11.076 -0.8160  0.5620  0.3036
 5729TIP3    H238603   1.622   5.307  11.152 -0.0351 -0.0314 -0.3394
 5730TIP3   OH238604   1.171   1.697   4.442  0.5130  0.1974  0.3485
 5730TIP3    H138605   1.197   1.678   4.532  0.1941 -0.7899  0.2454
 5730TIP3    H238606   1.228   1.769   4.415 -0.0653  1.1861  1.6593
 5731TIP3   OH238607   0.294   4.445   6.318  0.3724  0.2098  0.1653
 5731TIP3    H138608   0.211   4.453   6.364  0.8123  2.6929  0.6664
 5731TIP3    H238609   0.355   4.410   6.384  0.5716  2.0134  0.9788
 5732TIP3   OH238610   1.474   5.669  16.000  0.1184 -0.1115 -0.2846
 5732TIP3    H138611   1.423   5.716  16.065  0.5602  0.2361 -0.1880
 5732TIP3    H238612   1.495   5.734  15.933  0.4500 -0.2457 -0.3154
 5733TIP3   OH238613   2.050   0.376  13.500 -0.1955  0.0737 -0.0862
 5733TIP3    H138614   1.993   0.400  13.573  0.6100  0.3860  0.4518
 5733TIP3    H238615   2.045   0.450  13.440  0.1168  0.3833  0.2584
 5734TIP3   OH238616   5.256   2.497  11.910  0.2146  0.2525  0.7020
 5734TIP3    H138617   5.189   2.523  11.847  0.0781  1.0503  1.1736
 5734TIP3    H238618   5.276   2.406  11.887 -1.4327 -0.1936  0.9023
 5735TIP3   OH238619   2.320   6.372   2.687 -0.2781  0.1136 -0.2669
 5735TIP3    H138620   2.303   6.441   2.750  0.8253  0.8885 -0.7908
 5735TIP3    H238621   2.408   6.390   2.655 -0.5233 -0.7164 -1.4592
 5736TIP3   OH238622   1.208   2.546   1.497  0.4675 -0.2259  0.2829
 5736TIP3    H138623   1.253   2.584   1.572  2.3810  1.0338 -1.4058
 5736TIP3    H238624   1.243   2.457   1.490  3.4932  0.9641 -1.4500
 5737TIP3   OH238625   4.242   2.281   1.762  0.3967  0.2535 -0.2594
 5737TIP3    H138626   4.259   2.358   1.817  0.1689 -0.0722  0.2757
 5737TIP3    H238627   4.313   2.281   1.698 -0.3854  1.7252 -1.1803
 5738TIP3   OH238628   6.358   1.094   6.298 -0.1837  0.1631  0.0970
 5738TIP3    H138629   6.294   1.130   6.359  1.8121  1.6152  1.4867
 5738TIP3    H238630   6.367   1.160   6.229  0.3962  0.3838  0.3704
 5739TIP3   OH238631   2.286   4.786  11.366  0.0254 -0.1522 -0.2546
 5739TIP3    H138632   2.248   4.738  11.440  0.1880  1.1478  0.7115
 5739TIP3    H238633   2.368   4.740  11.348  1.0916  0.7599  1.8650
 5740TIP3   OH238634   6.425   2.618  14.460 -0.4401 -0.7828  0.2241
 5740TIP3    H138635   6.432   2.677  14.535  0.7663 -0.7942  0.1440
 5740TIP3    H238636   6.459   2.534  14.491 -1.1579 -1.1526  0.0332
 5741TIP3   OH238637   3.417   3.094   2.085  0.4187 -0.2540 -0.5408
 5741TIP3    H138638   3.363   3.151   2.031  0.5721  1.5203  1.0860
 5741TIP3    H238639   3.504   3.134   2.081  0.6667 -0.7110  0.1687
 5742TIP3   OH238640   6.373   5.383  16.842 -0.3202 -0.3293 -0.2478
 5742TIP3    H138641   6.343   5.306  16.890 -0.3094 -0.6634 -0.7691
 5742TIP3    H238642   6.351   5.457  16.899  0.9931 -0.7991  0.9479
 5743TIP3   OH238643   2.330   0.823  12.461 -0.8753  0.3948  0.1846
 5743TIP3    H138644   2.369   0.883  12.398  1.1540 -0.4310  0.5678
 5743TIP3    H238645   2.327   0.872  12.543  2.0393 -0.3150  0.8393
 5744TIP3   OH238646   1.228   3.812  15.867 -0.2015  0.1278  0.3911
 5744TIP3    H138647   1.204   3.785  15.956  0.1121 -0.3013  0.3556
 5744TIP3    H238648   1.255   3.730  15.824 -1.1959  0.1814 -0.3821
 5745TIP3   OH238649   2.377   6.243   3.151 -0.4429 -0.2297  0.2364
 5745TIP3    H138650   2.339   6.327   3.174  0.3704  0.1201  0.3427
 5745TIP3    H238651   2.398   6.250   3.058  0.5580  0.0710  0.4703
 5746TIP3   OH238652   4.301   0.860  15.299 -0.3913 -0.8368  0.8794
 5746TIP3    H138653   4.268   0.903  15.220  1.6916 -0.5362  0.1112
 5746TIP3    H238654   4.329   0.773  15.268 -0.3197 -1.0232  1.4635
 5747TIP3   OH238655   6.648   5.151  16.241 -0.1496 -0.3881 -0.8130
 5747TIP3    H138656   6.738   5.121  16.251  0.9500  2.5890 -0.8521
 5747TIP3    H238657   6.595   5.073  16.257  2.3945 -2.2189 -0.6990
 5748TIP3   OH238658   3.998   2.982   3.266 -0.3711  0.1288  0.9944
 5748TIP3    H138659   4.014   2.910   3.328 -2.0972 -0.7589  0.4512
 5748TIP3    H238660   4.042   2.955   3.186 -0.0158  0.2472  1.1461
 5749TIP3   OH238661   0.098   0.953  15.127 -0.3707 -0.1978  0.3152
 5749TIP3    H138662   0.063   1.006  15.056 -0.7462 -1.1874 -0.2611
 5749TIP3    H238663   0.183   0.992  15.147  0.3485 -0.6877 -1.5853
 5750TIP3   OH238664   3.987   4.509  11.247 -0.3004 -0.4638  0.4555
 5750TIP3    H138665   3.971   4.520  11.153  0.2765 -3.3442 -0.0626
 5750TIP3    H238666   3.901   4.492  11.285 -0.6017  1.1751  0.5819
 5751TIP3   OH238667   5.758   2.213   3.611  0.0302  0.2990 -0.0477
 5751TIP3    H138668   5.781   2.229   3.519 -0.7190  1.3602 -0.0659
 5751TIP3    H238669   5.746   2.118   3.615  0.7308  0.1593 -0.8896
 5752TIP3   OH238670   0.621   6.253   0.405  0.2336  0.3138  0.0478
 5752TIP3    H138671   0.704   6.212   0.428  0.0387  0.2414  0.6618
 5752TIP3    H238672   0.624   6.339   0.447 -1.0907 -0.7036  2.4591
 5753TIP3   OH238673   3.091   6.806  14.905 -0.4439  0.1500  0.0184
 5753TIP3    H138674   3.083   6.803  15.000  0.5968  0.7736  0.1357
 5753TIP3    H238675   3.010   6.848  14.875 -0.5558  0.3923  0.6592
 5754TIP3   OH238676   5.691   5.848  16.112 -0.3351  0.0609  0.2066
 5754TIP3    H138677   5.774   5.816  16.147  0.4068  0.7807 -0.8396
 5754TIP3    H238678   5.712   5.933  16.073 -1.6741  0.5040  0.3708
 5755TIP3   OH238679   5.968   6.489   3.746  0.1172 -0.4465  0.0429
 5755TIP3    H138680   5.903   6.543   3.702  0.2741  1.5719  2.1306
 5755TIP3    H238681   6.044   6.546   3.756  0.7527 -1.4481  1.1810
 5756TIP3   OH238682   6.517   2.890   1.606 -0.4010 -0.6321 -0.0030
 5756TIP3    H138683   6.489   2.799   1.602 -0.5284 -0.5770 -0.3858
 5756TIP3    H238684   6.436   2.940   1.592 -0.3298 -0.4595  0.1955
 5757TIP3   OH238685   4.927   6.510   6.620  0.5334 -0.6853 -0.2070
 5757TIP3    H138686   4.831   6.500   6.622  0.3737  0.6706  0.5582
 5757TIP3    H238687   4.949   6.509   6.527 -0.2121 -1.1800 -0.3902
 5758TIP3   OH238688   4.685   2.017  16.291 -0.2383 -0.1751 -0.1404
 5758TIP3    H138689   4.733   1.982  16.366 -0.6748 -0.0478  0.2047
 5758TIP3    H238690   4.615   1.954  16.274 -0.9896  0.4654  0.4468
 5759TIP3   OH238691   6.389   2.757  12.741 -0.3957 -0.0582  0.3859
 5759TIP3    H138692   6.329   2.779  12.670  0.6292 -0.6570 -0.7051
 5759TIP3    H238693   6.354   2.676  12.777 -1.6761  0.9394  1.4901
 5760TIP3   OH238694   6.725   3.936   3.054  0.0734  0.1942 -0.3862
 5760TIP3    H138695   6.672   3.968   3.127  0.9596 -0.2969  0.4957
 5760TIP3    H238696   6.671   3.870   3.012 -0.8573  1.2044 -0.8219
 5761TIP3   OH238697   6.702   4.422  12.302  0.2402  0.4616 -0.4235
 5761TIP3    H138698   6.784   4.470  12.306 -1.4422  3.6637 -0.8272
 5761TIP3    H238699   6.713   4.362  12.228  2.3956  0.2841 -0.0244
 5762TIP3   OH238700   0.164   4.155   0.819 -0.0184  0.5033  0.0856
 5762TIP3    H138701   0.181   4.090   0.888  1.7290  1.0929  0.2619
 5762TIP3    H238702   0.150   4.237   0.866  1.0231  0.8767 -0.2248
 5763TIP3   OH238703   3.465   3.112  11.738 -0.0695  0.0543 -0.6180
 5763TIP3    H138704   3.378   3.098  11.699 -1.7943  2.1266  2.0610
 5763TIP3    H238705   3.461   3.201  11.773  3.3514  0.3568 -0.7208
 5764TIP3   OH238706   0.114   6.106  14.637  0.3176 -0.0867 -0.5248
 5764TIP3    H138707   0.163   6.029  14.610  0.0430 -0.6656  0.5732
 5764TIP3    H238708   0.074   6.082  14.721 -1.0482  0.7059 -0.9063
 5765TIP3   OH238709   1.895   1.888  15.950 -0.3695  0.4420 -0.1061
 5765TIP3    H138710   1.838   1.819  15.916  0.0031  0.4627 -0.8013
 5765TIP3    H238711   1.951   1.911  15.876 -2.6421  3.8551 -0.9769
 5766TIP3   OH238712   5.767   3.329  16.078  0.4751 -0.0023  0.7384
 5766TIP3    H138713   5.765   3.243  16.120 -1.4266 -0.0081  0.7043
 5766TIP3    H238714   5.727   3.316  15.993  0.8524  0.7848  0.4252
 5767TIP3   OH238715   5.862   5.725   0.383  0.2482  0.3590  0.3607
 5767TIP3    H138716   5.821   5.695   0.464 -1.0645  0.5119 -0.2190
 5767TIP3    H238717   5.926   5.790   0.411  1.5387 -1.3064  1.4563
 5768TIP3   OH238718   6.583   1.273   4.605  0.2732  0.4774 -0.0270
 5768TIP3    H138719   6.670   1.249   4.636  0.4032 -0.0995 -0.7874
 5768TIP3    H238720   6.526   1.260   4.681  0.4690 -1.5255 -0.1467
 5769TIP3   OH238721   2.036   3.272  16.606 -0.7289  0.1358 -0.0304
 5769TIP3    H138722   1.967   3.232  16.553 -2.0900 -0.9482  2.4049
 5769TIP3    H238723   2.117   3.256  16.557 -1.7187 -2.1588 -1.0526
 5770TIP3   OH238724   2.340   2.486   2.056  0.8630  0.0128 -0.2319
 5770TIP3    H138725   2.270   2.535   2.012  0.1561 -0.5537  0.2338
 5770TIP3    H238726   2.382   2.437   1.985  1.0705  0.6773 -0.5793
 5771TIP3   OH238727   0.279   3.812  11.215  0.0354  0.0277  0.0319
 5771TIP3    H138728   0.252   3.733  11.168  0.8993 -0.1404 -0.1977
 5771TIP3    H238729   0.301   3.875  11.146 -1.0493  0.6229  0.2093
 5772TIP3   OH238730   0.379   4.688  11.374 -1.1393 -0.1703  0.1340
 5772TIP3    H138731   0.438   4.714  11.444 -1.6218 -1.1692  0.9466
 5772TIP3    H238732   0.431   4.696  11.294 -1.2704  3.2226  0.2686
 5773TIP3   OH238733   5.178   4.874   1.417  0.1357 -0.3303 -0.1150
 5773TIP3    H138734   5.159   4.800   1.359  0.9638  0.2064 -1.1132
 5773TIP3    H238735   5.131   4.854   1.498  0.7616 -2.2140 -0.1553
 5774TIP3   OH238736   1.378   4.127  15.421 -0.3039 -0.3405 -0.0351
 5774TIP3    H138737   1.318   4.202  15.416  1.6372  1.4372  1.2001
 5774TIP3    H238738   1.340   4.070  15.488 -1.3293  0.0368 -0.2827
 5775TIP3   OH238739   3.776   4.805   4.967 -0.8247 -0.0305  0.0799
 5775TIP3    H138740   3.750   4.845   4.884 -1.3335  1.0532  0.7439
 5775TIP3    H238741   3.779   4.878   5.029  0.3649 -0.6894  0.8351
 5776TIP3   OH238742   1.054   6.323  10.707  0.2697 -0.1516 -0.2638
 5776TIP3    H138743   1.101   6.297  10.787  0.8971 -0.1204 -0.6100
 5776TIP3    H238744   1.097   6.403  10.680 -0.8076  0.5607  0.0792
 5777TIP3   OH238745   6.197   5.912   5.703 -0.0827  0.1115  0.3946
 5777TIP3    H138746   6.114   5.952   5.732 -0.4728 -1.6035  1.8270
 5777TIP3    H238747   6.261   5.983   5.709 -0.8686  0.7511  2.2221
 5778TIP3   OH238748   3.176   3.691  14.576 -0.3733 -0.3364  0.1835
 5778TIP3    H138749   3.165   3.784  14.597  1.4774  0.4748 -2.1003
 5778TIP3    H238750   3.094   3.667  14.532  0.0177  0.8573 -1.2430
 5779TIP3   OH238751   0.320   2.856   3.270 -0.1569 -0.2294 -0.2076
 5779TIP3    H138752   0.399   2.844   3.322 -0.5766  0.4793  0.6234
 5779TIP3    H238753   0.345   2.830   3.181  1.2894  0.9537 -0.1798
 5780TIP3   OH238754   2.372   3.904  12.100 -0.1942  0.1152 -0.5218
 5780TIP3    H138755   2.414   3.986  12.074  1.0591  0.4728  2.3345
 5780TIP3    H238756   2.278   3.921  12.089  0.1192  0.7910 -2.8927
 5781TIP3   OH238757   5.693   2.431  12.522 -0.7483  0.0060  0.5776
 5781TIP3    H138758   5.749   2.398  12.452  3.0565 -0.1660  3.4073
 5781TIP3    H238759   5.714   2.524  12.527 -1.3447  0.1119  1.1677
 5782TIP3   OH238760   0.696   3.961  14.121  0.0456 -0.6741 -0.2944
 5782TIP3    H138761   0.768   3.899  14.131  0.5141 -0.2601 -0.9939
 5782TIP3    H238762   0.735   4.037  14.078  0.0770  1.1639  2.6685
 5783TIP3   OH238763   5.584   0.908   5.839 -0.4357  0.4380  0.1136
 5783TIP3    H138764   5.532   0.894   5.918  1.0522  0.6218  1.1841
 5783TIP3    H238765   5.557   0.994   5.807  0.0979  1.1274  1.4137
 5784TIP3   OH238766   3.581   3.084   4.546  0.1638 -0.2318 -0.1623
 5784TIP3    H138767   3.550   3.175   4.555  1.5509  0.1696  0.9164
 5784TIP3    H238768   3.615   3.062   4.633 -1.1569 -2.2036 -0.0941
 5785TIP3   OH238769   0.819   2.738  13.160 -0.3035  0.4117  0.1715
 5785TIP3    H138770   0.897   2.793  13.165 -0.6306  1.0138 -1.0497
 5785TIP3    H238771   0.831   2.686  13.081 -1.2559  0.7086 -0.1875
 5786TIP3   OH238772   5.716   1.656   1.769  0.1583  0.3396  0.0289
 5786TIP3    H138773   5.811   1.669   1.774  0.2933 -0.0321 -1.3054
 5786TIP3    H238774   5.703   1.566   1.798  0.5970 -0.7224 -2.7843
 5787TIP3   OH238775   3.878   6.146  14.906 -0.5293  0.0788 -0.8776
 5787TIP3    H138776   3.960   6.172  14.948 -1.9788 -0.8173  2.9020
 5787TIP3    H238777   3.906   6.096  14.829  2.5113 -0.6468  0.5489
 5788TIP3   OH238778   6.118   5.922   3.292  0.3152  0.3582 -0.2282
 5788TIP3    H138779   6.078   5.983   3.354 -3.0511 -1.6869 -0.1087
 5788TIP3    H238780   6.157   5.854   3.348  1.5121  0.9012 -0.3781
 5789TIP3   OH238781   6.718   2.817  12.032  0.4741  0.2049 -0.0719
 5789TIP3    H138782   6.763   2.747  12.079 -1.4968 -1.3967 -0.4106
 5789TIP3    H238783   6.699   2.780  11.945 -1.1073  0.9171 -0.0711
 5790TIP3   OH238784   0.361   0.053   5.777  0.4507  0.3156 -0.1523
 5790TIP3    H138785   0.439   0.037   5.830  0.7429  0.4986 -0.5204
 5790TIP3    H238786   0.304  -0.022   5.794  0.6814  0.2124  0.1672
 5791TIP3   OH238787   1.425   2.951  13.027 -0.6045  0.5477 -0.5332
 5791TIP3    H138788   1.457   3.005  12.955  0.4647  0.0942 -0.4180
 5791TIP3    H238789   1.338   2.922  12.999 -0.8488  1.6500 -0.9462
 5792TIP3   OH238790   1.199   3.842  12.509  0.3935 -0.1186  0.0408
 5792TIP3    H138791   1.277   3.842  12.454  1.5926 -1.0895  1.6223
 5792TIP3    H238792   1.166   3.752  12.504 -0.1378  0.0741  0.0252
 5793TIP3   OH238793   2.697   5.419   5.612  0.3327  0.0038  0.7650
 5793TIP3    H138794   2.690   5.386   5.523 -3.6727  1.8995  0.1272
 5793TIP3    H238795   2.790   5.412   5.634  1.1633 -2.4047 -2.7453
 5794TIP3   OH238796   3.410   1.386   1.181 -0.2089 -0.0966  0.1306
 5794TIP3    H138797   3.353   1.349   1.249 -0.8207 -1.7791 -1.2121
 5794TIP3    H238798   3.352   1.439   1.127 -0.8532 -2.5329 -1.7763
 5795TIP3   OH238799   4.082   5.594  15.871 -0.3549 -0.0215 -0.6542
 5795TIP3    H138800   4.080   5.505  15.837 -1.5217 -0.2094 -0.1076
 5795TIP3    H238801   4.036   5.646  15.805  2.0676  0.5752 -1.9938
 5796TIP3   OH238802   2.864   1.258  14.462 -0.1584 -0.1689  0.8188
 5796TIP3    H138803   2.934   1.192  14.464  0.5677  0.5913  2.3615
 5796TIP3    H238804   2.800   1.223  14.400 -0.2136 -2.7566  2.2008
 5797TIP3   OH238805   1.116   5.410  11.716  0.2976  0.0544  0.5855
 5797TIP3    H138806   1.165   5.349  11.771  0.5903 -1.2779 -1.0598
 5797TIP3    H238807   1.161   5.408  11.632 -0.9544  0.9424 -0.1410
 5798TIP3   OH238808   2.947   0.821   4.750 -0.1998  0.5214  0.2925
 5798TIP3    H138809   2.925   0.824   4.843 -1.7963  0.7194 -0.0552
 5798TIP3    H238810   2.996   0.902   4.734  1.4620 -0.2439  1.2393
 5799TIP3   OH238811   1.779   5.154   2.678  0.0206 -0.2855 -0.5850
 5799TIP3    H138812   1.802   5.211   2.604  1.2601  1.4265  1.0335
 5799TIP3    H238813   1.719   5.206   2.731 -1.3901 -1.7538 -0.6770
 5800TIP3   OH238814   4.774   3.486  15.375 -0.0921 -0.0121 -0.4766
 5800TIP3    H138815   4.717   3.557  15.348  1.6199  0.3278 -3.6778
 5800TIP3    H238816   4.756   3.416  15.312  0.9769 -0.9680  0.2376
 5801TIP3   OH238817   0.993   2.033  11.170 -0.1273 -0.1999  0.5549
 5801TIP3    H138818   1.006   1.999  11.258  1.3705  1.4433  1.0408
 5801TIP3    H238819   0.906   2.072  11.171 -0.5174 -1.0644  0.9841
 5802TIP3   OH238820   6.558   2.362   3.065  0.0049 -0.9510  0.3873
 5802TIP3    H138821   6.604   2.385   3.145 -0.2583 -0.5577  0.4256
 5802TIP3    H238822   6.582   2.270   3.050 -0.9317 -1.4225  1.5981
 5803TIP3   OH238823   4.813   2.956  15.043 -0.0424 -0.0019  0.1305
 5803TIP3    H138824   4.803   2.968  14.948 -0.1129 -0.4371  0.0799
 5803TIP3    H238825   4.753   2.884  15.064  2.2116 -2.0860 -0.0373
 5804TIP3   OH238826   2.936   2.815  11.147  0.6218  0.0246 -0.0610
 5804TIP3    H138827   3.004   2.882  11.157  1.1719 -0.7001  1.4619
 5804TIP3    H238828   2.866   2.843  11.206  0.0457  0.2006 -0.8097
 5805TIP3   OH238829   5.212   0.460  13.707 -0.1082  0.3915 -0.2986
 5805TIP3    H138830   5.282   0.486  13.646 -1.1227  1.1386 -1.1803
 5805TIP3    H238831   5.206   0.533  13.769  0.8492 -0.3201  0.6771
 5806TIP3   OH238832   6.022   4.395   4.388  1.1119  0.0179 -0.1251
 5806TIP3    H138833   6.116   4.386   4.370  0.8127 -0.6541 -1.5576
 5806TIP3    H238834   5.988   4.306   4.380  0.3795  0.2247  0.5956
 5807TIP3   OH238835   6.210   5.245   5.531 -0.4449 -0.3901 -0.0947
 5807TIP3    H138836   6.156   5.270   5.606  0.8750  3.1259 -0.1013
 5807TIP3    H238837   6.295   5.287   5.548  1.1706 -2.7182 -1.7767
 5808TIP3   OH238838   1.244   5.766   0.959  0.1906  0.0915 -0.1965
 5808TIP3    H138839   1.209   5.849   0.927  0.2138 -0.1270 -0.8153
 5808TIP3    H238840   1.329   5.758   0.916  0.1359 -0.3087 -0.2335
 5809TIP3   OH238841   3.907   0.945   4.170  0.3079 -0.1077 -0.2234
 5809TIP3    H138842   3.880   0.919   4.258 -0.5615  0.9637 -0.1453
 5809TIP3    H238843   4.001   0.927   4.168  0.0460 -1.7558  0.3128
 5810TIP3   OH238844   1.278   5.304   0.643  0.5088 -0.2264  0.2381
 5810TIP3    H138845   1.291   5.368   0.713 -0.2039  0.1389  0.0377
 5810TIP3    H238846   1.223   5.237   0.681  0.1719 -0.0590  0.0522
 5811TIP3   OH238847   0.212   5.841   0.647  0.2359 -0.1149 -0.0651
 5811TIP3    H138848   0.233   5.795   0.728  1.5014  1.5876  0.6372
 5811TIP3    H238849   0.287   5.825   0.590 -1.0312 -2.0344 -1.3070
 5812TIP3   OH238850   4.850   5.332  10.855 -0.1307  0.6159 -0.3332
 5812TIP3    H138851   4.850   5.263  10.788 -1.1779  0.1213  0.1540
 5812TIP3    H238852   4.853   5.414  10.804 -1.5145  0.2624 -1.0322
 5813TIP3   OH238853   4.971   5.155  10.433 -0.9042  0.3469 -0.1007
 5813TIP3    H138854   4.982   5.090  10.363  0.3489  0.3385  0.0654
 5813TIP3    H238855   5.061   5.172  10.463 -1.3537  0.9661  0.9422
 5814TIP3   OH238856   5.208   1.227  14.962 -0.0720 -0.1174  0.0843
 5814TIP3    H138857   5.185   1.138  14.988 -2.4542 -0.4039 -2.4678
 5814TIP3    H238858   5.123   1.271  14.951  0.9866  1.8867 -0.5008
 5815TIP3   OH238859   6.696   6.774   3.003  0.1509 -0.2890  0.2175
 5815TIP3    H138860   6.732   6.836   2.940  1.7140  0.3564  1.6868
 5815TIP3    H238861   6.720   6.808   3.088 -0.9230 -1.7458  1.1671
 5816TIP3   OH238862   5.562   0.989   1.394  0.4707  0.1427  0.0891
 5816TIP3    H138863   5.649   0.974   1.358  0.8620  0.0703  1.0281
 5816TIP3    H238864   5.545   1.081   1.377  0.4179 -0.0158 -0.7470
 5817TIP3   OH238865   5.716   2.595   4.298 -0.4015  0.2387 -0.0476
 5817TIP3    H138866   5.683   2.528   4.238  0.5146  0.2757 -0.6165
 5817TIP3    H238867   5.707   2.556   4.385 -0.4961 -0.3573 -0.3195
 5818TIP3   OH238868   1.398   2.041   2.181 -0.3088  0.0237  0.8234
 5818TIP3    H138869   1.361   1.954   2.167 -0.6529  0.2919  0.0352
 5818TIP3    H238870   1.476   2.025   2.233  0.1123 -0.8485 -0.0496
 5819TIP3   OH238871   0.782   2.031   0.851  0.2599 -0.1744  0.3887
 5819TIP3    H138872   0.804   1.937   0.846  1.9694  0.1709  0.6404
 5819TIP3    H238873   0.738   2.041   0.935 -0.2873 -0.8114  0.1882
 5820TIP3   OH238874   3.876   0.077  12.493  0.1243  0.1515  0.0719
 5820TIP3    H138875   3.958   0.104  12.451 -0.4531 -0.3537 -1.4430
 5820TIP3    H238876   3.833   0.159  12.516  0.8209  0.4271  0.4054
 5821TIP3   OH238877   1.807   0.694  13.389  0.3476 -0.1712  0.4201
 5821TIP3    H138878   1.759   0.613  13.407  0.5694 -0.3260  0.3257
 5821TIP3    H238879   1.819   0.694  13.294 -1.7397  1.1651  0.0809
 5822TIP3   OH238880   2.700   2.197   0.450  0.4031  0.5318  0.6052
 5822TIP3    H138881   2.686   2.132   0.382  1.2261  0.8676  0.1058
 5822TIP3    H238882   2.776   2.165   0.499  0.6462  0.9774  0.5215
 5823TIP3   OH238883   0.776   3.419  10.477  0.2834 -0.3691 -0.5605
 5823TIP3    H138884   0.718   3.472  10.531  0.9223  0.3104 -0.5321
 5823TIP3    H238885   0.855   3.472  10.467  1.0003 -1.3811 -0.3941
 5824TIP3   OH238886   3.642   4.698   2.639  0.2504  0.3004 -0.1227
 5824TIP3    H138887   3.558   4.742   2.624 -0.0217 -0.4729 -0.8830
 5824TIP3    H238888   3.627   4.646   2.718  0.1725  0.5522  0.0315
 5825TIP3   OH238889   3.339   0.418   3.327 -0.3707  0.3384 -0.1971
 5825TIP3    H138890   3.342   0.442   3.235 -0.0517 -0.2994 -0.3587
 5825TIP3    H238891   3.420   0.452   3.364  1.1348 -2.2498 -0.8888
 5826TIP3   OH238892   4.579   5.816  16.733 -0.1025 -0.7561  0.2539
 5826TIP3    H138893   4.514   5.746  16.727 -0.5207 -0.2587 -1.7112
 5826TIP3    H238894   4.626   5.813  16.649  0.7310  0.5024  0.6399
 5827TIP3   OH238895   6.793   0.290  10.734 -0.1169  0.1677 -0.5402
 5827TIP3    H138896   6.870   0.246  10.697  0.5531  2.1521 -1.6419
 5827TIP3    H238897   6.719   0.249  10.690  0.5294  0.5673 -2.0565
 5828TIP3   OH238898   3.150   0.403   4.531  0.6518 -0.1755  0.2251
 5828TIP3    H138899   3.178   0.322   4.490  0.5566 -1.5107  2.6237
 5828TIP3    H238900   3.230   0.455   4.540  1.0597 -0.8169  0.3536
 5829TIP3   OH238901   2.749   6.273   1.469  0.0837 -0.3404 -0.4971
 5829TIP3    H138902   2.721   6.275   1.560 -1.0877 -0.6156 -0.8327
 5829TIP3    H238903   2.831   6.322   1.468 -0.9148  1.4448  0.3696
 5830TIP3   OH238904   2.506   5.509  14.610 -0.1530 -0.0040 -0.3301
 5830TIP3    H138905   2.416   5.493  14.636  0.3520 -0.0138  1.5367
 5830TIP3    H238906   2.523   5.600  14.635  0.6462 -0.3059  0.2956
 5831TIP3   OH238907   4.834   5.935  12.514  0.7099  0.4638  0.3887
 5831TIP3    H138908   4.873   6.022  12.501 -0.4707  0.7622 -1.5115
 5831TIP3    H238909   4.796   5.913  12.429 -2.5023 -0.1737  1.8265
 5832TIP3   OH238910   6.456   0.788   5.751  0.5897 -0.6346  0.5858
 5832TIP3    H138911   6.457   0.838   5.832  2.0444 -1.6569  1.2333
 5832TIP3    H238912   6.444   0.853   5.682 -0.9386  0.2282  1.6066
 5833TIP3   OH238913   2.589   2.275   1.312  0.2003  0.5570  1.2646
 5833TIP3    H138914   2.666   2.324   1.342 -0.9329  2.5854  1.0446
 5833TIP3    H238915   2.575   2.208   1.379  3.3903 -1.3384  0.2456
 5834TIP3   OH238916   0.095   4.089   2.962  0.5025 -0.2301  0.4154
 5834TIP3    H138917   0.042   4.028   3.013  0.1784  0.6126  1.1218
 5834TIP3    H238918   0.088   4.172   3.010 -0.5536  0.8375 -1.4683
 5835TIP3   OH238919   0.061   1.128  15.807  0.4268  0.8043  0.0858
 5835TIP3    H138920  -0.020   1.163  15.770  0.2502  0.9675  0.6040
 5835TIP3    H238921   0.056   1.033  15.791  1.0461  1.0187 -1.5795
 5836TIP3   OH238922   1.416   4.645   1.866  0.3287  0.0233  0.1227
 5836TIP3    H138923   1.494   4.594   1.843 -0.8967 -2.2238  0.7116
 5836TIP3    H238924   1.386   4.682   1.784  2.0489  1.0329 -0.1020
 5837TIP3   OH238925   4.745   1.659   0.783  0.4001 -0.4232 -0.1034
 5837TIP3    H138926   4.829   1.697   0.809 -0.5888  1.4567  0.4470
 5837TIP3    H238927   4.725   1.596   0.852  1.6725 -1.4644 -0.6256
 5838TIP3   OH238928   6.510   4.514   0.085 -0.5125 -0.1382 -0.1891
 5838TIP3    H138929   6.426   4.552   0.057  0.6715  1.7900 -1.3782
 5838TIP3    H238930   6.557   4.499   0.003  0.7518 -0.0680  0.5083
 5839TIP3   OH238931   4.916   4.942   2.987 -0.2152  0.3537  0.2921
 5839TIP3    H138932   4.858   4.868   3.007 -1.2227  1.3085  1.0258
 5839TIP3    H238933   4.942   4.928   2.896  0.1065 -1.2195  0.5968
 5840TIP3   OH238934   5.886   1.620   4.734 -0.3189  0.4420 -0.7192
 5840TIP3    H138935   5.932   1.586   4.657 -0.0693 -0.3448 -0.2294
 5840TIP3    H238936   5.938   1.695   4.762 -0.9710  1.3947 -1.9131
 5841TIP3   OH238937   3.733   1.800   5.876 -0.5940 -0.3892 -0.3600
 5841TIP3    H138938   3.724   1.868   5.943  0.4561 -0.2908 -0.3015
 5841TIP3    H238939   3.827   1.784   5.871 -0.4289  0.8057 -2.9816
 5842TIP3   OH238940   6.146   4.673  14.762  0.3879  0.0695  0.3030
 5842TIP3    H138941   6.065   4.715  14.733 -0.2130 -0.8611  0.5822
 5842TIP3    H238942   6.138   4.669  14.857  0.0389 -1.4039  0.2345
 5843TIP3   OH238943   5.687   5.707   3.409 -0.0026  0.0010 -0.0068
 5843TIP3    H138944   5.725   5.748   3.487  0.7708 -1.8501  0.6382
 5843TIP3    H238945   5.603   5.752   3.398  1.0203  2.1212  0.2866
 5844TIP3   OH238946   4.519   6.284   0.102 -0.3813  0.4079 -0.4498
 5844TIP3    H138947   4.568   6.363   0.124 -0.6236  0.5844 -0.5382
 5844TIP3    H238948   4.575   6.238   0.040  1.4342 -1.2915  2.2631
 5845TIP3   OH238949   6.525   1.075   3.864  0.0807 -0.0766  0.6099
 5845TIP3    H138950   6.547   1.041   3.951 -2.9612 -2.7273  0.5634
 5845TIP3    H238951   6.450   1.022   3.836 -0.6399  2.3104 -2.6334
 5846TIP3   OH238952   2.005   2.719  14.991  0.0142 -0.6266 -0.2030
 5846TIP3    H138953   2.079   2.727  14.931  0.4802 -1.9307  0.1824
 5846TIP3    H238954   2.044   2.698  15.075 -0.5778  1.8567  0.7955
 5847TIP3   OH238955   6.091   0.865  15.579  0.0407  0.1397  0.3346
 5847TIP3    H138956   6.041   0.799  15.531 -0.7105  0.4613  0.6608
 5847TIP3    H238957   6.045   0.947  15.560 -2.0428 -0.0402  3.8320
 5848TIP3   OH238958   2.533   6.019  15.546 -0.2456  0.0357  0.7505
 5848TIP3    H138959   2.522   5.995  15.638 -0.1495 -0.6242  0.5927
 5848TIP3    H238960   2.596   6.091  15.548 -1.0741  0.7672  1.2860
 5849TIP3   OH238961   3.953   1.580  15.004  0.1986 -0.1020 -0.2135
 5849TIP3    H138962   4.003   1.642  14.950  0.1823  0.9058  0.9047
 5849TIP3    H238963   3.867   1.577  14.962  0.6087 -0.4202 -1.0639
 5850TIP3   OH238964   2.705   0.087   1.033 -0.3379  0.0387  0.4928
 5850TIP3    H138965   2.770   0.103   0.965  0.2851 -0.9159  0.8468
 5850TIP3    H238966   2.630   0.141   1.008  0.1648  0.2708 -0.5405
 5851TIP3   OH238967   0.453   3.046  16.794 -0.0191 -0.0739 -0.3394
 5851TIP3    H138968   0.541   3.075  16.771  0.1435 -0.8914 -0.7773
 5851TIP3    H238969   0.468   2.970  16.851 -0.4463 -0.1024 -0.2640
 5852TIP3   OH238970   2.092   0.001  16.387 -0.2426 -0.0268  0.4746
 5852TIP3    H138971   2.052   0.038  16.466 -2.3533 -1.3745  0.0980
 5852TIP3    H238972   2.163  -0.054  16.420  1.0245  1.9546  1.1920
 5853TIP3   OH238973   2.375   5.873  12.038 -0.0394 -0.3957 -0.1836
 5853TIP3    H138974   2.283   5.849  12.043 -0.2860 -0.3423 -2.8200
 5853TIP3    H238975   2.375   5.967  12.025  0.4475 -0.2827  0.5625
 5854TIP3   OH238976   2.617   6.076   1.022 -0.6221 -0.2913  0.3605
 5854TIP3    H138977   2.594   6.164   1.051 -2.3072 -0.8705  0.8960
 5854TIP3    H238978   2.696   6.055   1.072 -0.0444  1.0020  0.0273
 5855TIP3   OH238979   6.144   5.154   0.620  0.2959  0.1819 -0.2053
 5855TIP3    H138980   6.183   5.183   0.537  0.0671 -1.3277 -0.8750
 5855TIP3    H238981   6.211   5.174   0.686  0.7161  0.8909 -0.8285
 5856TIP3   OH238982   5.811   4.497  10.342  0.1073  0.2517  0.4844
 5856TIP3    H138983   5.843   4.549  10.416 -0.2364  3.5631 -1.5122
 5856TIP3    H238984   5.721   4.473  10.366  0.2307  0.6690  1.4052
 5857TIP3   OH238985   4.830   5.373   4.433 -0.1503  0.0335 -0.2100
 5857TIP3    H138986   4.735   5.375   4.416 -0.2685  0.6040  0.4768
 5857TIP3    H238987   4.845   5.445   4.493  0.4993 -0.9545  0.8463
 5858TIP3   OH238988   2.142   2.931   2.866  0.2124 -0.6990  0.2207
 5858TIP3    H138989   2.137   2.850   2.815  0.5609  0.4390 -1.6841
 5858TIP3    H238990   2.138   3.001   2.802 -0.6497  0.8468  1.8782
 5859TIP3   OH238991   0.609   0.795  13.275 -0.0482 -0.4902 -0.1502
 5859TIP3    H138992   0.670   0.759  13.339  0.8091 -0.1999 -0.7852
 5859TIP3    H238993   0.547   0.724  13.257 -0.7679 -0.3272  1.5523
 5860TIP3   OH238994   1.959   0.810  16.090 -0.3126  0.5948 -0.3986
 5860TIP3    H138995   1.906   0.737  16.059 -0.5103  1.2407 -1.6715
 5860TIP3    H238996   1.952   0.807  16.185  1.3940 -2.2841 -0.2736
 5861TIP3   OH238997   1.916   4.536   4.245 -0.0995 -0.3948 -1.0441
 5861TIP3    H138998   1.859   4.515   4.320  0.5615 -2.0897 -0.9764
 5861TIP3    H238999   1.996   4.569   4.285 -0.1961 -0.1330 -1.0626
 5862TIP3   OH239000   2.750   3.438   2.526 -0.0564  0.4176  0.3739
 5862TIP3    H139001   2.711   3.423   2.440 -0.5430  0.2024  0.6287
 5862TIP3    H239002   2.734   3.357   2.574  1.7157 -0.1252  0.1206
 5863TIP3   OH239003   4.315   2.345   5.236 -0.3013  0.1136 -0.4387
 5863TIP3    H139004   4.266   2.263   5.242 -0.9519  0.5286  0.0353
 5863TIP3    H239005   4.396   2.328   5.284 -0.3116 -0.3325 -0.5707
 5864TIP3   OH239006   6.797   4.279  15.759 -0.2063 -0.6205 -0.5552
 5864TIP3    H139007   6.856   4.211  15.725  0.6618  0.6774 -1.7449
 5864TIP3    H239008   6.852   4.334  15.814 -0.1503  0.8048 -1.9459
 5865TIP3   OH239009   2.084   1.945   0.175  0.5731 -0.6032  0.5320
 5865TIP3    H139010   2.081   1.924   0.081  0.5837 -0.7006  0.5533
 5865TIP3    H239011   2.169   1.989   0.187 -0.0070  0.6529  0.2420
 5866TIP3   OH239012   3.942   6.288  16.917 -0.2277 -0.0052 -0.2099
 5866TIP3    H139013   3.989   6.206  16.931  2.6886  1.0618 -2.5740
 5866TIP3    H239014   3.984   6.350  16.976  0.5743  0.6916 -1.4719
 5867TIP3   OH239015   6.246   0.035  14.936  0.8201 -0.6321  0.3813
 5867TIP3    H139016   6.335   0.048  14.903  0.1347  1.0448 -1.0052
 5867TIP3    H239017   6.231   0.110  14.993  0.4368 -1.1559  0.9781
 5868TIP3   OH239018   4.023   2.775  13.763 -0.8754  0.2916  0.0934
 5868TIP3    H139019   4.034   2.719  13.686 -1.0021  0.3793  0.0105
 5868TIP3    H239020   4.112   2.786  13.797 -0.2793  2.9520 -1.9403
 5869TIP3   OH239021   5.612   5.790  14.450  0.5053 -0.1786  0.0361
 5869TIP3    H139022   5.549   5.718  14.442  0.5820 -0.4767  1.7289
 5869TIP3    H239023   5.559   5.865  14.479  1.0443 -0.7890  2.8869
 5870TIP3   OH239024   2.700   4.169   2.466  0.6255 -0.3232 -0.4856
 5870TIP3    H139025   2.761   4.195   2.397 -0.7690  0.9059 -1.3157
 5870TIP3    H239026   2.624   4.134   2.419  0.1748 -0.6681  0.4757
 5871TIP3   OH239027   3.723   1.952  13.720  0.6999  0.1852  0.9531
 5871TIP3    H139028   3.684   1.869  13.746 -1.4052  1.2565  1.4304
 5871TIP3    H239029   3.705   2.011  13.793 -0.5671  1.8537 -0.6212
 5872TIP3   OH239030   4.997   1.565   6.660 -0.8051 -0.0613  0.2905
 5872TIP3    H139031   5.078   1.596   6.619 -0.6887 -0.1858  0.4262
 5872TIP3    H239032   4.976   1.483   6.615 -1.2138  0.3033 -0.1945
 5873TIP3   OH239033   6.606   4.035   5.808 -0.0339  0.0195  0.0185
 5873TIP3    H139034   6.611   4.023   5.903  0.2171  2.3469  0.3428
 5873TIP3    H239035   6.579   4.126   5.796 -0.3589 -0.3063 -2.1573
 5874TIP3   OH239036   0.795   3.099  16.552  0.5845 -0.1003  0.1048
 5874TIP3    H139037   0.881   3.105  16.511 -0.0763  0.1738 -1.2661
 5874TIP3    H239038   0.747   3.036  16.499 -0.6401  1.0459 -0.1818
 5875TIP3   OH239039   4.239   5.137   3.551 -0.3470  0.2097  0.3387
 5875TIP3    H139040   4.212   5.049   3.574 -0.0770 -0.1116 -0.5428
 5875TIP3    H239041   4.251   5.182   3.635  1.3808 -1.1400  0.8638
 5876TIP3   OH239042   2.702   4.424  10.909  0.2709 -0.0596  0.4755
 5876TIP3    H139043   2.607   4.424  10.920 -0.2768  0.8108 -3.1303
 5876TIP3    H239044   2.725   4.517  10.901  1.4353 -0.2721  1.1193
 5877TIP3   OH239045   2.616   2.064   1.782  0.1174 -0.1662  0.0197
 5877TIP3    H139046   2.557   2.126   1.825 -0.9065 -1.1062  0.0196
 5877TIP3    H239047   2.659   2.018   1.854  2.3018  1.7484  0.0680
 5878TIP3   OH239048   6.551   3.956  12.352  0.1333 -0.2307  0.8022
 5878TIP3    H139049   6.543   3.969  12.446 -1.7778 -0.2058  0.6760
 5878TIP3    H239050   6.486   3.889  12.332  0.5331 -0.2513 -0.4956
 5879TIP3   OH239051   6.725   0.873  10.439 -0.2293  0.2165  0.3695
 5879TIP3    H139052   6.791   0.883  10.371 -1.7263  1.1286 -1.0174
 5879TIP3    H239053   6.744   0.943  10.501 -1.2248  2.0106 -1.2319
 5880TIP3   OH239054   1.867   0.641  13.115 -0.5932 -0.3048  0.0153
 5880TIP3    H139055   1.867   0.642  13.019 -1.1822  0.4154  0.0154
 5880TIP3    H239056   1.933   0.576  13.138  1.5602  1.4265 -0.8683
 5881TIP3   OH239057   6.128   1.860  11.668  0.0834 -1.0622 -0.2688
 5881TIP3    H139058   6.163   1.916  11.737  0.6440 -1.4783 -0.2113
 5881TIP3    H239059   6.043   1.830  11.701  0.9354 -2.3334  0.8219
 5882TIP3   OH239060   3.693   2.019  16.665  0.1282 -0.3946  0.3890
 5882TIP3    H139061   3.771   1.977  16.629 -0.0508 -1.1768  0.8918
 5882TIP3    H239062   3.628   2.014  16.595  1.3028  2.7704 -1.1213
 5883TIP3   OH239063   6.532   2.342   4.153 -0.0215 -0.2269 -0.2005
 5883TIP3    H139064   6.482   2.315   4.076  0.7164 -1.2065 -0.3688
 5883TIP3    H239065   6.615   2.374   4.117  0.7561 -1.6663  0.1908
 5884TIP3   OH239066   4.078   4.535  13.304  0.4362  0.6380  0.0043
 5884TIP3    H139067   4.088   4.630  13.294 -0.0531  0.7330  0.3717
 5884TIP3    H239068   4.068   4.502  13.215 -0.0144  1.0088 -0.0885
 5885TIP3   OH239069   5.402   5.290   3.326  0.0634  0.0622  0.0015
 5885TIP3    H139070   5.413   5.384   3.311 -0.9563  0.1399 -0.2992
 5885TIP3    H239071   5.389   5.253   3.238  0.8299 -0.4269  0.0748
 5886TIP3   OH239072   4.948   3.888   3.061 -0.6595 -0.3195 -0.4679
 5886TIP3    H139073   5.041   3.897   3.083 -0.3176 -0.5836 -1.7408
 5886TIP3    H239074   4.929   3.965   3.008 -0.9759 -0.6498 -0.8336
 5887TIP3   OH239075   5.159   2.686   1.635 -0.3306  0.2423 -0.2536
 5887TIP3    H139076   5.250   2.696   1.663  0.1328 -1.2513 -1.1166
 5887TIP3    H239077   5.149   2.745   1.561 -0.2430  0.8234  0.1893
 5888TIP3   OH239078   4.191   2.652  13.246  0.0928 -0.0240 -0.3702
 5888TIP3    H139079   4.260   2.715  13.268 -0.7929  1.8884 -2.6223
 5888TIP3    H239080   4.224   2.606  13.169  0.1270 -1.3974  0.4209
 5889TIP3   OH239081   5.969   1.080   1.433 -0.3670 -0.3982 -0.4165
 5889TIP3    H139082   6.058   1.074   1.468 -0.0638 -0.7947 -1.2343
 5889TIP3    H239083   5.973   1.148   1.366 -0.6556 -0.4884 -0.5272
 5890TIP3   OH239084   3.841   1.808   0.410 -0.3074 -0.5758  0.5036
 5890TIP3    H139085   3.934   1.822   0.390 -0.4744 -0.6248 -0.3232
 5890TIP3    H239086   3.794   1.852   0.340 -0.8832 -1.7395  0.1394
 5891TIP3   OH239087   2.693   5.406   2.721 -0.2940 -0.7262  0.1886
 5891TIP3    H139088   2.768   5.465   2.713 -0.7495 -0.2460 -0.6785
 5891TIP3    H239089   2.731   5.322   2.749  0.5214 -0.3918  0.1059
 5892TIP3   OH239090   1.164   0.393  13.534  0.1632  0.1161  0.4527
 5892TIP3    H139091   1.153   0.482  13.500 -2.2637 -0.0394  0.6062
 5892TIP3    H239092   1.084   0.377  13.585  0.7095 -2.0214  0.7484
 5893TIP3   OH239093   3.473   2.378  14.586  0.0988  0.3271  0.9087
 5893TIP3    H139094   3.542   2.316  14.565 -0.5796 -0.2834  0.3994
 5893TIP3    H239095   3.448   2.416  14.501 -2.1756 -1.6226  0.6201
 5894TIP3   OH239096   3.193   5.713   3.172 -0.0654  0.1000 -0.6150
 5894TIP3    H139097   3.103   5.731   3.148 -0.1131  1.1142  0.2679
 5894TIP3    H239098   3.197   5.618   3.182 -0.9976  0.0428 -0.7623
 5895TIP3   OH239099   5.670   3.530   2.395 -0.1591  0.1437  0.7798
 5895TIP3    H139100   5.687   3.463   2.461 -1.9237 -1.6859 -0.5184
 5895TIP3    H239101   5.586   3.568   2.420 -0.4898 -0.0604 -0.0120
 5896TIP3   OH239102   0.633   4.391   4.577 -0.2628  0.0875  0.7176
 5896TIP3    H139103   0.582   4.344   4.643  0.0939  0.3559  1.1840
 5896TIP3    H239104   0.569   4.447   4.533 -0.1914  1.2825  2.0612
 5897TIP3   OH239105   1.230   3.683   5.743  0.6924  0.2565 -0.1337
 5897TIP3    H139106   1.269   3.629   5.812 -0.1455 -0.8154 -0.4661
 5897TIP3    H239107   1.279   3.660   5.664  1.0657  0.8156 -0.0640
 5898TIP3   OH239108   5.550   6.102  16.306  0.1811  0.3913  0.0328
 5898TIP3    H139109   5.644   6.084  16.302  0.1313  0.1254  0.0175
 5898TIP3    H239110   5.509   6.019  16.278 -0.0611  0.4415  0.2384
 5899TIP3   OH239111   5.003   2.061  16.560 -0.1565 -0.3868  0.4682
 5899TIP3    H139112   5.025   2.088  16.471 -2.1476  0.2270  0.1011
 5899TIP3    H239113   5.086   2.036  16.599  0.7456 -0.8025 -1.6016
 5900TIP3   OH239114   1.052   4.630  13.829 -0.1169 -0.7987  0.1784
 5900TIP3    H139115   1.072   4.639  13.923 -1.7923  1.2715  0.4057
 5900TIP3    H239116   0.957   4.636  13.824 -0.0487 -0.7934 -1.6766
 5901TIP3   OH239117   5.401   2.204   0.657  0.3861  0.1422  0.2956
 5901TIP3    H139118   5.393   2.222   0.563  0.3157  0.7240  0.4071
 5901TIP3    H239119   5.450   2.122   0.662  2.4389  1.2540 -0.2213
 5902TIP3   OH239120   5.304   6.147  15.453 -0.0679 -0.0249  0.2601
 5902TIP3    H139121   5.240   6.218  15.443 -0.4617 -0.4385 -0.1740
 5902TIP3    H239122   5.388   6.193  15.459 -0.3771  0.5108  0.6214
 5903TIP3   OH239123   1.579   4.515  11.030 -0.1863 -0.3326  0.1139
 5903TIP3    H139124   1.577   4.610  11.044 -1.0001 -0.2321 -0.5736
 5903TIP3    H239125   1.487   4.492  11.016  0.0519 -1.1614 -0.1001
 5904TIP3   OH239126   6.808   1.387   5.529 -0.2568  0.0705  0.0473
 5904TIP3    H139127   6.783   1.367   5.619 -0.8606 -0.8650 -0.3135
 5904TIP3    H239128   6.743   1.342   5.475  1.9027 -2.1640 -0.9245
 5905TIP3   OH239129   2.600   2.610  11.978 -0.2818  0.3176  0.0193
 5905TIP3    H139130   2.635   2.521  11.985 -1.2155  0.0183  1.4869
 5905TIP3    H239131   2.610   2.646  12.066 -1.9232  0.8507  0.0264
 5906TIP3   OH239132   4.622   2.345  13.912  0.1323  0.0922  0.3038
 5906TIP3    H139133   4.608   2.395  13.992 -1.5534 -0.1583  0.2005
 5906TIP3    H239134   4.660   2.262  13.941  1.6326  0.8347  0.6000
 5907TIP3   OH239135   1.228   3.606  16.460 -0.0354  0.0323 -0.3461
 5907TIP3    H139136   1.239   3.634  16.369  0.2839  0.1967 -0.2584
 5907TIP3    H239137   1.263   3.517  16.462  1.3522  0.5557 -0.0674
 5908TIP3   OH239138   1.920   1.484  12.661 -0.0025  0.1506  0.0740
 5908TIP3    H139139   1.967   1.555  12.704 -0.7577 -0.4617  2.0380
 5908TIP3    H239140   1.955   1.404  12.701 -0.9751 -0.4347 -0.2039
 5909TIP3   OH239141   5.276   3.031  12.187  0.0458 -0.0857 -0.2213
 5909TIP3    H139142   5.306   2.987  12.107  2.1957  0.2633  0.3371
 5909TIP3    H239143   5.198   3.080  12.160 -0.1167 -1.1185 -1.7472
 5910TIP3   OH239144   2.052   2.949   5.552 -0.1164 -0.0293 -0.7835
 5910TIP3    H139145   2.098   3.031   5.571 -0.3506  0.5987 -2.7482
 5910TIP3    H239146   1.962   2.965   5.581 -0.1077  0.3144 -0.9429
 5911TIP3   OH239147   2.294   0.984  13.468 -0.7724  0.4339  0.3079
 5911TIP3    H139148   2.363   0.939  13.516  1.6275  4.0580  0.6789
 5911TIP3    H239149   2.224   0.919  13.458  2.3753 -3.2842  0.4791
 5912TIP3   OH239150   6.641   4.474   2.756 -0.1402 -0.5430 -0.4634
 5912TIP3    H139151   6.639   4.506   2.846 -1.5422 -1.1250 -0.2682
 5912TIP3    H239152   6.691   4.393   2.760 -2.8117 -2.2735  0.4314
 5913TIP3   OH239153   3.096   0.440  11.472 -0.2824  0.3813 -0.2471
 5913TIP3    H139154   3.192   0.447  11.471 -0.3264  1.2981  0.7202
 5913TIP3    H239155   3.080   0.351  11.503  0.2805  0.6944  1.0559
 5914TIP3   OH239156   3.044   4.711  13.346 -0.5085  0.4237  0.0041
 5914TIP3    H139157   3.044   4.688  13.253 -3.6662 -5.6518  1.0446
 5914TIP3    H239158   3.108   4.652  13.385 -1.1181  1.0064  2.0023
 5915TIP3   OH239159   6.719   5.483   1.315 -0.0760 -0.4390  0.1139
 5915TIP3    H139160   6.637   5.434   1.314  0.0766 -0.7109  0.6457
 5915TIP3    H239161   6.709   5.548   1.246 -1.3465  0.5228  1.1625
 5916TIP3   OH239162   6.577   2.732   0.159  0.3970  0.4826 -0.0214
 5916TIP3    H139163   6.579   2.782   0.077 -0.8032 -1.4736 -1.3448
 5916TIP3    H239164   6.535   2.790   0.222 -3.2265  0.4325 -2.1221
 5917TIP3   OH239165   2.236   2.841  13.046  0.2100  0.8969 -0.2807
 5917TIP3    H139166   2.262   2.815  12.958 -0.6731 -0.1230 -0.2570
 5917TIP3    H239167   2.183   2.920  13.032  0.5368  1.0659 -0.6038
 5918TIP3   OH239168   3.925   4.148  10.710  0.0279 -0.2715  0.4887
 5918TIP3    H139169   4.014   4.170  10.737 -0.2830 -1.1927  2.5163
 5918TIP3    H239170   3.933   4.065  10.663  0.7400  1.9646 -3.8413
 5919TIP3   OH239171   5.265   6.389   0.779  0.1173 -0.3278  0.0143
 5919TIP3    H139172   5.228   6.428   0.858  1.1965 -0.1839  0.4734
 5919TIP3    H239173   5.237   6.446   0.708  1.1725  0.9906  0.6085
 5920TIP3   OH239174   0.406   2.162  15.684  0.2105 -0.0038 -0.3434
 5920TIP3    H139175   0.314   2.157  15.712  0.0275 -2.3715 -1.1695
 5920TIP3    H239176   0.445   2.227  15.742 -1.7336  0.2286  0.7848
 5921TIP3   OH239177   1.762   1.195   3.544  0.0969  0.3590 -0.3782
 5921TIP3    H139178   1.813   1.272   3.520  1.8226 -0.8418 -0.7424
 5921TIP3    H239179   1.742   1.152   3.461 -0.2835  0.0528 -0.1334
 5922TIP3   OH239180   6.453   5.786  12.633 -0.2397  0.1377 -0.0533
 5922TIP3    H139181   6.384   5.725  12.658  0.6863 -1.1780 -0.5725
 5922TIP3    H239182   6.475   5.833  12.714 -1.9308  0.8306  0.0501
 5923TIP3   OH239183   4.720   6.229   5.063 -0.2713  0.1328 -0.6451
 5923TIP3    H139184   4.656   6.191   5.123  1.5548 -0.5823  0.9590
 5923TIP3    H239185   4.799   6.241   5.117  1.4634 -0.5411 -2.9010
 5924TIP3   OH239186   0.933   6.109   1.668  0.5402  0.1636 -0.4150
 5924TIP3    H139187   0.864   6.044   1.683  1.1829 -0.3700  0.2991
 5924TIP3    H239188   0.887   6.184   1.629 -0.6699  0.3023  1.1659
 5925TIP3   OH239189   3.042   6.211   0.435  0.2536 -0.3314  0.2734
 5925TIP3    H139190   2.964   6.157   0.423 -0.4007  1.0519 -2.6822
 5925TIP3    H239191   3.106   6.174   0.375  0.9764  0.1391  0.7439
 5926TIP3   OH239192   2.443   1.566   4.528 -0.6551  0.0047 -0.5142
 5926TIP3    H139193   2.420   1.492   4.584 -0.4398  0.0939 -0.3051
 5926TIP3    H239194   2.366   1.623   4.532 -0.6331  0.0225 -0.2849
 5927TIP3   OH239195   4.755   4.223  15.255 -0.7782  0.0228 -0.0047
 5927TIP3    H139196   4.768   4.256  15.344 -1.9399  0.6224 -0.0370
 5927TIP3    H239197   4.836   4.245  15.209 -1.0667  1.8749  0.2741
 5928TIP3   OH239198   4.166   0.321  12.012  0.3634 -0.0384  0.4032
 5928TIP3    H139199   4.174   0.327  12.107 -0.8667 -0.9534  0.5784
 5928TIP3    H239200   4.167   0.413  11.983 -0.3247  0.3025  1.3977
 5929TIP3   OH239201   6.586   4.675   1.189 -0.0759 -0.6897  0.7649
 5929TIP3    H139202   6.589   4.593   1.140  0.5339 -0.9418  1.2202
 5929TIP3    H239203   6.605   4.743   1.124 -1.2213 -0.8351  0.2502
 5930TIP3   OH239204   3.567   6.591   1.577  0.0984 -0.5709 -1.2396
 5930TIP3    H139205   3.578   6.595   1.482  2.1550 -2.1901 -1.1484
 5930TIP3    H239206   3.654   6.566   1.610 -0.2551  1.0092  1.1843
 5931TIP3   OH239207   2.566   0.533  14.558  0.5716 -0.8222 -0.0586
 5931TIP3    H139208   2.576   0.448  14.601  0.3842  0.4107  2.6168
 5931TIP3    H239209   2.477   0.531  14.523  0.0688 -1.2593  1.1729
 5932TIP3   OH239210   1.262   0.272   2.726 -0.2483 -0.3143  0.7486
 5932TIP3    H139211   1.347   0.306   2.755 -1.0102  0.0237  2.7925
 5932TIP3    H239212   1.259   0.183   2.760  0.7280 -1.7265 -2.4889
 5933TIP3   OH239213   1.185   6.288   3.446 -0.1794 -0.2490  0.1599
 5933TIP3    H139214   1.272   6.247   3.446  0.0019  0.1116 -0.5344
 5933TIP3    H239215   1.131   6.230   3.499  0.0483 -1.4452 -0.8446
 5934TIP3   OH239216   2.657   2.763  16.538  0.7133  0.1924  0.0679
 5934TIP3    H139217   2.732   2.817  16.513  0.9334  0.3978  1.1310
 5934TIP3    H239218   2.674   2.740  16.629 -0.4264  0.0943  0.2626
 5935TIP3   OH239219   5.717   0.565   0.641 -0.2120  0.7063 -0.0405
 5935TIP3    H139220   5.685   0.628   0.577  0.0078 -0.0377 -0.8926
 5935TIP3    H239221   5.752   0.618   0.712 -0.6766  1.5352 -0.4263
 5936TIP3   OH239222   4.650   4.084  14.060 -0.2510  0.1187  0.1854
 5936TIP3    H139223   4.571   4.087  14.006 -1.5278  0.2352  1.9394
 5936TIP3    H239224   4.642   4.160  14.118  0.3690 -0.7059  1.4032
 5937TIP3   OH239225   2.430   2.146  15.454 -0.2134 -0.0853 -0.0992
 5937TIP3    H139226   2.482   2.221  15.427 -1.0347 -0.2053 -2.2032
 5937TIP3    H239227   2.348   2.155  15.407 -0.5235 -2.0416 -0.0397
 5938TIP3   OH239228   6.232   3.509  12.441  0.3117  0.2969  0.2508
 5938TIP3    H139229   6.240   3.507  12.346 -1.1585  0.3603  0.1024
 5938TIP3    H239230   6.295   3.576  12.469  0.9331  0.0997 -0.6426
 5939TIP3   OH239231   6.028   4.749   5.665  0.1487  0.1704  0.1788
 5939TIP3    H139232   6.058   4.758   5.756  0.2803  0.4031  0.1138
 5939TIP3    H239233   6.070   4.822   5.619  0.2169 -0.0462 -0.1029
 5940TIP3   OH239234   1.354   6.182   4.360  1.1845  0.1579 -0.6127
 5940TIP3    H139235   1.439   6.226   4.368  0.8961  0.9546 -1.6571
 5940TIP3    H239236   1.322   6.175   4.450  1.4501  1.7050 -0.3623
 5941TIP3   OH239237   3.509   6.104  15.546 -0.0456 -0.7384  0.5271
 5941TIP3    H139238   3.513   6.121  15.640 -0.9005 -1.9869  0.8251
 5941TIP3    H239239   3.590   6.056  15.526 -0.1605 -1.0312  0.7611
 5942TIP3   OH239240   3.471   6.356   5.141  0.1699  0.5444 -0.1416
 5942TIP3    H139241   3.398   6.390   5.194  1.1390  1.8700  0.3986
 5942TIP3    H239242   3.543   6.346   5.204  0.2903 -1.3950 -0.5385
 5943TIP3   OH239243   2.336   5.983  14.170 -0.1687 -0.7726 -0.1592
 5943TIP3    H139244   2.273   5.948  14.108 -3.9728  1.5821  1.9429
 5943TIP3    H239245   2.323   5.930  14.249  0.4404 -0.2468  0.3029
 5944TIP3   OH239246   1.992   4.291   4.406 -0.4290  0.6622  0.4196
 5944TIP3    H139247   2.045   4.217   4.377 -0.3929  0.9669 -0.3115
 5944TIP3    H239248   2.033   4.318   4.489  0.0727  0.3917  0.2684
 5945TIP3   OH239249   2.942   2.401  17.024 -0.1221 -0.2605 -0.5239
 5945TIP3    H139250   2.905   2.320  17.060 -1.7475  0.0901 -1.2714
 5945TIP3    H239251   2.865   2.449  16.992  0.5294  2.4896  1.6357
 5946TIP3   OH239252   0.154   5.159  15.434  0.1466  0.0861  0.2197
 5946TIP3    H139253   0.194   5.072  15.434 -0.0643 -0.1270 -3.0007
 5946TIP3    H239254   0.076   5.149  15.380 -0.2457  2.1391  0.3449
 5947TIP3   OH239255   5.494   0.019   6.119  0.3092  0.0942 -0.6690
 5947TIP3    H139256   5.491  -0.075   6.101 -0.5276 -0.0802  0.2705
 5947TIP3    H239257   5.408   0.052   6.093 -1.2812 -0.3079  3.2766
 5948TIP3   OH239258   5.507   0.768  14.678 -0.3932 -0.5750 -0.4813
 5948TIP3    H139259   5.537   0.810  14.758 -1.3637  0.3132 -0.5520
 5948TIP3    H239260   5.496   0.676  14.701  0.7566 -0.6022 -0.0207
 5949TIP3   OH239261   4.384   6.177   4.577 -0.6483  0.0640 -0.4039
 5949TIP3    H139262   4.328   6.232   4.523 -1.2816 -0.1603  0.0162
 5949TIP3    H239263   4.402   6.229   4.655 -1.1244 -0.2594 -0.0744
 5950TIP3   OH239264   0.133   5.042  14.995 -0.6990  0.3498 -0.3593
 5950TIP3    H139265   0.152   5.092  15.075 -0.0064  0.5421 -0.6352
 5950TIP3    H239266   0.152   5.103  14.924 -1.7186  0.3196 -0.6779
 5951TIP3   OH239267   6.217   4.443  14.601  0.0784  0.0962 -0.4623
 5951TIP3    H139268   6.215   4.534  14.631 -2.4013 -0.2308  0.5692
 5951TIP3    H239269   6.275   4.398  14.663  2.0034  1.0401 -1.4638
 5952TIP3   OH239270   2.585   0.006   6.070  0.3826 -0.0798  0.3578
 5952TIP3    H139271   2.646   0.059   6.121  0.0565  0.6992 -0.0451
 5952TIP3    H239272   2.499   0.028   6.106  0.0750  0.9766 -0.9075
 5953TIP3   OH239273   4.191   5.855  16.864 -0.4110 -0.1640  0.3152
 5953TIP3    H139274   4.112   5.810  16.833  0.1096 -0.4745 -0.5832
 5953TIP3    H239275   4.244   5.786  16.903 -0.1242 -0.1384 -0.0261
 5954TIP3   OH239276   2.684   6.791  14.605 -0.3727  0.4607  0.6425
 5954TIP3    H139277   2.725   6.796  14.518 -0.0765  0.5510  0.7863
 5954TIP3    H239278   2.711   6.706  14.639  2.3751  1.7599  2.0456
 5955TIP3   OH239279   5.705   4.885  15.296 -0.6241 -0.1331  0.0783
 5955TIP3    H139280   5.778   4.916  15.349 -1.4763 -0.4833  1.5366
 5955TIP3    H239281   5.740   4.814  15.244 -0.3107 -1.5759  2.1556
 5956TIP3   OH239282   3.266   0.400   4.983  0.3977  0.0757  0.0181
 5956TIP3    H139283   3.187   0.419   5.033  1.8390 -0.9006  2.9079
 5956TIP3    H239284   3.284   0.308   5.001  1.5984 -0.0334 -1.5104
 5957TIP3   OH239285   1.802   0.736   0.325 -0.3990  0.7180  0.6468
 5957TIP3    H139286   1.780   0.643   0.325  2.5615 -0.0726 -0.4810
 5957TIP3    H239287   1.852   0.749   0.405 -0.1658  1.1739  0.4306
 5958TIP3   OH239288   4.140   4.207  16.076 -0.0260 -0.2915 -0.6648
 5958TIP3    H139289   4.045   4.204  16.071 -0.1816  0.2133  1.0673
 5958TIP3    H239290   4.161   4.301  16.079  0.3237 -0.3848  1.0693
 5959TIP3   OH239291   0.376   4.989   0.284  0.0547 -0.1235  0.0703
 5959TIP3    H139292   0.332   5.072   0.268 -1.9700 -1.1735 -0.0741
 5959TIP3    H239293   0.391   4.953   0.196 -1.2821 -0.9805  0.1674
 5960TIP3   OH239294   4.902   6.061  15.859  0.7339 -0.4045  0.2575
 5960TIP3    H139295   4.896   6.149  15.823  1.4758  0.4316  2.0670
 5960TIP3    H239296   4.840   6.061  15.933 -2.2887 -2.6863 -2.0089
 5961TIP3   OH239297   5.557   2.082  12.714  0.5809  0.8686 -0.0039
 5961TIP3    H139298   5.505   2.028  12.773 -0.0768  1.0189 -0.4310
 5961TIP3    H239299   5.499   2.098  12.639  1.6265  0.1118 -1.0096
 5962TIP3   OH239300   4.881   5.210  12.102 -0.4741  0.0661  0.1240
 5962TIP3    H139301   4.890   5.242  12.013 -3.8200  0.2412 -0.2682
 5962TIP3    H239302   4.889   5.115  12.095 -0.7464  0.0801 -0.3490
 5963TIP3   OH239303   0.959   2.614  16.650  0.0943  0.0586 -0.1253
 5963TIP3    H139304   0.939   2.521  16.635 -1.2982  0.1647  0.8581
 5963TIP3    H239305   0.928   2.631  16.739  0.8942  1.3321 -0.0629
 5964TIP3   OH239306   1.604   0.397  12.235  0.0742  0.6668  0.0328
 5964TIP3    H139307   1.526   0.361  12.277 -1.2849  1.1329 -1.9501
 5964TIP3    H239308   1.576   0.417  12.145  2.6783  0.1505 -0.9876
 5965TIP3   OH239309   5.327   5.290  10.341 -0.0430 -0.1782  0.0844
 5965TIP3    H139310   5.311   5.196  10.330  0.9863 -0.4735  0.9573
 5965TIP3    H239311   5.240   5.329  10.344 -0.5024 -1.1899  0.3758
 5966TIP3   OH239312   1.274   5.398   4.671 -0.1103  0.5741  0.5623
 5966TIP3    H139313   1.232   5.481   4.649 -0.2198  0.2912 -0.3561
 5966TIP3    H239314   1.207   5.349   4.718 -0.3503  0.6693  0.3248
 5967TIP3   OH239315   3.504   0.531   2.214  0.5476  0.2397  0.1366
 5967TIP3    H139316   3.469   0.580   2.288  0.6806  0.4489  0.0645
 5967TIP3    H239317   3.427   0.494   2.171  0.2829  1.6223 -0.6733
 5968TIP3   OH239318   2.229   6.605  15.956  0.3192  0.0297 -0.0109
 5968TIP3    H139319   2.176   6.681  15.932  2.2162  0.6536 -2.6898
 5968TIP3    H239320   2.201   6.536  15.896  0.3162 -0.6737  0.7691
 5969TIP3   OH239321   2.876   5.790  14.969  0.7795 -0.0123  0.0132
 5969TIP3    H139322   2.796   5.840  14.984 -1.1785 -3.1609  0.9788
 5969TIP3    H239323   2.885   5.787  14.874  0.6097  1.5224 -0.0832
 5970TIP3   OH239324   3.274   1.951   1.622 -0.1666 -0.0925  0.1082
 5970TIP3    H139325   3.249   1.860   1.642  0.3382 -0.2320  0.1122
 5970TIP3    H239326   3.283   1.953   1.527  1.2513 -0.4289  0.2129
 5971TIP3   OH239327   2.442   5.669   4.211  0.5907 -0.1233 -0.4280
 5971TIP3    H139328   2.494   5.743   4.179  0.6427  0.2586  0.5075
 5971TIP3    H239329   2.452   5.672   4.306 -0.7407 -0.3401 -0.2596
 5972TIP3   OH239330   3.748   1.547   5.748  0.1262 -0.1153 -0.7401
 5972TIP3    H139331   3.708   1.533   5.834  1.7478 -0.8415 -0.0604
 5972TIP3    H239332   3.738   1.641   5.733 -1.1432 -0.1511 -0.2697
 5973TIP3   OH239333   6.372   3.292  11.485  0.1870 -0.2842 -0.1595
 5973TIP3    H139334   6.319   3.339  11.550  0.4587 -2.9603  2.2062
 5973TIP3    H239335   6.447   3.348  11.471 -1.7079  2.1624 -1.2165
 5974TIP3   OH239336   4.067   1.016   3.435 -0.3241 -0.0191  0.2065
 5974TIP3    H139337   4.083   1.109   3.415 -1.6920  0.5132  1.3910
 5974TIP3    H239338   3.999   0.990   3.372 -0.0215 -0.1987 -0.0500
 5975TIP3   OH239339   0.165   2.572   2.287  0.1420  0.2748 -0.2778
 5975TIP3    H139340   0.098   2.546   2.223 -1.2261 -0.6353  1.4234
 5975TIP3    H239341   0.246   2.532   2.255 -0.7454 -1.1882 -0.8221
 5976TIP3   OH239342   5.545   5.188   3.562 -0.8127  0.5083  0.0985
 5976TIP3    H139343   5.492   5.147   3.630 -1.7981  1.9674  0.2596
 5976TIP3    H239344   5.484   5.209   3.492  0.0883 -0.4289 -1.0203
 5977TIP3   OH239345   4.774   4.843  10.840  0.0858 -0.2783  0.1891
 5977TIP3    H139346   4.826   4.922  10.854 -0.6471 -0.1639  2.7289
 5977TIP3    H239347   4.745   4.850  10.749  1.8980  1.1899 -0.3579
 5978TIP3   OH239348   2.234   1.316   1.229 -0.1484 -0.4102 -0.5052
 5978TIP3    H139349   2.278   1.282   1.307 -0.8114 -0.8285 -0.3049
 5978TIP3    H239350   2.305   1.337   1.168  0.3534 -0.4552  0.0623
 5979TIP3   OH239351   3.814   0.788  10.596  0.1823  0.0106 -0.0800
 5979TIP3    H139352   3.828   0.831  10.511  1.3888 -1.9193 -0.9416
 5979TIP3    H239353   3.743   0.837  10.636  1.9973  3.3126 -0.5537
 5980TIP3   OH239354   2.535   6.019  10.955 -0.5053  0.1329 -0.6109
 5980TIP3    H139355   2.613   6.049  11.000 -0.6638 -0.5464  0.1346
 5980TIP3    H239356   2.566   5.949  10.897 -0.4026  0.5703 -1.0876
 5981TIP3   OH239357   6.655   1.249  14.768 -0.6348  0.2819 -0.3644
 5981TIP3    H139358   6.581   1.309  14.778 -0.8027 -0.1529  1.3888
 5981TIP3    H239359   6.630   1.173  14.821  1.2829  0.3366  0.6831
 5982TIP3   OH239360   5.074   3.078  12.504 -0.1690 -0.5383 -0.8066
 5982TIP3    H139361   5.108   3.165  12.484  0.1994 -0.7058 -0.9281
 5982TIP3    H239362   5.152   3.026  12.525 -0.2541 -1.1265 -1.8471
 5983TIP3   OH239363   5.292   6.142   0.605 -0.0919  0.1756  0.5725
 5983TIP3    H139364   5.375   6.129   0.560 -0.0821 -3.2651  1.2925
 5983TIP3    H239365   5.306   6.217   0.663  2.5739 -0.4502  0.8251
 5984TIP3   OH239366   4.843   3.660  14.267  0.2018  0.0217 -0.4524
 5984TIP3    H139367   4.824   3.700  14.182 -0.7701  1.4230  0.3989
 5984TIP3    H239368   4.790   3.708  14.330  0.9588 -0.9332  0.9891
 5985TIP3   OH239369   0.045   2.353  13.380  0.1359 -0.3887  0.2863
 5985TIP3    H139370  -0.050   2.347  13.384 -0.0713  0.9691 -1.2520
 5985TIP3    H239371   0.064   2.372  13.288  1.7429  1.1063  0.8596
 5986TIP3   OH239372   0.074   3.712  16.657 -0.5540  0.3268 -0.0445
 5986TIP3    H139373   0.038   3.751  16.578 -2.1134  0.8582  0.8804
 5986TIP3    H239374   0.025   3.753  16.728  0.4463 -0.5163  1.1723
 5987TIP3   OH239375   2.137   0.201   4.496 -0.5790 -0.1372  0.2238
 5987TIP3    H139376   2.208   0.143   4.520 -0.1752  0.5338  0.6705
 5987TIP3    H239377   2.179   0.272   4.447 -0.9574  0.1750  0.3432
 5988TIP3   OH239378   4.467   2.012   4.937 -0.2826 -0.5098  0.1247
 5988TIP3    H139379   4.428   2.098   4.949 -0.5277 -0.3910 -1.3618
 5988TIP3    H239380   4.561   2.027   4.946 -0.3201 -0.0786 -0.1861
 5989TIP3   OH239381   2.152   3.584  16.518 -0.0116  0.3130  0.0590
 5989TIP3    H139382   2.068   3.552  16.485  0.3753  0.1320 -0.7664
 5989TIP3    H239383   2.137   3.677  16.535 -0.6621  0.0711  0.8874
 5990TIP3   OH239384   3.510   5.608   1.056 -0.0125  0.2530 -0.3757
 5990TIP3    H139385   3.424   5.596   1.017 -1.3174  0.1330  2.2794
 5990TIP3    H239386   3.552   5.675   1.003 -2.4866  1.6361 -0.7230
 5991TIP3   OH239387   1.326   5.815  13.705  0.4106 -0.0269 -0.2644
 5991TIP3    H139388   1.297   5.906  13.703  0.4745 -0.0129 -0.8244
 5991TIP3    H239389   1.329   5.792  13.798 -0.6107  0.2158 -0.1676
 5992TIP3   OH239390   0.879   1.541  14.295  0.0846  0.1949  0.5107
 5992TIP3    H139391   0.936   1.492  14.235  0.9061  2.0666 -0.3219
 5992TIP3    H239392   0.842   1.475  14.352  0.8335 -1.4356 -0.8075
 5993TIP3   OH239393   0.827   0.228  14.984 -0.2086  0.0432 -0.0868
 5993TIP3    H139394   0.906   0.202  14.936 -1.4232 -0.4047 -1.9395
 5993TIP3    H239395   0.856   0.233  15.075  2.3279  1.4113 -0.8669
 5994TIP3   OH239396   5.411   1.695  13.014 -0.5713 -0.3832  0.2082
 5994TIP3    H139397   5.371   1.634  13.076 -1.2573  0.1620  0.3131
 5994TIP3    H239398   5.492   1.652  12.987 -1.3146 -1.6174 -0.1570
 5995TIP3   OH239399   3.952   4.750   3.928 -0.2483 -0.0470 -0.0656
 5995TIP3    H139400   4.029   4.695   3.943 -0.3786 -0.0160  0.7655
 5995TIP3    H239401   3.898   4.699   3.867 -0.2578 -0.7439  0.5060
 5996TIP3   OH239402   5.079   1.259   5.642 -0.2252  0.1405 -0.3667
 5996TIP3    H139403   5.165   1.238   5.604  0.1485  0.9297  0.0091
 5996TIP3    H239404   5.064   1.190   5.707  0.2494  0.1275 -0.2612
 5997TIP3   OH239405   3.380   2.458  12.418 -0.0233  0.4307  0.2167
 5997TIP3    H139406   3.323   2.382  12.413 -0.3971  0.7060  0.2441
 5997TIP3    H239407   3.447   2.434  12.482 -0.6102  0.4323  0.8370
 5998TIP3   OH239408   5.716   4.730  12.551  0.0923 -0.4614  0.3430
 5998TIP3    H139409   5.795   4.709  12.501 -0.4846  1.6141 -1.6033
 5998TIP3    H239410   5.748   4.746  12.640  1.5251 -1.7805  0.1112
 5999TIP3   OH239411   4.347   4.934   0.827 -0.2048  0.1907 -0.4566
 5999TIP3    H139412   4.279   4.951   0.762 -1.1283 -0.5167  0.2986
 5999TIP3    H239413   4.410   4.878   0.782 -1.2408 -0.9454 -0.5106
 6000TIP3   OH239414   0.556   5.960  16.841 -0.3498 -0.4167 -0.2669
 6000TIP3    H139415   0.651   5.945  16.841 -0.0164  1.4220  0.6303
 6000TIP3    H239416   0.518   5.872  16.842  1.3354 -1.1864 -0.6927
 6001TIP3   OH239417   4.650   5.605  15.901 -0.6824 -0.8592  0.0144
 6001TIP3    H139418   4.665   5.602  15.806 -0.3497 -1.1088  0.0740
 6001TIP3    H239419   4.733   5.579  15.940 -0.8679 -0.9287  0.3736
 6002TIP3   OH239420   5.957   0.098  15.267  0.1973 -0.2574 -0.1473
 6002TIP3    H139421   5.967   0.004  15.257  0.4615 -0.0841 -2.0125
 6002TIP3    H239422   6.044   0.133  15.245 -0.0612  0.4528 -0.0651
 6003TIP3   OH239423   2.439   1.591   3.985 -0.3990  0.2223  0.2605
 6003TIP3    H139424   2.452   1.686   3.990  1.2030  0.0209  0.5908
 6003TIP3    H239425   2.528   1.556   3.975 -0.5663 -1.4315  3.3668
 6004TIP3   OH239426   1.979   5.655  13.081  0.1313  0.4806 -0.2224
 6004TIP3    H139427   2.068   5.689  13.093 -0.5608  2.5284 -0.4298
 6004TIP3    H239428   1.945   5.704  13.007 -0.9348 -0.8149 -0.6219
 6005TIP3   OH239429   5.043   4.492  10.273  0.1058 -0.2126 -0.8002
 6005TIP3    H139430   5.119   4.524  10.223 -0.3493  0.3081 -1.1830
 6005TIP3    H239431   5.057   4.398  10.280  0.8377 -0.1115 -0.7793
 6006TIP3   OH239432   2.410   0.566  15.002  0.1298 -0.0401  0.8121
 6006TIP3    H139433   2.445   0.629  14.940  1.2783  0.1669  1.6417
 6006TIP3    H239434   2.435   0.480  14.967  1.5186  0.1064  1.4007
 6007TIP3   OH239435   5.592   1.615  12.587  0.7918 -0.3623  0.8194
 6007TIP3    H139436   5.601   1.603  12.681  0.5090  1.3222  1.0817
 6007TIP3    H239437   5.646   1.691  12.566 -1.0636  0.8310  0.0572
 6008TIP3   OH239438   6.572   3.691  14.849 -0.0864 -0.1395 -0.2472
 6008TIP3    H139439   6.511   3.632  14.893  0.4067  0.4102  1.2564
 6008TIP3    H239440   6.539   3.779  14.869  1.3227  0.1826  0.8664
 6009TIP3   OH239441   6.164   4.777   4.992  0.0999 -0.3648  0.1792
 6009TIP3    H139442   6.161   4.865   4.954 -3.1275 -0.9040 -1.0743
 6009TIP3    H239443   6.136   4.719   4.922 -0.4083 -2.0908  1.7248
 6010TIP3   OH239444   1.044   6.235  13.181  0.2576 -0.4582 -0.4698
 6010TIP3    H139445   1.061   6.302  13.247 -0.3891  1.4595 -2.1444
 6010TIP3    H239446   0.950   6.220  13.185  0.3158 -0.8509 -0.4953
 6011TIP3   OH239447   5.215   5.198  16.396  0.3392 -0.7096  0.4407
 6011TIP3    H139448   5.148   5.192  16.463  0.5829 -0.1199  0.7497
 6011TIP3    H239449   5.297   5.183  16.443  0.7079  1.6968  0.7053
 6012TIP3   OH239450   1.168   4.563   3.125  0.0155  0.2702  0.3363
 6012TIP3    H139451   1.215   4.482   3.108  1.3957  1.0731  0.2389
 6012TIP3    H239452   1.222   4.609   3.190 -1.4019  0.5466  1.3732
 6013TIP3   OH239453   4.421   3.969   3.441  0.3773  0.3073  0.5039
 6013TIP3    H139454   4.360   3.982   3.514 -1.2359 -1.8990 -0.3588
 6013TIP3    H239455   4.508   3.975   3.482 -0.4706 -1.6614  2.8164
 6014TIP3   OH239456   6.400   0.283  12.598 -0.5687 -0.2667  0.5299
 6014TIP3    H139457   6.398   0.279  12.502  1.1515 -1.7589  0.5074
 6014TIP3    H239458   6.454   0.360  12.618 -0.1910 -0.4607  0.2723
 6015TIP3   OH239459   2.733   0.373  16.151  0.1941  0.0946  0.3061
 6015TIP3    H139460   2.693   0.324  16.223 -1.1163  0.0262 -0.4434
 6015TIP3    H239461   2.722   0.317  16.074 -0.4902  1.1393 -0.3848
 6016TIP3   OH239462   4.206   1.029   4.302 -0.1043 -0.2164 -0.3151
 6016TIP3    H139463   4.255   1.111   4.305  0.1966 -0.3223 -1.7418
 6016TIP3    H239464   4.206   1.004   4.210 -0.6071 -1.5776  0.0270
 6017TIP3   OH239465   6.445   1.139  14.491 -0.0756 -0.7272  0.3006
 6017TIP3    H139466   6.533   1.172  14.475 -0.2162 -0.2093  0.5597
 6017TIP3    H239467   6.387   1.212  14.467 -0.4459 -1.1548 -0.1243
 6018TIP3   OH239468   3.343   2.610  11.877  0.2251  0.4945  0.4616
 6018TIP3    H139469   3.424   2.606  11.929  0.8136 -0.8456 -0.5039
 6018TIP3    H239470   3.367   2.663  11.800  0.1121  0.3018  0.2952
 6019TIP3   OH239471   3.835   1.448  12.399  0.0456 -0.0931 -0.0446
 6019TIP3    H139472   3.836   1.450  12.303  0.7042  0.9257 -0.0299
 6019TIP3    H239473   3.878   1.366  12.421  1.5631  0.5055 -0.6293
 6020TIP3   OH239474   1.512   6.085  11.401  0.3181 -0.2604  0.1586
 6020TIP3    H139475   1.545   6.094  11.311 -4.5866  1.3106 -1.8339
 6020TIP3    H239476   1.494   6.175  11.428 -3.9580 -0.8672  0.0356
 6021TIP3   OH239477   6.637   0.117  14.403 -0.0279  0.3490 -0.1975
 6021TIP3    H139478   6.602   0.028  14.413 -0.6763  0.6602  0.4638
 6021TIP3    H239479   6.632   0.154  14.491 -0.0593  1.1424 -0.5244
 6022TIP3   OH239480   3.900   5.189  14.298  0.4219  0.3232  0.2069
 6022TIP3    H139481   3.853   5.117  14.256 -0.0617  1.3062 -0.9554
 6022TIP3    H239482   3.834   5.236  14.348  0.0737  1.7515 -1.4915
 6023TIP3   OH239483   1.127   4.665  12.612 -0.1192  0.0604  0.3623
 6023TIP3    H139484   1.090   4.583  12.647 -2.2081  1.4567  1.6190
 6023TIP3    H239485   1.090   4.673  12.525 -0.3785 -0.0401  0.4633
 6024TIP3   OH239486   5.167   1.053   3.004 -0.3157  0.5600 -0.3190
 6024TIP3    H139487   5.260   1.052   3.026 -0.0846 -1.0549 -1.1992
 6024TIP3    H239488   5.153   1.138   2.962  0.4786  1.3069  0.8753
 6025TIP3   OH239489   2.259   0.867  13.849 -0.1120  0.5131 -0.1148
 6025TIP3    H139490   2.245   0.896  13.759 -1.6455  0.7950  0.1996
 6025TIP3    H239491   2.253   0.947  13.902 -1.1642  0.0949  0.4267
 6026TIP3   OH239492   0.573   0.998   2.105 -0.1427 -0.5047  0.2017
 6026TIP3    H139493   0.584   0.980   2.012  0.9359 -2.7927  0.6913
 6026TIP3    H239494   0.633   1.070   2.123 -0.5475  0.1338 -0.8953
 6027TIP3   OH239495   0.357   0.316  16.589 -0.1276  0.5727  0.7147
 6027TIP3    H139496   0.268   0.340  16.564  1.4444  2.8596 -3.9390
 6027TIP3    H239497   0.359   0.221  16.586 -2.9805  0.2048  4.1997
 6028TIP3   OH239498   3.108   0.571  15.309 -0.2262  0.5482 -0.4565
 6028TIP3    H139499   3.140   0.586  15.397 -1.5404  0.9058 -0.0183
 6028TIP3    H239500   3.178   0.522  15.266  0.1664 -0.1832  0.9674
 6029TIP3   OH239501   2.862   0.891   5.045  0.4036  0.3683 -0.3122
 6029TIP3    H139502   2.845   0.964   5.105  0.7067  1.8553 -1.9314
 6029TIP3    H239503   2.918   0.831   5.094  0.6950  1.5608  0.8649
 6030TIP3   OH239504   3.775   2.979  13.785  0.4993  0.1581  0.2645
 6030TIP3    H139505   3.794   2.895  13.826  1.6500  0.4813  0.4378
 6030TIP3    H239506   3.845   2.991  13.720 -0.9555 -0.0767 -1.4221
 6031TIP3   OH239507   3.392   0.727   0.360 -0.1363 -1.1610 -0.2336
 6031TIP3    H139508   3.420   0.658   0.420  0.3804 -1.0566 -0.3509
 6031TIP3    H239509   3.473   0.758   0.320 -0.3449 -0.3194 -0.0127
 6032TIP3   OH239510   4.292   6.134   0.081 -0.1489 -0.0058  0.2114
 6032TIP3    H139511   4.380   6.169   0.091 -0.4129  0.8014 -0.2461
 6032TIP3    H239512   4.299   6.043   0.112  0.8320  0.0546  0.1960
 6033TIP3   OH239513   4.577   3.044   2.947  0.0821 -0.2773  0.3278
 6033TIP3    H139514   4.496   3.000   2.975  0.0312 -1.1940 -1.1599
 6033TIP3    H239515   4.564   3.061   2.854  2.0367 -1.5076 -0.2296
 6034TIP3   OH239516   3.529   0.965  15.673  0.1530  0.0749 -0.0481
 6034TIP3    H139517   3.603   0.964  15.612  1.6078 -0.4476  1.6454
 6034TIP3    H239518   3.462   1.017  15.629  0.1170 -2.3038 -3.2172
 6035TIP3   OH239519   4.370   1.319  10.638  0.1292  0.3887 -0.1105
 6035TIP3    H139520   4.341   1.403  10.674 -3.1418 -0.0809 -1.2591
 6035TIP3    H239521   4.307   1.256  10.673  0.7090 -1.0863 -1.6009
 6036TIP3   OH239522   5.468   5.544  14.534  0.3551 -0.6251  1.3523
 6036TIP3    H139523   5.406   5.538  14.462  0.7817  0.8469  0.8392
 6036TIP3    H239524   5.520   5.464  14.528  0.3849 -0.5161  0.0307
 6037TIP3   OH239525   3.433   3.758  13.281 -0.3791 -0.3004 -0.5948
 6037TIP3    H139526   3.367   3.827  13.275  1.2317  1.2784 -1.3520
 6037TIP3    H239527   3.429   3.712  13.197 -0.6270 -0.3204 -0.5719
 6038TIP3   OH239528   0.560   0.479  16.034  0.0132  0.1829  0.2474
 6038TIP3    H139529   0.484   0.436  15.996 -1.1672  3.2812 -1.2777
 6038TIP3    H239530   0.635   0.434  15.994 -1.0213 -1.5809  0.1780
 6039TIP3   OH239531   6.036   6.709  12.886 -0.5127  0.0621  0.5922
 6039TIP3    H139532   6.040   6.768  12.811  0.3779 -1.9451 -1.0614
 6039TIP3    H239533   6.126   6.708  12.920 -0.4830 -0.3996  0.5151
 6040TIP3   OH239534   0.406   2.665   1.600  0.3028 -0.7847 -0.4211
 6040TIP3    H139535   0.458   2.678   1.679 -0.2925  0.7791 -0.2676
 6040TIP3    H239536   0.414   2.747   1.552 -1.7283 -0.6108 -0.5419
 6041TIP3   OH239537   0.801   1.445  12.224  0.2336 -0.2445 -0.6513
 6041TIP3    H139538   0.736   1.453  12.295 -0.5108 -0.2347 -1.3230
 6041TIP3    H239539   0.776   1.365  12.178  0.6009 -0.1496 -1.0188
 6042TIP3   OH239540   3.468   4.642  16.560  0.0115 -0.3060  0.1439
 6042TIP3    H139541   3.467   4.607  16.471 -2.6951 -1.7110  0.6165
 6042TIP3    H239542   3.378   4.666  16.578  0.1127 -1.6841  3.0703
 6043TIP3   OH239543   0.571   4.240  14.745  0.0911 -0.0391 -0.1465
 6043TIP3    H139544   0.570   4.208  14.654  1.4029  1.0971 -0.5992
 6043TIP3    H239545   0.539   4.166  14.797 -0.1269 -0.9134 -1.4778
 6044TIP3   OH239546   4.013   5.395   3.815 -1.0290  0.2869  0.5455
 6044TIP3    H139547   4.033   5.488   3.827 -1.7459  0.6185 -0.5979
 6044TIP3    H239548   4.065   5.350   3.881 -0.6883  1.5059  1.1345
 6045TIP3   OH239549   1.971   2.902  16.894  0.7293 -0.1827  0.0715
 6045TIP3    H139550   2.002   2.993  16.896 -0.1982  0.1490 -0.0376
 6045TIP3    H239551   1.930   2.893  16.808 -1.9681  0.2885  1.1977
 6046TIP3   OH239552   2.498   6.566   4.739 -0.1441  0.0086  0.5425
 6046TIP3    H139553   2.514   6.625   4.813 -0.1119  1.1300 -0.3413
 6046TIP3    H239554   2.410   6.532   4.754  0.2882 -0.6714  1.6849
 6047TIP3   OH239555   2.719   5.182  15.607  0.3189  0.7726  0.3477
 6047TIP3    H139556   2.625   5.190  15.590  0.1389  0.5066  1.1482
 6047TIP3    H239557   2.760   5.242  15.545 -0.4497  1.6357  0.6516
 6048TIP3   OH239558   2.168   1.128  17.016 -0.2558 -0.0689 -0.7007
 6048TIP3    H139559   2.180   1.190  16.944  0.6747  0.3793 -0.1932
 6048TIP3    H239560   2.095   1.073  16.989 -0.2043  0.3639 -1.7901
 6049TIP3   OH239561   4.655   2.546   3.861  0.9450 -0.6364  0.6691
 6049TIP3    H139562   4.645   2.475   3.925  0.0212 -2.3963 -1.3065
 6049TIP3    H239563   4.738   2.526   3.816  0.6425 -0.5158  0.0525
 6050TIP3   OH239564   3.428   6.377  11.645 -0.3490 -0.0557 -0.6086
 6050TIP3    H139565   3.489   6.359  11.574  0.4450 -0.8299  0.2478
 6050TIP3    H239566   3.408   6.291  11.682 -1.7308  0.2077 -0.6659
 6051TIP3   OH239567   3.484   4.907  15.123 -0.1428 -0.3513 -0.3048
 6051TIP3    H139568   3.460   4.858  15.044  2.1793 -1.0418 -0.6737
 6051TIP3    H239569   3.534   4.845  15.176 -0.2679  0.5817  0.9628
 6052TIP3   OH239570   3.296   1.207   3.859 -0.5149 -0.0577 -0.2498
 6052TIP3    H139571   3.388   1.209   3.836 -0.4530 -1.1738 -0.1370
 6052TIP3    H239572   3.277   1.115   3.877 -1.6086  0.1760 -0.1126
 6053TIP3   OH239573   6.611   0.828  16.907 -0.1661 -0.0693 -0.0821
 6053TIP3    H139574   6.622   0.845  16.813  1.9201 -1.0911 -0.0711
 6053TIP3    H239575   6.642   0.908  16.949 -0.0625 -0.0274 -0.2364
 6054TIP3   OH239576   5.253   3.477  14.281  0.0249  0.0764  0.1452
 6054TIP3    H139577   5.212   3.444  14.201 -1.7694  0.5343  0.8210
 6054TIP3    H239578   5.331   3.423  14.292 -0.4411 -0.9286 -1.1514
 6055TIP3   OH239579   0.886   1.663   3.548  0.0671  0.3592 -0.0589
 6055TIP3    H139580   0.913   1.702   3.631 -1.1111  2.2645 -0.5101
 6055TIP3    H239581   0.860   1.574   3.571  0.7152  0.5233  1.4272
 6056TIP3   OH239582   5.974   2.756   4.914 -0.5078  0.1575 -0.1949
 6056TIP3    H139583   5.993   2.830   4.857  1.0055  0.4312  0.6223
 6056TIP3    H239584   6.002   2.679   4.865 -0.0140  0.3199 -0.1681
 6057TIP3   OH239585   3.338   0.154   3.549  0.6552 -0.2185 -0.1670
 6057TIP3    H139586   3.292   0.237   3.562  0.8307  0.0079 -0.9765
 6057TIP3    H239587   3.428   0.180   3.530  1.0899 -0.6507  1.1578
 6058TIP3   OH239588   5.291   0.510  16.587 -0.0144  0.6990  0.2291
 6058TIP3    H139589   5.320   0.542  16.672  0.2661  1.5496 -0.1822
 6058TIP3    H239590   5.359   0.448  16.561  0.7370  1.6287 -0.0889
 6059TIP3   OH239591   0.016   5.019  13.725 -0.2702 -0.1808 -0.3706
 6059TIP3    H139592  -0.016   4.944  13.776  1.4789 -2.0346 -1.8447
 6059TIP3    H239593   0.108   5.027  13.750  0.3701 -0.5190 -2.4438
 6060TIP3   OH239594   0.027   0.643   5.325  0.0523  0.3688  0.1166
 6060TIP3    H139595  -0.027   0.642   5.404  0.5174 -1.3800  0.4640
 6060TIP3    H239596  -0.034   0.631   5.253 -0.1683 -0.4804  0.4261
 6061TIP3   OH239597   1.842   4.627  12.859  0.0608  0.7245 -0.3003
 6061TIP3    H139598   1.889   4.577  12.925  3.1688  2.1482 -1.2327
 6061TIP3    H239599   1.792   4.692  12.909 -1.5415 -1.2069  0.7516
 6062TIP3   OH239600   4.420   6.552  16.314 -0.0189 -0.1036 -0.3053
 6062TIP3    H139601   4.360   6.503  16.370 -0.2974  0.3517 -0.1958
 6062TIP3    H239602   4.388   6.539  16.226  1.6749 -2.6233 -0.6551
 6063TIP3   OH239603   0.083   0.723  12.633  0.5895  0.1474  0.3825
 6063TIP3    H139604   0.059   0.797  12.689  1.3741 -0.3039  1.3566
 6063TIP3    H239605   0.170   0.698  12.664  0.8473 -0.4078 -0.7564
 6064TIP3   OH239606   4.076   3.842   4.144 -0.3601  0.3560 -0.2532
 6064TIP3    H139607   4.073   3.874   4.234 -0.0479 -1.6684  0.5409
 6064TIP3    H239608   4.037   3.755   4.149  1.7800 -0.7693 -1.6091
 6065TIP3   OH239609   2.957   4.797   2.756 -0.4170  0.0122 -0.6243
 6065TIP3    H139610   2.880   4.826   2.806  0.6030  0.5775  0.6654
 6065TIP3    H239611   2.925   4.722   2.706 -1.3809 -0.9323  1.2795
 6066TIP3   OH239612   6.575   0.260  13.191  1.2498  0.1819 -0.0058
 6066TIP3    H139613   6.523   0.313  13.252 -0.7565 -0.6081 -0.9345
 6066TIP3    H239614   6.573   0.172  13.229  0.8895 -0.0906 -0.6429
 6067TIP3   OH239615   0.658   0.065  14.825  0.3833 -0.4447 -0.3823
 6067TIP3    H139616   0.703   0.144  14.855 -1.8295  0.4731  0.7464
 6067TIP3    H239617   0.728  -0.001  14.817  1.9480  0.9534  0.9906
 6068TIP3   OH239618   4.813   4.373  11.766  0.0521  0.1110 -0.4382
 6068TIP3    H139619   4.792   4.280  11.771  0.2437  0.1301  2.9482
 6068TIP3    H239620   4.735   4.417  11.800  0.4822  1.0992 -0.6856
 6069TIP3   OH239621   2.798   2.757   4.142  0.2896 -0.6616 -0.3816
 6069TIP3    H139622   2.831   2.823   4.082  0.1791 -1.3806 -1.2488
 6069TIP3    H239623   2.756   2.691   4.086  1.0583 -1.8568  0.3885
 6070TIP3   OH239624   0.892   1.922   1.131 -0.0795 -0.3005  0.2330
 6070TIP3    H139625   0.906   1.909   1.037 -4.1351  0.5190 -0.7026
 6070TIP3    H239626   0.923   2.012   1.147  0.0037 -0.1897 -0.5060
 6071TIP3   OH239627   1.303   5.834   0.556  0.1497  0.4874  0.3168
 6071TIP3    H139628   1.248   5.909   0.578 -2.3065 -0.6728 -1.3953
 6071TIP3    H239629   1.362   5.866   0.488 -3.1160  0.2901 -2.9386
 6072TIP3   OH239630   2.746   5.826  15.444 -0.0353  0.1557 -0.4753
 6072TIP3    H139631   2.740   5.784  15.359 -0.3802 -0.7897  0.0022
 6072TIP3    H239632   2.656   5.826  15.477  0.4673 -2.4137  1.2355
 6073TIP3   OH239633   0.943   5.657  14.872  0.2824  0.1062  0.8532
 6073TIP3    H139634   0.890   5.722  14.827 -0.6713  0.2715  2.1547
 6073TIP3    H239635   0.937   5.578  14.819 -1.3678  0.0948  1.0277
 6074TIP3   OH239636   5.084   4.955   4.742 -0.2276  0.5804 -0.5132
 6074TIP3    H139637   4.990   4.974   4.750 -0.4146  0.6898 -2.5624
 6074TIP3    H239638   5.125   5.041   4.735  0.3770  0.6935  2.6913
 6075TIP3   OH239639   2.876   6.376   3.403  0.2978  0.1845 -0.1153
 6075TIP3    H139640   2.836   6.325   3.473  1.2238 -0.0951  0.2329
 6075TIP3    H239641   2.803   6.421   3.361 -0.1789  1.4226  1.8756
 6076TIP3   OH239642   4.439   5.445   3.642  0.6795  0.6129 -0.0957
 6076TIP3    H139643   4.420   5.369   3.698  0.8590  1.3506  1.0069
 6076TIP3    H239644   4.430   5.520   3.701 -0.5657  1.5433 -1.4051
 6077TIP3   OH239645   6.084   5.422  15.912 -0.2765 -0.0296 -0.5567
 6077TIP3    H139646   5.997   5.456  15.893 -0.1341  0.5074 -0.2723
 6077TIP3    H239647   6.140   5.500  15.913  0.0484 -0.2663  0.1219
 6078TIP3   OH239648   6.381   4.764  11.658 -0.8360  0.7505 -0.0172
 6078TIP3    H139649   6.301   4.795  11.614 -1.3923  1.4511  1.4346
 6078TIP3    H239650   6.395   4.826  11.729 -0.9606 -1.2759  1.8857
 6079TIP3   OH239651   6.052   1.334   2.842  0.1127 -0.0621 -0.3243
 6079TIP3    H139652   6.008   1.259   2.803  1.5982 -0.9052 -0.4565
 6079TIP3    H239653   5.981   1.395   2.864 -1.0249 -0.9835 -1.2923
 6080TIP3   OH239654   2.692   2.201   4.091  0.1316  0.7035 -0.2092
 6080TIP3    H139655   2.722   2.115   4.120 -2.1313  0.5670  2.1105
 6080TIP3    H239656   2.677   2.250   4.172 -1.6847  2.1394 -1.3370
 6081TIP3   OH239657   0.975   5.711   3.523 -0.0515 -0.6424  0.5838
 6081TIP3    H139658   1.037   5.642   3.496 -0.3410 -1.1108  1.0987
 6081TIP3    H239659   0.917   5.668   3.585 -0.5758 -0.0636  0.5042
 6082TIP3   OH239660   5.119   1.538  14.081  0.0464  0.4866  0.1204
 6082TIP3    H139661   5.106   1.443  14.075  0.3432  0.4243  0.4411
 6082TIP3    H239662   5.203   1.554  14.037 -0.2685  0.6738 -0.4247
 6083TIP3   OH239663   4.351   3.022  12.283  0.0560  0.5057  0.4001
 6083TIP3    H139664   4.288   2.994  12.349 -0.8184 -0.0101 -0.6166
 6083TIP3    H239665   4.407   2.945  12.269 -1.4003 -0.3262 -1.3002
 6084TIP3   OH239666   0.175   2.509  13.562 -0.4848 -0.0719  0.0238
 6084TIP3    H139667   0.140   2.445  13.499 -1.6307  0.0207  0.5517
 6084TIP3    H239668   0.097   2.552  13.598  0.1973  0.3829  0.9774
 6085TIP3   OH239669   2.952   6.571   0.753  0.2432  0.1903  0.1417
 6085TIP3    H139670   2.891   6.569   0.680  1.8167  0.9760 -1.2595
 6085TIP3    H239671   3.004   6.650   0.738  0.3577  0.5938  2.3403
 6086TIP3   OH239672   0.338   0.440   5.095 -0.2249 -0.2848  0.6422
 6086TIP3    H139673   0.343   0.532   5.067  0.0044 -0.1302  1.1707
 6086TIP3    H239674   0.295   0.443   5.180 -2.1017 -0.8706 -0.2212
 6087TIP3   OH239675   0.375   5.456  11.785 -0.3920  0.2584 -0.3361
 6087TIP3    H139676   0.422   5.528  11.827  1.7913 -2.0408  1.4581
 6087TIP3    H239677   0.420   5.445  11.701 -1.2262  1.3871 -0.9654
 6088TIP3   OH239678   3.657   0.121  13.241 -0.2131  0.4280  0.2269
 6088TIP3    H139679   3.704   0.200  13.213  3.9161 -1.6170  0.5903
 6088TIP3    H239680   3.642   0.072  13.161 -2.1538  1.1537  0.0870
 6089TIP3   OH239681   1.299   6.782  14.716 -0.0550 -0.1242  0.0071
 6089TIP3    H139682   1.328   6.801  14.805 -0.4588  0.5635  0.0007
 6089TIP3    H239683   1.346   6.703  14.692  0.1246 -0.2687  0.8009
 6090TIP3   OH239684   6.615   3.539   4.561  0.1420 -0.4861  0.5717
 6090TIP3    H139685   6.667   3.614   4.590  1.9208 -1.7156  0.7091
 6090TIP3    H239686   6.553   3.576   4.498  0.5134  1.1983  1.1353
 6091TIP3   OH239687   4.711   4.864  10.571 -0.0421  0.3011 -0.0400
 6091TIP3    H139688   4.654   4.787  10.569  1.3696 -0.7709 -0.1581
 6091TIP3    H239689   4.679   4.919  10.500 -2.1447  0.6602  1.0984
 6092TIP3   OH239690   4.097   5.306  16.103  0.4080 -0.1868 -0.3526
 6092TIP3    H139691   4.131   5.372  16.163  1.9772 -1.9141  0.8106
 6092TIP3    H239692   4.024   5.348  16.059  0.3635  1.7779  1.4385
 6093TIP3   OH239693   6.177   2.691   0.457  0.3168 -0.6516  0.7111
 6093TIP3    H139694   6.222   2.718   0.537  1.1803 -2.3791  0.8407
 6093TIP3    H239695   6.222   2.611   0.429  0.1388 -0.0212 -1.5971
 6094TIP3   OH239696   0.065   3.570   2.099  0.4979 -0.0688  0.2972
 6094TIP3    H139697   0.040   3.657   2.130  0.0551 -0.4814  1.1394
 6094TIP3    H239698   0.132   3.586   2.034  0.6408  0.8934  0.6648
 6095TIP3   OH239699   1.876   2.473  13.839 -0.0719  0.6891 -0.1045
 6095TIP3    H139700   1.936   2.536  13.878 -0.7372  0.9167  0.5836
 6095TIP3    H239701   1.863   2.505  13.750  1.9519 -0.1878 -0.7598
 6096TIP3   OH239702   3.901   0.045  14.924 -0.0650 -0.3910  0.6795
 6096TIP3    H139703   3.982   0.016  14.967 -0.1955  0.1916  1.3383
 6096TIP3    H239704   3.898   0.139  14.940 -0.2831 -0.2112 -0.3578
 6097TIP3   OH239705   4.471   3.761  15.007 -0.6190  0.1439 -0.3752
 6097TIP3    H139706   4.423   3.747  15.089 -0.2093  0.5126 -0.0632
 6097TIP3    H239707   4.475   3.675  14.966  2.2468 -0.8739  1.6914
 6098TIP3   OH239708   6.249   1.690  12.090 -0.0816  0.0974 -0.4794
 6098TIP3    H139709   6.244   1.629  12.164 -2.0907  2.3957  1.4533
 6098TIP3    H239710   6.334   1.671  12.050  1.1615 -1.2448  2.4584
 6099TIP3   OH239711   0.050   5.798   3.766  0.0957 -0.4162  0.1987
 6099TIP3    H139712   0.108   5.861   3.723  0.4736 -0.3177  0.8434
 6099TIP3    H239713   0.020   5.843   3.844 -1.0621 -0.3774 -0.2545
 6100TIP3   OH239714   4.609   4.180   2.761 -0.6452 -0.2275  0.2248
 6100TIP3    H139715   4.644   4.216   2.842  0.8555  0.2198 -0.5684
 6100TIP3    H239716   4.620   4.251   2.697 -1.6135 -0.6320 -0.4241
 6101TIP3   OH239717   0.694   5.952  16.474  0.0689  0.0099  0.5480
 6101TIP3    H139718   0.776   5.922  16.512  0.6690  0.3732 -0.4233
 6101TIP3    H239719   0.634   5.878  16.484  0.8603 -0.6905  0.2070
 6102TIP3   OH239720   6.368   1.676   3.908  0.0624  0.4985 -0.0454
 6102TIP3    H139721   6.417   1.608   3.953  0.3742  1.0491  0.4663
 6102TIP3    H239722   6.279   1.641   3.900  0.4152 -0.3096 -0.5550
 6103TIP3   OH239723   3.719   2.714   4.181 -0.2437 -0.3143 -0.0895
 6103TIP3    H139724   3.693   2.745   4.268  3.3417  0.5314  0.8673
 6103TIP3    H239725   3.703   2.620   4.183  0.9766 -0.5549  2.0886
 6104TIP3   OH239726   3.537   0.973   5.842 -0.5123  0.0072 -0.0639
 6104TIP3    H139727   3.543   1.050   5.898  0.5382 -0.2137  0.1483
 6104TIP3    H239728   3.521   1.009   5.754 -0.4932  0.4450  0.1081
 6105TIP3   OH239729   1.734   4.988  13.666 -0.3290 -0.0523 -0.9387
 6105TIP3    H139730   1.805   5.036  13.624 -0.4840  1.7338  0.6931
 6105TIP3    H239731   1.656   5.012  13.616 -0.1047 -0.3058 -1.4175
 6106TIP3   OH239732   0.921   2.696   0.775 -0.0650  0.0291  0.1024
 6106TIP3    H139733   0.876   2.755   0.835  2.2646  0.6502  1.3459
 6106TIP3    H239734   0.910   2.609   0.814 -0.5139  0.1079  0.1599
 6107TIP3   OH239735   4.103   4.286  12.858  0.0876 -0.2157  0.5876
 6107TIP3    H139736   4.014   4.279  12.825 -0.2400 -0.1389  1.4451
 6107TIP3    H239737   4.138   4.197  12.850  0.2701 -0.0577 -0.6309
 6108TIP3   OH239738   4.046   2.553   1.014  0.8654 -0.1929  0.4584
 6108TIP3    H139739   4.044   2.482   1.077  2.9053 -0.2407  0.5168
 6108TIP3    H239740   4.131   2.546   0.972 -0.6527 -0.6230 -2.8730
 6109TIP3   OH239741   3.926   1.065  12.012  0.3445  0.7249  0.1176
 6109TIP3    H139742   3.885   1.094  12.094 -1.7007 -0.2665 -0.4926
 6109TIP3    H239743   3.943   0.971  12.026 -2.4993 -0.1242 -1.4431
 6110TIP3   OH239744   5.604   3.899  13.351  0.0131  0.2235 -0.3370
 6110TIP3    H139745   5.595   3.907  13.256  1.5621 -2.7938 -0.8791
 6110TIP3    H239746   5.542   3.830  13.375 -1.1142  1.6560  1.0829
 6111TIP3   OH239747   6.190   3.753  13.864  0.1276 -0.2695  0.4005
 6111TIP3    H139748   6.254   3.817  13.897  0.0595 -0.1843  0.3690
 6111TIP3    H239749   6.191   3.683  13.929  0.0626 -0.1462  0.5363
 6112TIP3   OH239750   2.619   2.562   6.647  0.5173 -0.4154  0.3691
 6112TIP3    H139751   2.614   2.631   6.713  0.4084 -0.4480  0.3950
 6112TIP3    H239752   2.529   2.548   6.620  0.5725 -0.3288  0.1357
 6113TIP3   OH239753   4.551   6.550  13.063  0.0514 -0.0708 -0.0044
 6113TIP3    H139754   4.608   6.599  13.122  1.8083 -0.3440 -1.4032
 6113TIP3    H239755   4.589   6.463  13.058  0.4184  0.1540 -2.0945
 6114TIP3   OH239756   3.492   5.765  13.136 -0.0620 -0.2962 -0.3326
 6114TIP3    H139757   3.584   5.780  13.115  0.0807 -0.0980  0.3887
 6114TIP3    H239758   3.485   5.670  13.146  0.5909 -0.1902  1.7728
 6115TIP3   OH239759   6.074   5.614   4.087  0.2610 -0.1185  0.2408
 6115TIP3    H139760   6.151   5.580   4.041 -0.7697  0.1687 -1.8119
 6115TIP3    H239761   6.035   5.537   4.128  0.3319 -0.6770 -0.7224
 6116TIP3   OH239762   6.616   0.747  14.064  0.2233  0.1016  0.3834
 6116TIP3    H139763   6.638   0.661  14.098  0.9333 -0.0384 -0.4078
 6116TIP3    H239764   6.695   0.799  14.074 -0.3344  0.8077  1.2716
 6117TIP3   OH239765   0.616   4.714   3.410 -0.4964  0.3894 -0.1972
 6117TIP3    H139766   0.671   4.789   3.389  0.5031 -0.5632 -1.1120
 6117TIP3    H239767   0.675   4.653   3.456 -0.8902 -0.4568 -0.7853
 6118TIP3   OH239768   6.812   0.321   2.612  0.0617 -0.3036 -0.2364
 6118TIP3    H139769   6.861   0.385   2.560 -2.2089  0.7781 -1.1775
 6118TIP3    H239770   6.879   0.260   2.644  1.6482 -1.1820 -4.5650
 6119TIP3   OH239771   3.088   6.543  14.817 -0.0421 -0.8619  0.0304
 6119TIP3    H139772   3.083   6.509  14.907 -0.9938 -1.1005 -0.1059
 6119TIP3    H239773   3.131   6.628  14.826  1.8296 -1.7879  0.4559
 6120TIP3   OH239774   2.510   4.747  13.041 -0.4937 -0.7467  0.6704
 6120TIP3    H139775   2.452   4.764  12.966  0.9881 -1.5482 -0.7340
 6120TIP3    H239776   2.545   4.659  13.024  1.2977 -0.1951  1.3235
 6121TIP3   OH239777   6.683   0.249   4.311  0.2133  0.2132 -0.1129
 6121TIP3    H139778   6.766   0.296   4.307 -0.3693  1.2310 -0.9116
 6121TIP3    H239779   6.629   0.291   4.243 -0.5528 -1.1896 -0.4045
 6122TIP3   OH239780   0.286   5.856   4.183  0.3350 -0.2754 -0.0362
 6122TIP3    H139781   0.241   5.771   4.171  0.5223 -0.2144 -1.2944
 6122TIP3    H239782   0.378   5.833   4.193  0.1907 -0.3183  1.2847
 6123TIP3   OH239783   0.461   6.596   2.650 -0.3455 -0.0028  0.7189
 6123TIP3    H139784   0.456   6.627   2.740 -1.1176 -1.1236  1.0806
 6123TIP3    H239785   0.476   6.502   2.658 -0.9439 -0.1981 -0.3161
 6124TIP3   OH239786   6.741   1.977   6.135 -0.0017  0.7252 -0.0620
 6124TIP3    H139787   6.761   1.933   6.218  0.3847  0.7432 -0.1462
 6124TIP3    H239788   6.727   1.906   6.073  0.0981  0.7170 -0.0746
 6125TIP3   OH239789   4.009   4.705   2.540 -0.8896  0.0527  0.5844
 6125TIP3    H139790   4.034   4.747   2.458 -0.4310  0.0401  0.7103
 6125TIP3    H239791   3.931   4.654   2.519 -0.0075 -1.0314 -0.1760
 6126TIP3   OH239792   6.405   0.714  16.109  0.0004  0.3997  0.0832
 6126TIP3    H139793   6.405   0.642  16.172  1.2355 -1.2915 -1.7363
 6126TIP3    H239794   6.477   0.770  16.137 -0.0696  0.1847  0.7150
 6127TIP3   OH239795   2.271   4.076   2.174  0.1854  0.2600 -0.4556
 6127TIP3    H139796   2.298   3.986   2.159 -3.9758 -1.5851  1.4064
 6127TIP3    H239797   2.321   4.105   2.250 -0.7996 -1.8527  1.0866
 6128TIP3   OH239798   5.666   1.671   2.354 -0.5597 -0.5092  0.6096
 6128TIP3    H139799   5.627   1.757   2.341 -0.1970 -0.2540  1.1769
 6128TIP3    H239800   5.757   1.689   2.380 -0.3329 -1.0726  0.2474
 6129TIP3   OH239801   3.665   4.742  11.737 -0.3010  0.4407  0.2349
 6129TIP3    H139802   3.673   4.837  11.743 -0.5599  0.5714 -1.1215
 6129TIP3    H239803   3.748   4.709  11.772  0.5393  1.2411 -0.9232
 6130TIP3   OH239804   0.915   5.857   2.302  0.7201  0.1824  0.0490
 6130TIP3    H139805   0.836   5.877   2.353 -0.1007 -0.8442 -0.7633
 6130TIP3    H239806   0.909   5.763   2.284  1.1586  0.4327 -1.6188
 6131TIP3   OH239807   1.775   6.393  15.507  0.2898  0.0538  0.3576
 6131TIP3    H139808   1.735   6.479  15.522  0.9290  0.1759  1.4781
 6131TIP3    H239809   1.862   6.413  15.471  1.1017 -0.0359  2.1737
 6132TIP3   OH239810   4.078   6.091   2.861  0.4489  0.0239 -0.4752
 6132TIP3    H139811   4.160   6.041   2.859  0.8967  0.6324  1.2756
 6132TIP3    H239812   4.105   6.182   2.862 -0.0987  0.2349  2.5769
 6133TIP3   OH239813   4.585   4.650   0.824 -0.0057  0.3078  0.1719
 6133TIP3    H139814   4.602   4.582   0.890  0.1976  0.4210  0.2371
 6133TIP3    H239815   4.507   4.619   0.778  1.5790 -1.3676 -1.5964
 6134TIP3   OH239816   5.483   6.767   3.595  0.1801 -0.1218 -0.2948
 6134TIP3    H139817   5.395   6.761   3.557 -0.1939  1.1073  0.3344
 6134TIP3    H239818   5.526   6.836   3.545  0.1711  0.5083  0.5550
 6135TIP3   OH239819   1.222   5.460   1.716  0.2413  0.2142  0.5918
 6135TIP3    H139820   1.268   5.528   1.764 -0.8776 -0.2877  2.4842
 6135TIP3    H239821   1.279   5.384   1.721  1.4264  0.9129 -1.4000
 6136TIP3   OH239822   2.159   5.108   5.557 -0.2469 -0.0599  0.3948
 6136TIP3    H139823   2.098   5.043   5.592  0.0256  0.9577  2.9084
 6136TIP3    H239824   2.109   5.153   5.488 -2.0206  0.0806  1.7101
 6137TIP3   OH239825   1.817   5.063  11.890  0.0466 -0.5544 -0.5587
 6137TIP3    H139826   1.899   5.038  11.934 -0.4711  0.2422  0.9062
 6137TIP3    H239827   1.758   5.087  11.961 -0.8579  0.7106 -1.6914
 6138TIP3   OH239828   4.094   4.901  14.746  0.1491 -0.2253  0.3508
 6138TIP3    H139829   4.099   4.805  14.743 -3.7259 -0.6316  1.5553
 6138TIP3    H239830   4.104   4.922  14.839 -1.0655  0.2759  0.3882
 6139TIP3   OH239831   3.012   0.867  15.450 -0.2987 -0.1274  0.3330
 6139TIP3    H139832   3.075   0.889  15.381  0.5147  0.7925  1.3292
 6139TIP3    H239833   2.959   0.798  15.412 -0.2256  0.7123 -1.4252
 6140TIP3   OH239834   1.655   2.086  13.170  0.8981  0.1942 -0.6834
 6140TIP3    H139835   1.645   2.143  13.246  1.0130 -0.1452 -0.4115
 6140TIP3    H239836   1.597   2.012  13.187  1.3321 -0.1468 -0.6675
 6141TIP3   OH239837   0.621   4.296  13.116 -0.2575 -0.1837  0.5990
 6141TIP3    H139838   0.686   4.239  13.074 -0.0027 -0.1894  1.0012
 6141TIP3    H239839   0.650   4.304  13.206 -0.2311  0.6746  0.5214
 6142TIP3   OH239840   3.628   0.147   4.433 -0.4148 -0.1982  0.5322
 6142TIP3    H139841   3.624   0.054   4.455 -0.3356 -0.1580  0.7155
 6142TIP3    H239842   3.552   0.161   4.376 -0.2207 -0.4545  0.2008
 6143TIP3   OH239843   2.549   0.598   2.706 -0.0776 -0.5466 -0.2749
 6143TIP3    H139844   2.510   0.570   2.624  1.6073  1.6169 -1.9485
 6143TIP3    H239845   2.621   0.537   2.721 -0.5274 -1.0790 -0.2558
 6144TIP3   OH239846   1.879   3.906   6.073 -0.2573 -0.0340 -0.1457
 6144TIP3    H139847   1.845   3.916   6.162 -0.9743 -0.1816 -0.3983
 6144TIP3    H239848   1.964   3.862   6.085 -0.1038  0.4159  0.4939
 6145TIP3   OH239849   3.052   3.039  11.350  0.0921 -0.0464 -0.0143
 6145TIP3    H139850   3.087   3.049  11.262  0.6535 -0.7257  0.1195
 6145TIP3    H239851   3.009   3.122  11.369 -0.7465 -0.1931 -1.2301
 6146TIP3   OH239852   5.441   4.817  10.314 -0.0016 -0.1640 -0.5117
 6146TIP3    H139853   5.459   4.900  10.357  1.2614 -0.3008 -0.7634
 6146TIP3    H239854   5.514   4.803  10.254 -0.7576 -0.9185 -1.3006
 6147TIP3   OH239855   0.893   2.346  16.657  0.3848 -0.3385  0.2770
 6147TIP3    H139856   0.867   2.269  16.707  1.8375 -1.1271 -0.1306
 6147TIP3    H239857   0.845   2.338  16.574  0.1717 -0.5555  0.4219
 6148TIP3   OH239858   5.853   2.609  13.299  0.3956 -0.4448  0.0122
 6148TIP3    H139859   5.821   2.695  13.325  2.6390  0.6275 -0.5930
 6148TIP3    H239860   5.938   2.601  13.341  1.4210 -1.1974 -2.0825
 6149TIP3   OH239861   6.176   6.462  13.161 -0.2071  0.8127 -0.3129
 6149TIP3    H139862   6.235   6.387  13.157 -2.4508 -1.0229 -1.6789
 6149TIP3    H239863   6.116   6.441  13.233 -1.4524  0.7502 -1.3309
 6150TIP3   OH239864   0.131   2.935   2.743 -0.3834 -0.6104 -0.2072
 6150TIP3    H139865   0.051   2.895   2.774 -0.3220 -0.5357  0.0546
 6150TIP3    H239866   0.103   3.017   2.703 -0.4673 -0.7230 -0.3774
 6151TIP3   OH239867   3.043   6.171   2.160 -0.1592  0.3840 -0.7991
 6151TIP3    H139868   3.010   6.259   2.141  2.8592  1.5049 -1.4056
 6151TIP3    H239869   3.070   6.137   2.075 -0.3443 -0.7345 -0.4168
 6152TIP3   OH239870   2.118   4.415  13.796 -0.6517  0.8028 -0.0831
 6152TIP3    H139871   2.199   4.416  13.847 -0.4056  0.0626 -0.4496
 6152TIP3    H239872   2.138   4.471  13.720 -0.4266  0.4949 -0.2540
 6153TIP3   OH239873   5.936   1.593  14.696 -0.4207  0.3033 -0.4250
 6153TIP3    H139874   5.952   1.499  14.693 -0.2353  0.3545 -1.2758
 6153TIP3    H239875   5.865   1.607  14.634  0.8815  0.9797 -1.8127
 6154TIP3   OH239876   6.332   5.615   4.365 -0.2893 -0.2827 -0.0253
 6154TIP3    H139877   6.284   5.698   4.362  1.2944  0.8536  2.5619
 6154TIP3    H239878   6.280   5.559   4.422  0.4343  0.2902  1.2431
 6155TIP3   OH239879   0.424   2.593  11.291  0.0523  0.3267 -0.1240
 6155TIP3    H139880   0.478   2.597  11.370  1.1507  0.9935 -0.8849
 6155TIP3    H239881   0.370   2.673  11.295 -1.0941 -0.4573  0.7555
 6156TIP3   OH239882   2.152   0.480   1.411 -0.6762  0.4865  0.1991
 6156TIP3    H139883   2.127   0.550   1.471  0.4208  1.4598 -0.4509
 6156TIP3    H239884   2.208   0.422   1.464 -1.3910  0.2126  0.6679
 6157TIP3   OH239885   4.048   3.488   5.669 -0.4567  0.1578 -0.2465
 6157TIP3    H139886   3.973   3.440   5.633 -0.0812 -1.9808  1.5805
 6157TIP3    H239887   4.059   3.451   5.757  1.3135  2.0723  0.4040
 6158TIP3   OH239888   6.455   6.124   4.682  0.4264  0.1257 -0.0660
 6158TIP3    H139889   6.529   6.075   4.646  0.2203  0.1550 -0.5400
 6158TIP3    H239890   6.380   6.066   4.669 -0.2140  1.3328 -2.5627
 6159TIP3   OH239891   5.258   3.869  11.234  0.2428 -0.2627  0.0026
 6159TIP3    H139892   5.195   3.941  11.229  1.4898  0.7874 -1.9242
 6159TIP3    H239893   5.230   3.808  11.166  0.9058 -0.0913 -0.4356
 6160TIP3   OH239894   3.324   1.977  15.138  0.0489  0.3340  0.0790
 6160TIP3    H139895   3.390   1.908  15.128 -1.3946 -0.8831 -1.6583
 6160TIP3    H239896   3.330   2.028  15.058 -0.6812  0.6110  0.1953
 6161TIP3   OH239897   6.205   4.769   3.872 -0.1522  0.0626 -0.2295
 6161TIP3    H139898   6.224   4.755   3.780 -1.9531  1.3222 -0.8397
 6161TIP3    H239899   6.281   4.817   3.905 -0.0873  0.7940 -1.3903
 6162TIP3   OH239900   3.302   5.832  13.468  0.2431  0.0399 -0.3847
 6162TIP3    H139901   3.212   5.799  13.474 -0.1469  1.0102 -0.5438
 6162TIP3    H239902   3.356   5.762  13.504 -0.4149 -1.1953 -1.6947
 6163TIP3   OH239903   4.365   5.324   0.139 -0.1571  0.1964 -0.1146
 6163TIP3    H139904   4.393   5.300   0.227  2.0561  0.2563 -0.7286
 6163TIP3    H239905   4.445   5.320   0.087 -1.5343 -0.6350 -2.3209
 6164TIP3   OH239906   4.058   4.178  15.701  0.1161 -0.6312 -0.2644
 6164TIP3    H139907   4.102   4.247  15.751 -0.5109 -0.4552  0.0584
 6164TIP3    H239908   4.124   4.148  15.638  0.9768 -0.9896  0.7843
 6165TIP3   OH239909   3.413   2.086   5.276  0.2985 -1.0153  0.1352
 6165TIP3    H139910   3.410   2.093   5.372 -0.9391 -1.0031  0.1142
 6165TIP3    H239911   3.355   2.156   5.246  0.1149 -1.4764 -0.6004
 6166TIP3   OH239912   5.045   6.052   1.881  0.1740  0.3405  0.3233
 6166TIP3    H139913   5.131   6.049   1.840  0.1550 -1.6529  0.3586
 6166TIP3    H239914   4.985   6.023   1.812 -0.1208 -0.8812  1.0691
 6167TIP3   OH239915   5.855   4.457   2.235  0.1165 -0.3493 -0.2365
 6167TIP3    H139916   5.832   4.364   2.243  2.2629 -0.9005  0.1228
 6167TIP3    H239917   5.780   4.496   2.192 -1.3126 -2.0439  0.5741
 6168TIP3   OH239918   3.436   6.214   1.290  0.4293  0.4784 -0.1945
 6168TIP3    H139919   3.450   6.133   1.241 -0.3979 -1.2117  2.1597
 6168TIP3    H239920   3.505   6.214   1.357 -0.9042  0.5321  1.2258
 6169TIP3   OH239921   6.814   2.044   3.981 -0.3227 -0.2451 -0.3863
 6169TIP3    H139922   6.897   2.092   3.992 -0.8308  0.3371  1.2894
 6169TIP3    H239923   6.801   2.039   3.886  1.8107 -0.6986 -0.7051
 6170TIP3   OH239924   6.312   1.472   4.652 -0.0348  0.4386  0.3525
 6170TIP3    H139925   6.343   1.555   4.688  2.4998 -0.1672 -0.2851
 6170TIP3    H239926   6.340   1.473   4.560 -2.7234  0.1562 -0.5698
 6171TIP3   OH239927   3.760   2.093   1.175  0.0280 -0.7085  0.0082
 6171TIP3    H139928   3.680   2.118   1.128  1.0168  1.3235 -0.7250
 6171TIP3    H239929   3.732   2.024   1.235 -1.9938 -0.9714 -1.1354
 6172TIP3   OH239930   1.775   3.390   4.647  0.6917  0.1212  0.0114
 6172TIP3    H139931   1.711   3.446   4.603 -1.2501 -2.6264 -0.9607
 6172TIP3    H239932   1.801   3.439   4.725 -1.1388  2.1932 -0.5917
 6173TIP3   OH239933   5.801   2.780  16.901  0.2522 -0.1238 -0.2980
 6173TIP3    H139934   5.896   2.771  16.888  0.3599  0.6431 -0.0867
 6173TIP3    H239935   5.773   2.694  16.934  0.9078 -0.2932 -0.1706
 6174TIP3   OH239936   0.728   2.166  16.788  0.2911 -0.4284  0.4749
 6174TIP3    H139937   0.644   2.126  16.810  0.7751 -1.5039  0.4173
 6174TIP3    H239938   0.756   2.208  16.870 -2.4072  4.0597 -0.5518
 6175TIP3   OH239939   6.571   2.099  15.975 -0.2001 -0.4376 -0.2828
 6175TIP3    H139940   6.510   2.026  15.987 -0.6674  0.0188  0.1161
 6175TIP3    H239941   6.555   2.130  15.886 -0.5370 -0.3242 -0.1813
 6176TIP3   OH239942   1.383   1.971   4.703  0.8813  0.8520 -0.5945
 6176TIP3    H139943   1.395   2.029   4.778  2.3593 -0.0179 -0.1089
 6176TIP3    H239944   1.355   1.888   4.742  1.6502  0.3980 -0.9890
 6177TIP3   OH239945   6.275   3.719   0.314 -0.1379  0.2097 -0.4155
 6177TIP3    H139946   6.212   3.717   0.386 -1.6480  1.2353 -1.6291
 6177TIP3    H239947   6.223   3.699   0.236  2.1068 -4.7773 -0.9628
 6178TIP3   OH239948   1.422   0.600   0.652 -0.1303  0.3341 -0.0333
 6178TIP3    H139949   1.415   0.555   0.736 -0.3230  0.7501  0.1782
 6178TIP3    H239950   1.500   0.564   0.612 -0.1899 -0.0669  0.2065
 6179TIP3   OH239951   4.334   6.610   1.404 -0.1197 -0.5904 -0.3530
 6179TIP3    H139952   4.424   6.613   1.437  0.2541 -0.7024 -1.3332
 6179TIP3    H239953   4.322   6.695   1.361 -0.8621 -0.1366  0.7194
 6180TIP3   OH239954   0.272   3.114  15.578 -0.3073 -0.5711 -0.1283
 6180TIP3    H139955   0.280   3.160  15.662  0.8568 -0.5660 -0.2202
 6180TIP3    H239956   0.213   3.169  15.526  0.1007  0.1897  0.1907
 6181TIP3   OH239957   4.926   1.472   5.571  0.5922  0.5403  0.4415
 6181TIP3    H139958   4.864   1.401   5.552  1.1437  0.1494  0.0892
 6181TIP3    H239959   5.007   1.428   5.595  0.2685  1.0488  2.5928
 6182TIP3   OH239960   2.680   5.752   1.332  0.1982 -0.3508  0.6619
 6182TIP3    H139961   2.615   5.798   1.280  0.9606 -1.8274 -1.7599
 6182TIP3    H239962   2.697   5.810   1.406 -2.3619  0.9689  0.3169
 6183TIP3   OH239963   5.405   5.308  14.286 -0.3391  0.3467 -0.1653
 6183TIP3    H139964   5.344   5.381  14.282  1.2466  1.8122  1.0765
 6183TIP3    H239965   5.479   5.334  14.232  0.6695  0.1366  1.0542
 6184TIP3   OH239966   5.982   3.365  14.826  0.3447  0.2371 -0.4828
 6184TIP3    H139967   6.069   3.327  14.834  1.0641  2.0433  1.0486
 6184TIP3    H239968   5.986   3.417  14.745  0.5205 -0.0688 -0.6732
 6185TIP3   OH239969   3.371   4.986  13.573  0.6356 -0.3304 -0.6383
 6185TIP3    H139970   3.464   4.966  13.577  0.5920 -0.4639  2.3502
 6185TIP3    H239971   3.367   5.075  13.539  1.9296 -0.0373 -0.0846
 6186TIP3   OH239972   3.789   0.720   2.856  0.2175  0.3113 -0.0425
 6186TIP3    H139973   3.740   0.647   2.895 -1.6537  1.4493 -0.1105
 6186TIP3    H239974   3.880   0.703   2.880 -0.1791 -1.8796  0.1741
 6187TIP3   OH239975   1.287   0.866   5.057 -0.3191 -0.2935 -0.0310
 6187TIP3    H139976   1.278   0.943   5.113  0.6081 -0.2548  0.0757
 6187TIP3    H239977   1.343   0.895   4.984  3.1177 -1.7291  1.7867
 6188TIP3   OH239978   5.523   4.679  14.048  0.1302 -0.2037 -0.0837
 6188TIP3    H139979   5.495   4.759  14.004 -0.6083 -0.0760  0.5837
 6188TIP3    H239980   5.602   4.652  14.001  1.5593  1.9750  0.8908
 6189TIP3   OH239981   2.280   3.314   5.883  0.0870 -0.1972  0.6125
 6189TIP3    H139982   2.221   3.278   5.817  0.4178 -0.1321  0.2772
 6189TIP3    H239983   2.320   3.237   5.923 -0.8966 -0.2793  1.4777
 6190TIP3   OH239984   5.182   2.635   0.273 -0.5854 -0.0814 -0.0634
 6190TIP3    H139985   5.187   2.579   0.195  0.5083  0.4277 -0.3771
 6190TIP3    H239986   5.098   2.613   0.312 -0.4305 -1.5391 -0.4830
 6191TIP3   OH239987   1.731   5.230  11.699  0.9970 -0.2059 -0.0204
 6191TIP3    H139988   1.747   5.149  11.749 -1.1477 -0.9828 -0.4721
 6191TIP3    H239989   1.725   5.298  11.765  1.5857 -0.6246  0.4784
 6192TIP3   OH239990   2.838   3.817  13.981 -0.0414 -0.0601  0.0933
 6192TIP3    H139991   2.818   3.745  13.921 -0.6742  0.9144 -0.8895
 6192TIP3    H239992   2.919   3.855  13.946 -1.5023  1.8166 -1.4441
 6193TIP3   OH239993   5.533   6.248   5.508  0.2984 -0.5067 -0.2662
 6193TIP3    H139994   5.509   6.269   5.599  1.2177 -0.3092 -0.0569
 6193TIP3    H239995   5.598   6.178   5.516  1.3257  0.3706 -0.6956
 6194TIP3   OH239996   1.854   5.012   1.310  1.0407  0.3378  0.2506
 6194TIP3    H139997   1.851   4.928   1.264  1.6556 -0.0744  0.9404
 6194TIP3    H239998   1.785   5.064   1.269 -0.4899 -1.0615  0.9146
 6195TIP3   OH239999   5.387   2.546  10.920  0.3308 -0.1254 -0.0689
 6195TIP3    H140000   5.454   2.527  10.854 -1.0152  1.8105 -2.1385
 6195TIP3    H240001   5.437   2.573  10.997  1.9844 -3.1867  0.1153
 6196TIP3   OH240002   4.544   3.815   4.226  0.1031 -0.0310 -0.7799
 6196TIP3    H140003   4.517   3.724   4.216 -0.1228 -0.0953  0.3070
 6196TIP3    H240004   4.463   3.862   4.247  0.6868 -0.1790  2.2257
 6197TIP3   OH240005   0.586   1.297  14.638 -0.1669 -0.3464  0.1599
 6197TIP3    H140006   0.649   1.350  14.589  0.3835 -0.5862  0.5922
 6197TIP3    H240007   0.607   1.314  14.730  0.9780 -2.3752  0.3310
 6198TIP3   OH240008   0.588   5.233  16.337  0.0219 -0.8637  0.8278
 6198TIP3    H140009   0.587   5.256  16.430 -0.6671 -0.3977  0.7170
 6198TIP3    H240010   0.639   5.302  16.296  0.1627 -0.9624  0.8376
 6199TIP3   OH240011   3.443   3.536  14.543 -0.1163 -0.3649 -0.4096
 6199TIP3    H140012   3.353   3.568  14.547 -0.1369 -0.4505 -0.1882
 6199TIP3    H240013   3.475   3.543  14.632 -0.4316 -1.8391 -0.1426
 6200TIP3   OH240014   5.418   4.998   3.709 -0.6993 -0.0834  0.2112
 6200TIP3    H140015   5.327   4.969   3.702 -0.7044 -0.1623  0.5789
 6200TIP3    H240016   5.469   4.918   3.715 -0.6073 -0.0384  0.0223
 6201TIP3   OH240017   6.654   0.832   0.178  0.1698 -0.2655 -1.1064
 6201TIP3    H140018   6.681   0.915   0.217 -1.3137  0.5769 -1.7639
 6201TIP3    H240019   6.732   0.800   0.133  0.6049  1.1020 -1.3832
 6202TIP3   OH240020   2.498   3.044  16.894  0.1586 -0.3814  0.4809
 6202TIP3    H140021   2.444   3.082  16.963 -1.4426 -0.3528 -0.7288
 6202TIP3    H240022   2.540   3.118  16.851 -0.1707 -0.2554  0.3728
 6203TIP3   OH240023   4.558   0.130   0.655 -0.1905 -0.1040  0.0811
 6203TIP3    H140024   4.627   0.190   0.684 -0.6258  0.3772  0.1280
 6203TIP3    H240025   4.493   0.186   0.614 -1.2438 -0.3754  1.3094
 6204TIP3   OH240026   3.265   1.393   3.643  0.7096 -0.1360 -0.0599
 6204TIP3    H140027   3.311   1.419   3.563  0.3320 -0.1390 -0.2789
 6204TIP3    H240028   3.296   1.304   3.660 -1.6491 -1.4450 -2.0529
 6205TIP3   OH240029   4.004   1.398   5.189  0.3145 -0.0472 -0.1443
 6205TIP3    H140030   3.934   1.437   5.241  0.0211 -2.0361  1.0951
 6205TIP3    H240031   4.053   1.344   5.252 -0.3202 -2.9312 -1.9211
 6206TIP3   OH240032   0.567   3.980   2.729 -0.4547  0.3393  0.0080
 6206TIP3    H140033   0.498   4.016   2.784  0.3639  1.7064  0.1969
 6206TIP3    H240034   0.522   3.946   2.652 -1.2957  1.8131 -0.1754
 6207TIP3   OH240035   1.389   6.324   5.232 -0.5243 -0.7370 -0.3583
 6207TIP3    H140036   1.333   6.270   5.288  0.4966 -1.1237  0.3170
 6207TIP3    H240037   1.418   6.396   5.288 -0.3160 -0.5637 -0.6860
 6208TIP3   OH240038   0.630   5.573  12.554  0.1950  0.4750 -0.4747
 6208TIP3    H140039   0.652   5.480  12.565  0.1536  0.4987 -0.1513
 6208TIP3    H240040   0.630   5.608  12.644  0.2125  0.7876 -0.5949
 6209TIP3   OH240041   0.010   2.026  16.034  0.0732 -0.1781 -0.8285
 6209TIP3    H140042   0.019   1.983  16.119  0.9482  2.3395  0.4362
 6209TIP3    H240043  -0.083   2.048  16.028 -0.1688 -1.1841 -0.9854
 6210TIP3   OH240044   4.528   4.116  15.473 -0.3848  0.7446  0.0448
 6210TIP3    H140045   4.586   4.188  15.496 -1.6440  1.1123  2.3186
 6210TIP3    H240046   4.581   4.037  15.489  0.2373  1.0962 -0.2289
 6211TIP3   OH240047   5.694   3.259   3.365  0.0341  0.2294  0.6289
 6211TIP3    H140048   5.675   3.181   3.312  1.3210  1.3484 -1.6334
 6211TIP3    H240049   5.747   3.227   3.438  0.7011 -1.0090 -0.3701
 6212TIP3   OH240050   2.311   3.007   3.111  0.1612  0.0643  0.5023
 6212TIP3    H140051   2.271   2.987   3.026  0.3011  0.7376  0.2736
 6212TIP3    H240052   2.404   3.019   3.091  0.3341 -0.5638  0.8831
 6213TIP3   OH240053   4.542   0.927  16.008  0.2384 -0.0436 -0.3899
 6213TIP3    H140054   4.539   0.977  16.090  0.5776 -1.3510  0.4538
 6213TIP3    H240055   4.460   0.949  15.964  0.5299  1.5022 -0.2110
 6214TIP3   OH240056   2.766   2.978   5.256 -0.1254  0.1753  0.6873
 6214TIP3    H140057   2.695   2.916   5.241  0.2723  0.0094 -0.7445
 6214TIP3    H240058   2.739   3.030   5.331 -1.4569 -0.3141  0.5621
 6215TIP3   OH240059   0.963   5.197  16.826 -0.2472  0.6070  0.2840
 6215TIP3    H140060   0.873   5.190  16.857 -0.8109  0.3939 -1.3390
 6215TIP3    H240061   0.990   5.285  16.851 -0.6010  0.4018  1.4890
 6216TIP3   OH240062   0.347   2.325   2.959 -0.0587  0.5373 -0.0555
 6216TIP3    H140063   0.328   2.377   2.882 -0.2293  0.3503 -0.1402
 6216TIP3    H240064   0.441   2.305   2.952 -0.0161  0.7480 -0.0729
 6217TIP3   OH240065   0.423   5.849  12.678  0.0593 -0.3297 -0.1307
 6217TIP3    H140066   0.349   5.788  12.680  0.9531 -1.4553 -0.4013
 6217TIP3    H240067   0.409   5.906  12.753 -0.9654 -0.6667 -0.0539
 6218TIP3   OH240068   0.103   6.716   4.034  0.5212  0.6486 -0.0723
 6218TIP3    H140069   0.181   6.763   4.064  1.5319 -1.6700  1.2162
 6218TIP3    H240070   0.122   6.696   3.942  1.2079  0.5964  0.0750
 6219TIP3   OH240071   2.901   6.333   1.157  0.9132 -0.5746 -0.0199
 6219TIP3    H140072   2.967   6.269   1.185  1.9893  0.6925  0.4242
 6219TIP3    H240073   2.924   6.354   1.067  0.6981 -0.6280 -0.0894
 6220TIP3   OH240074   3.050   1.427   0.707 -0.0940 -0.0053 -0.0043
 6220TIP3    H140075   2.968   1.470   0.685  0.8954  1.3144 -1.2611
 6220TIP3    H240076   3.026   1.335   0.722 -1.5729  0.0277 -1.8272
 6221TIP3   OH240077   1.071   3.218   5.189 -0.5267  0.4325 -0.3939
 6221TIP3    H140078   1.131   3.171   5.248 -0.5703  0.1058 -0.6079
 6221TIP3    H240079   1.006   3.257   5.247 -0.3529  0.4271 -0.1946
 6222TIP3   OH240080   4.213   0.032   0.602 -0.5013 -0.0144  0.2324
 6222TIP3    H140081   4.217  -0.015   0.685  0.1351 -0.2175  0.0894
 6222TIP3    H240082   4.275  -0.014   0.545 -0.5447  0.4433 -0.1881
 6223TIP3   OH240083   1.297   0.916   2.918  0.3189  0.2850  0.2213
 6223TIP3    H140084   1.304   0.855   2.992  1.4580  0.7115  0.4841
 6223TIP3    H240085   1.293   1.003   2.958 -2.1220  0.3988 -0.1141
 6224TIP3   OH240086   3.000   6.769  12.621 -0.4720 -0.4712 -0.4789
 6224TIP3    H140087   3.094   6.757  12.624 -0.5388 -0.8190  0.3864
 6224TIP3    H240088   2.982   6.797  12.531  0.4716 -0.2066 -0.5923
 6225TIP3   OH240089   5.731   4.920  13.137  0.3111  0.0294 -0.3704
 6225TIP3    H140090   5.796   4.928  13.207  0.8434 -1.4056 -0.6665
 6225TIP3    H240091   5.752   4.991  13.077  2.1651 -0.8683 -0.8778
 6226TIP3   OH240092   1.042   5.937   4.412 -0.3278 -0.3699 -0.2704
 6226TIP3    H140093   1.030   5.992   4.335  0.3746  0.3262  0.1057
 6226TIP3    H240094   1.117   5.881   4.389  0.4282  0.4158  0.2043
 6227TIP3   OH240095   3.896   2.836   0.468 -0.3496  0.4932  0.0149
 6227TIP3    H140096   3.878   2.754   0.422  2.5730  0.3804 -1.1103
 6227TIP3    H240097   3.834   2.836   0.541 -2.9824 -0.8552 -2.0709
 6228TIP3   OH240098   0.148   4.769   1.460  0.1177  0.2816 -0.4884
 6228TIP3    H140099   0.111   4.744   1.544  0.1244  1.0894 -0.2355
 6228TIP3    H240100   0.230   4.720   1.453 -0.0362 -0.0175 -0.1658
 6229TIP3   OH240101   1.265   5.648  12.427 -0.8070 -0.0427  0.5317
 6229TIP3    H140102   1.216   5.720  12.387 -0.6084  1.6513  3.0516
 6229TIP3    H240103   1.277   5.585  12.357 -2.0082  1.8591 -1.5263
 6230TIP3   OH240104   2.718   6.689   5.671  0.2641  0.2188  0.4601
 6230TIP3    H140105   2.647   6.653   5.618  1.0678  0.0083 -0.5148
 6230TIP3    H240106   2.723   6.632   5.748  1.1840 -1.5078 -0.8090
 6231TIP3   OH240107   4.459   1.060  12.935 -0.0847 -0.2552 -0.0326
 6231TIP3    H140108   4.481   1.128  12.998  0.6448 -1.8657  1.5512
 6231TIP3    H240109   4.454   1.105  12.851 -0.1683  1.8150  1.0248
 6232TIP3   OH240110   3.831   2.809  16.148  0.7476 -0.3057 -0.4733
 6232TIP3    H140111   3.805   2.722  16.178 -0.8390 -0.1870 -1.3568
 6232TIP3    H240112   3.880   2.846  16.221 -0.4797 -1.1021  0.8091
 6233TIP3   OH240113   6.790   2.335   4.646 -0.1127 -0.4708 -0.1985
 6233TIP3    H140114   6.721   2.392   4.680 -0.9724 -1.6151  0.0055
 6233TIP3    H240115   6.760   2.246   4.665  1.2561 -1.0060 -0.4184
 6234TIP3   OH240116   4.750   5.297  15.955  0.2793  0.0236 -0.3277
 6234TIP3    H140117   4.681   5.295  16.021 -1.1819 -1.1617 -1.8103
 6234TIP3    H240118   4.830   5.315  16.005 -0.7880 -0.5234  1.7035
 6235TIP3   OH240119   5.480   1.813   1.362  0.4023  0.5848  0.2885
 6235TIP3    H140120   5.435   1.875   1.420  1.7975  1.9851 -0.0684
 6235TIP3    H240121   5.571   1.816   1.389  0.7175 -0.3215 -0.6176
 6236TIP3   OH240122   1.624   5.900   4.013  0.1397  0.6661 -0.0695
 6236TIP3    H140123   1.612   5.829   3.950 -0.7314 -0.0693  0.8933
 6236TIP3    H240124   1.719   5.915   4.014  0.1364  1.1665 -2.0251
 6237TIP3   OH240125   6.759   1.401   6.031  0.0424 -0.5894 -0.7072
 6237TIP3    H140126   6.734   1.310   6.012 -1.2525 -0.5458  0.5919
 6237TIP3    H240127   6.677   1.443   6.057  0.8334  0.6327 -0.1255
 6238TIP3   OH240128   1.656   5.635   5.181 -0.8410 -0.8695  0.9307
 6238TIP3    H140129   1.661   5.556   5.126  2.3129  1.0405 -1.9071
 6238TIP3    H240130   1.647   5.707   5.118  2.3809  1.4463  2.8478
 6239TIP3   OH240131   1.432   0.282  15.870  0.0613  0.2157  0.0938
 6239TIP3    H140132   1.455   0.230  15.947 -0.5786 -0.2345 -0.0174
 6239TIP3    H240133   1.506   0.270  15.811  0.4873  0.4383  0.5682
 6240TIP3   OH240134   3.403   5.362  15.052 -0.5522  0.2681  0.6008
 6240TIP3    H140135   3.481   5.319  15.015  0.3173  1.7938  0.5642
 6240TIP3    H240136   3.367   5.298  15.113  0.6038 -0.5633  0.4497
 6241TIP3   OH240137   3.515   6.761  16.733  0.1454 -0.1326  0.0567
 6241TIP3    H140138   3.601   6.756  16.776 -0.4953  1.4706  1.6812
 6241TIP3    H240139   3.533   6.743  16.641  2.4517  1.4053  0.1172
 6242TIP3   OH240140   5.384   0.417   1.026  0.1963  0.4700 -0.3669
 6242TIP3    H140141   5.307   0.473   1.033  1.5540  2.4299 -0.5149
 6242TIP3    H240142   5.394   0.402   0.932 -0.3414 -0.3253 -0.3100
 6243TIP3   OH240143   1.816   1.687  15.412 -0.5827 -0.4488 -0.9238
 6243TIP3    H140144   1.893   1.690  15.468  0.1206 -0.0484 -1.8806
 6243TIP3    H240145   1.805   1.594  15.392 -1.1432 -0.6529  0.2559
 6244TIP3   OH240146   0.233   3.554   1.736 -0.4287 -0.2605  0.2997
 6244TIP3    H140147   0.306   3.529   1.793  1.5791  1.3016 -1.3724
 6244TIP3    H240148   0.200   3.635   1.775  0.7557  0.6521 -0.4984
 6245TIP3   OH240149   3.237   3.781   1.412  0.0448  0.1250 -0.3790
 6245TIP3    H140150   3.320   3.829   1.407  0.4414 -0.6005 -0.9402
 6245TIP3    H240151   3.256   3.696   1.372 -1.2871  0.3944 -1.6864
 6246TIP3   OH240152   3.878   2.104  11.190  0.7989  0.9259  0.2268
 6246TIP3    H140153   3.877   2.139  11.101  0.9430 -2.6125 -1.3238
 6246TIP3    H240154   3.791   2.124  11.224 -0.0139  0.5756 -1.5300
 6247TIP3   OH240155   3.463   6.581  12.892 -0.0358  0.1686  0.2029
 6247TIP3    H140156   3.378   6.538  12.878  0.3422 -1.1233  1.6977
 6247TIP3    H240157   3.527   6.518  12.860  0.3874  1.2856 -1.2394
 6248TIP3   OH240158   2.909   0.034  11.515  0.2496  0.3970 -0.0189
 6248TIP3    H140159   2.961   0.004  11.441 -1.0428  0.4326 -0.9841
 6248TIP3    H240160   2.960   0.105  11.553  0.6786  0.7634 -1.2371
 6249TIP3   OH240161   6.541   1.040  13.850  0.2647 -0.4424 -0.3795
 6249TIP3    H140162   6.497   1.125  13.854  0.9862 -0.0140 -1.1108
 6249TIP3    H240163   6.470   0.976  13.839 -0.2533  0.1092 -0.2746
 6250TIP3   OH240164   0.042   0.686  16.619 -0.2832 -0.7239 -0.5030
 6250TIP3    H140165  -0.017   0.611  16.610 -0.9827 -0.2034 -0.3282
 6250TIP3    H240166   0.084   0.673  16.704  1.5686 -2.2730 -1.5556
 6251TIP3   OH240167   1.995   3.619  14.164  0.0258  0.7483  0.2444
 6251TIP3    H140168   2.050   3.616  14.085 -0.2883  1.8016 -0.0294
 6251TIP3    H240169   2.030   3.692  14.215  0.3989 -0.0914  1.2366
 6252TIP3   OH240170   6.358   5.165   5.973  0.2489  0.4599  0.1430
 6252TIP3    H140171   6.447   5.198   5.960  0.3559 -0.1323 -0.6670
 6252TIP3    H240172   6.348   5.095   5.909 -0.8285  0.5646  0.1742
 6253TIP3   OH240173   3.356   4.408  12.050  0.1352 -0.4332 -0.1467
 6253TIP3    H140174   3.343   4.431  11.958 -0.4532 -1.5520 -0.3616
 6253TIP3    H240175   3.445   4.374  12.054  0.2304 -0.2003 -0.2627
 6254TIP3   OH240176   1.742   0.671   0.032 -0.1138 -0.1558 -0.1222
 6254TIP3    H140177   1.789   0.677   0.115 -0.9327 -0.5882  0.3787
 6254TIP3    H240178   1.812   0.668  -0.034  0.6899 -2.6056  0.6935
 6255TIP3   OH240179   6.193   2.101   5.302  0.0376  0.1599 -0.1376
 6255TIP3    H140180   6.138   2.043   5.248  0.1423  1.0671 -1.2598
 6255TIP3    H240181   6.144   2.183   5.307  0.9128  0.7178 -0.4837
 6256TIP3   OH240182   1.211   5.756   4.299 -0.4358 -0.4292  0.2225
 6256TIP3    H140183   1.228   5.663   4.284 -0.3602 -0.8218  2.4471
 6256TIP3    H240184   1.296   5.791   4.326 -0.1150  0.6567 -1.9485
 6257TIP3   OH240185   2.354   0.860  11.524 -0.2732  0.2179 -0.4384
 6257TIP3    H140186   2.375   0.927  11.589  1.0406 -1.3324  0.8200
 6257TIP3    H240187   2.259   0.849  11.530 -0.1731 -0.0059  1.3803
 6258TIP3   OH240188   0.451   5.162  15.325 -0.2552 -0.3662  0.3045
 6258TIP3    H140189   0.390   5.111  15.379  0.7551  0.4261  2.2689
 6258TIP3    H240190   0.497   5.218  15.386 -0.0737  1.6865 -1.5882
 6259TIP3   OH240191   4.177   1.715  16.172  0.6442 -0.0896 -0.0417
 6259TIP3    H140192   4.117   1.641  16.182 -0.1125  0.6086  0.7168
 6259TIP3    H240193   4.125   1.792  16.196  0.8375  0.9460 -2.5907
 6260TIP3   OH240194   3.055   6.107   1.019 -0.0393 -0.2298  0.0433
 6260TIP3    H140195   2.960   6.113   1.017 -0.0491 -0.3858 -0.0168
 6260TIP3    H240196   3.086   6.196   1.003 -0.1653 -0.4381 -1.5475
 6261TIP3   OH240197   3.830   2.118   1.917  0.6416  0.2918  0.9319
 6261TIP3    H140198   3.783   2.119   1.834  1.5598 -0.7034  0.3697
 6261TIP3    H240199   3.779   2.062   1.974  0.5832  0.0751  0.6689
 6262TIP3   OH240200   2.839   3.155   3.478  0.5443  0.1376  0.9014
 6262TIP3    H140201   2.767   3.096   3.500  0.7618 -0.4622  0.0912
 6262TIP3    H240202   2.801   3.242   3.481  0.2472 -0.0253  2.2582
 6263TIP3   OH240203   5.777   6.550  16.441 -0.5171 -0.1613 -0.0914
 6263TIP3    H140204   5.852   6.593  16.400 -0.6914  1.3555  1.1072
 6263TIP3    H240205   5.813   6.501  16.514 -0.6007 -0.1207 -0.0225
 6264TIP3   OH240206   3.490   6.377  16.665  0.3620  0.1573 -0.1818
 6264TIP3    H140207   3.580   6.377  16.698  0.5862  1.0937 -0.7205
 6264TIP3    H240208   3.495   6.427  16.583 -0.3353 -1.2839 -1.1410
 6265TIP3   OH240209   6.096   2.818   3.163 -0.5390  0.2437 -0.0046
 6265TIP3    H140210   6.151   2.764   3.106 -2.3331 -2.8396  1.0069
 6265TIP3    H240211   6.027   2.851   3.105 -1.4925 -1.6222  0.0244
 6266TIP3   OH240212   3.468   3.287   5.130 -0.0326  0.9506 -0.1947
 6266TIP3    H140213   3.420   3.291   5.213 -2.6029 -0.3053 -1.4981
 6266TIP3    H240214   3.415   3.338   5.070 -0.2160 -1.0842 -1.8875
 6267TIP3   OH240215   5.468   1.387   0.399 -0.2885 -0.0780 -0.0759
 6267TIP3    H140216   5.454   1.311   0.456  1.5573 -0.1302  0.3472
 6267TIP3    H240217   5.478   1.461   0.459  1.8051 -0.1546 -0.2596
 6268TIP3   OH240218   6.498   1.824   1.893  0.0596 -0.1877  0.0593
 6268TIP3    H140219   6.582   1.796   1.930  0.7684 -0.2338 -1.5111
 6268TIP3    H240220   6.522   1.875   1.816 -1.3412  0.9887  0.3696
 6269TIP3   OH240221   3.848   1.719   5.206 -0.0009 -0.1482 -0.7501
 6269TIP3    H140222   3.795   1.641   5.224  1.8869 -1.4943 -0.7125
 6269TIP3    H240223   3.883   1.744   5.292  0.2035  0.1308 -0.9145
 6270TIP3   OH240224   6.681   0.608   1.655  0.3344  0.1781 -0.0498
 6270TIP3    H140225   6.769   0.591   1.620 -0.1346 -0.7477 -0.8497
 6270TIP3    H240226   6.622   0.588   1.582 -0.5128  1.4889  0.2492
 6271TIP3   OH240227   1.563   2.654   1.032 -0.9734  0.0651 -0.5523
 6271TIP3    H140228   1.577   2.566   0.996 -0.0555 -0.3924  0.8570
 6271TIP3    H240229   1.649   2.696   1.026 -1.2692  0.6621 -0.6533
 6272TIP3   OH240230   4.028   0.121  11.051 -0.3835 -0.0275  0.2578
 6272TIP3    H140231   4.016   0.157  11.139  0.1117  0.6755  0.0477
 6272TIP3    H240232   4.063   0.194  11.000 -1.2528 -0.2440 -0.6864
 6273TIP3   OH240233   4.453   5.769   2.770 -0.8046  0.1864 -0.0729
 6273TIP3    H140234   4.500   5.793   2.850 -1.8998  0.0410  0.6330
 6273TIP3    H240235   4.372   5.820   2.773 -1.0630 -0.1657 -0.8561
 6274TIP3   OH240236   0.561   2.359   2.385  0.2595  0.3666  0.4008
 6274TIP3    H140237   0.473   2.379   2.417  0.9066  0.1043  2.4967
 6274TIP3    H240238   0.597   2.298   2.449  1.6615 -0.2366 -0.8943
 6275TIP3   OH240239   0.661   0.659   0.451  0.0579  0.4421  0.3414
 6275TIP3    H140240   0.674   0.565   0.467  2.0014  1.0515  2.8577
 6275TIP3    H240241   0.573   0.676   0.485 -0.2834 -0.4273 -0.0602
 6276TIP3   OH240242   4.773   2.541  13.794 -0.4847 -0.1736  0.6471
 6276TIP3    H140243   4.729   2.622  13.821  2.1743  1.2553  1.1512
 6276TIP3    H240244   4.708   2.472  13.806 -2.9748  1.8993 -0.0756
 6277TIP3   OH240245   4.956   4.158   5.734 -0.1709 -0.2174  0.2704
 6277TIP3    H140246   4.942   4.072   5.775  2.4218 -1.0311 -0.3604
 6277TIP3    H240247   5.046   4.154   5.701 -1.0969  1.4950 -2.8432
 6278TIP3   OH240248   5.453   2.641   1.915  0.0745 -0.1716 -0.0541
 6278TIP3    H140249   5.504   2.698   1.973  0.0248  0.0890 -0.2655
 6278TIP3    H240250   5.392   2.596   1.973 -0.5118  0.6674  0.0016
 6279TIP3   OH240251   1.389   4.292  11.440 -0.1436 -0.1910 -0.3978
 6279TIP3    H140252   1.395   4.385  11.422  0.2197 -0.1417 -0.0599
 6279TIP3    H240253   1.298   4.269  11.424 -0.3463  0.3276  0.0101
 6280TIP3   OH240254   3.191   5.373  14.589 -0.5006  0.1523 -0.3426
 6280TIP3    H140255   3.253   5.402  14.656 -0.2509 -1.6794  0.2611
 6280TIP3    H240256   3.117   5.337  14.638  0.3500 -2.6664 -0.9135
 6281TIP3   OH240257   4.755   2.964  10.874 -0.5457  0.2382 -0.0098
 6281TIP3    H140258   4.798   2.905  10.812  0.5849 -2.0486  2.6934
 6281TIP3    H240259   4.671   2.922  10.891 -0.1722 -0.0777  1.1451
 6282TIP3   OH240260   3.305   1.544  12.277  0.2039  0.3998 -0.0043
 6282TIP3    H140261   3.314   1.449  12.277 -0.6119  0.2943 -1.6133
 6282TIP3    H240262   3.331   1.570  12.188  0.6558  1.7126  0.4881
 6283TIP3   OH240263   0.441   6.189  13.299 -0.1859 -0.0924 -0.1976
 6283TIP3    H140264   0.501   6.124  13.264  1.3557  0.7974  0.6838
 6283TIP3    H240265   0.395   6.223  13.222  0.7541 -0.4822 -0.9574
 6284TIP3   OH240266   3.151   3.868  11.641  0.3058  0.0610 -0.1635
 6284TIP3    H140267   3.096   3.941  11.669  3.4331  1.7369  2.2757
 6284TIP3    H240268   3.166   3.883  11.547  0.5412  2.3657  0.1967
 6285TIP3   OH240269   2.560   5.290   5.127  0.6474  0.3306 -0.0374
 6285TIP3    H140270   2.528   5.262   5.042 -0.1941 -0.0152  0.3839
 6285TIP3    H240271   2.647   5.326   5.109 -0.6491  2.9993 -1.4775
 6286TIP3   OH240272   3.401   3.679  13.740  0.0649 -0.4707 -0.3668
 6286TIP3    H140273   3.464   3.726  13.684  0.2912 -1.1398 -0.6794
 6286TIP3    H240274   3.386   3.739  13.813  2.5395 -1.0458  0.7103
 6287TIP3   OH240275   2.817   6.094   1.955 -0.3641 -0.4966 -0.2610
 6287TIP3    H140276   2.755   6.022   1.950 -0.8771 -0.4584  3.3740
 6287TIP3    H240277   2.898   6.055   1.989  0.3536  0.1593 -1.1430
 6288TIP3   OH240278   6.363   3.406   5.011  0.0564  0.0388 -0.4409
 6288TIP3    H140279   6.292   3.342   5.006  0.6370 -0.5411 -1.9320
 6288TIP3    H240280   6.353   3.459   4.932  1.5926 -0.4286 -0.9939
 6289TIP3   OH240281   1.487   0.227   5.321  0.2565 -0.0808 -0.8667
 6289TIP3    H140282   1.549   0.300   5.314  0.8070 -0.2995  1.2237
 6289TIP3    H240283   1.436   0.231   5.240  0.3918  2.5224 -0.8964
 6290TIP3   OH240284   2.716   3.374   2.266  0.6199 -0.4176 -0.0772
 6290TIP3    H140285   2.666   3.456   2.260 -1.3897 -1.5157  0.4766
 6290TIP3    H240286   2.655   3.308   2.234  1.9297 -1.7959  0.2066
 6291TIP3   OH240287   2.305   6.752   3.981 -0.1801  0.1047 -0.0027
 6291TIP3    H140288   2.382   6.806   3.964  0.0007 -0.3303 -0.5828
 6291TIP3    H240289   2.250   6.763   3.904 -0.3989 -0.0944  0.1229
 6292TIP3   OH240290   1.681   4.598  11.365 -0.1768 -0.3831  0.0974
 6292TIP3    H140291   1.722   4.684  11.372 -1.0218  0.0316  0.0538
 6292TIP3    H240292   1.587   4.615  11.377 -0.3370 -1.3116  0.2086
 6293TIP3   OH240293   1.124   5.277   2.422  0.6329 -0.6796 -0.1622
 6293TIP3    H140294   1.097   5.205   2.479  1.6707 -0.5155  0.5564
 6293TIP3    H240295   1.194   5.321   2.470  2.1675 -1.0600 -1.8935
 6294TIP3   OH240296   5.914   6.247  11.487 -0.1436  0.4580 -0.1526
 6294TIP3    H140297   5.845   6.287  11.540 -0.5737 -1.8883  1.2051
 6294TIP3    H240298   5.992   6.250  11.543 -0.1673 -0.4768 -0.0551
 6295TIP3   OH240299   3.535   5.823  12.312  0.4345  0.1593 -0.6032
 6295TIP3    H140300   3.567   5.911  12.292  0.8120  0.3235  0.6575
 6295TIP3    H240301   3.525   5.822  12.407  0.7022 -1.2542 -0.5693
 6296TIP3   OH240302   0.778   4.417  14.056 -0.0160 -0.1241  0.7765
 6296TIP3    H140303   0.693   4.373  14.059 -0.0523 -0.3139 -1.3720
 6296TIP3    H240304   0.758   4.510  14.065 -0.6212 -0.0659 -0.7728
 6297TIP3   OH240305   2.457   0.345   4.623  0.2221 -0.0020  0.6217
 6297TIP3    H140306   2.469   0.432   4.661  0.2900  0.5398 -0.5959
 6297TIP3    H240307   2.431   0.289   4.697  1.8055  0.6740  1.7252
 6298TIP3   OH240308   6.055   4.643  11.764 -0.2813  0.9018 -0.5815
 6298TIP3    H140309   6.102   4.727  11.762 -0.3866  0.9574 -0.7589
 6298TIP3    H240310   5.981   4.658  11.823 -1.2132  1.4266 -1.8327
 6299TIP3   OH240311   5.305   4.601  11.097 -0.3516 -0.3989 -0.3399
 6299TIP3    H140312   5.221   4.592  11.142 -1.1442  0.1495 -1.6381
 6299TIP3    H240313   5.363   4.640  11.162 -0.8302 -1.6371  0.8697
 6300TIP3   OH240314   6.463   1.820   2.701 -0.5775  0.3499 -0.2436
 6300TIP3    H140315   6.449   1.735   2.742  0.2126 -0.6605 -1.9559
 6300TIP3    H240316   6.377   1.862   2.702 -1.2923 -1.0683 -0.6464
 6301TIP3   OH240317   5.873   2.844  12.549  0.4930 -0.3749  0.3405
 6301TIP3    H140318   5.781   2.819  12.537  0.0252  0.3700  2.0480
 6301TIP3    H240319   5.889   2.911  12.482  0.4502 -1.9594 -1.3366
 6302TIP3   OH240320   6.813   4.296  13.221 -0.4157  0.1617  0.2088
 6302TIP3    H140321   6.889   4.278  13.276  0.4207  2.1450 -0.2036
 6302TIP3    H240322   6.744   4.319  13.283  0.2789  1.5504  0.5011
 6303TIP3   OH240323   2.027   1.913  10.361 -0.3130 -0.2743 -0.2371
 6303TIP3    H140324   2.059   1.905  10.271 -1.3793 -0.3447 -0.6264
 6303TIP3    H240325   2.095   1.962  10.406  0.9795 -1.6005 -0.6757
 6304TIP3   OH240326   2.012   0.610  14.578 -0.0169 -0.2633 -0.9121
 6304TIP3    H140327   1.994   0.698  14.545 -1.5465 -0.3756 -0.4687
 6304TIP3    H240328   1.988   0.552  14.505 -1.3059 -0.4020 -0.4104
 6305TIP3   OH240329   2.962   2.479  13.093  0.2049  0.0490 -0.0035
 6305TIP3    H140330   2.908   2.558  13.104 -1.2139 -0.8429 -0.2368
 6305TIP3    H240331   2.975   2.446  13.182  0.6430  0.4478  0.0799
 6306TIP3   OH240332   6.628   0.624   2.679 -0.2575  0.1333  0.3651
 6306TIP3    H140333   6.661   0.605   2.591 -1.4656 -0.0209 -0.0813
 6306TIP3    H240334   6.544   0.578   2.683  0.7065 -1.6190  2.3615
 6307TIP3   OH240335   1.100   6.696  13.134 -0.6096  0.3124  0.3670
 6307TIP3    H140336   1.149   6.762  13.183  0.3360 -0.1985  0.1281
 6307TIP3    H240337   1.052   6.746  13.068 -2.1159  1.0464  1.9236
 6308TIP3   OH240338   5.912   3.453   4.908 -0.4648  0.1721  0.1717
 6308TIP3    H140339   5.985   3.496   4.954  0.5126  1.0929 -2.0738
 6308TIP3    H240340   5.926   3.360   4.925  1.1420  0.3385 -0.0163
 6309TIP3   OH240341   4.525   3.337  15.204  0.1363 -0.1300  0.6202
 6309TIP3    H140342   4.610   3.292  15.200 -0.3715 -1.0627 -0.3626
 6309TIP3    H240343   4.483   3.301  15.282  0.2247 -0.4546  0.5205
 6310TIP3   OH240344   3.711   4.318  10.882  0.1739  0.0297  0.6586
 6310TIP3    H140345   3.753   4.350  10.961  2.1267  0.2012 -0.3896
 6310TIP3    H240346   3.781   4.273  10.834 -0.5494  1.2236 -1.6532
 6311TIP3   OH240347   3.111   4.722  10.726  0.0777  0.5754 -0.2396
 6311TIP3    H140348   3.127   4.644  10.779 -2.5067  0.4508  0.5041
 6311TIP3    H240349   3.016   4.737  10.733 -0.1223  1.5749 -3.4531
 6312TIP3   OH240350   5.106   4.264   3.766  0.0153 -0.3161  0.1824
 6312TIP3    H140351   5.194   4.238   3.738  0.6597  2.7390 -1.0458
 6312TIP3    H240352   5.120   4.346   3.814 -2.1507  0.0242  0.3253
 6313TIP3   OH240353   4.417   5.095   2.963 -0.1519 -0.2923  0.1522
 6313TIP3    H140354   4.404   5.100   3.057 -2.9283  3.1082 -0.2186
 6313TIP3    H240355   4.466   5.174   2.941 -0.0023 -0.7589 -1.3402
 6314TIP3   OH240356   1.759   2.651   0.279 -0.2956  0.3374 -0.2005
 6314TIP3    H140357   1.721   2.736   0.302 -1.3844  0.1890 -1.3616
 6314TIP3    H240358   1.742   2.640   0.186  3.2219  0.5190 -0.9984
 6315TIP3   OH240359   5.056   3.842   2.080 -0.3658 -0.1979  0.0055
 6315TIP3    H140360   5.102   3.776   2.029  0.0059 -1.7178  2.1545
 6315TIP3    H240361   5.113   3.918   2.078 -0.7201  0.0768 -2.3808
 6316TIP3   OH240362   1.252   3.969   4.079  0.2678 -0.2295 -0.4761
 6316TIP3    H140363   1.346   3.983   4.089  0.5370 -1.7452 -0.5895
 6316TIP3    H240364   1.238   3.879   4.109 -1.3788  0.4211  0.8675
 6317TIP3   OH240365   2.756   1.567  15.718  0.4855 -0.3094 -0.3720
 6317TIP3    H140366   2.786   1.546  15.807 -0.5134  0.5916  0.2003
 6317TIP3    H240367   2.834   1.599  15.673  0.7871  0.2517  0.5228
 6318TIP3   OH240368   2.542   0.339  10.475  0.0732 -0.7293  0.8536
 6318TIP3    H140369   2.580   0.407  10.421 -0.4526 -0.7625  0.4344
 6318TIP3    H240370   2.617   0.293  10.512  0.4348 -0.5061  0.4063
 6319TIP3   OH240371   5.935   0.977   4.755 -0.4631 -0.3197  0.2993
 6319TIP3    H140372   5.991   1.053   4.738 -0.7312 -0.2232 -0.1622
 6319TIP3    H240373   5.850   1.001   4.718 -0.7413 -0.5734  0.7572
 6320TIP3   OH240374   6.465   1.166   5.779 -0.3253 -0.2191  0.5517
 6320TIP3    H140375   6.394   1.118   5.738  0.9657 -1.6351 -0.1222
 6320TIP3    H240376   6.421   1.232   5.834 -2.1189  0.9361 -2.0578
 6321TIP3   OH240377   3.040   2.799  14.915  0.2443 -0.2720  0.3706
 6321TIP3    H140378   3.127   2.830  14.940  0.0013  0.9585 -0.2386
 6321TIP3    H240379   3.012   2.858  14.845 -2.6337  1.8773  3.0389
 6322TIP3   OH240380   4.145   0.334   1.817  0.1421 -0.1510  0.5353
 6322TIP3    H140381   4.061   0.338   1.862  0.4791 -0.9714  1.2679
 6322TIP3    H240382   4.169   0.241   1.819  0.2309 -0.2008 -1.2422
 6323TIP3   OH240383   3.782   2.531  15.940 -0.1759  0.3719  0.6382
 6323TIP3    H140384   3.797   2.624  15.921  3.4455  0.3234  2.3988
 6323TIP3    H240385   3.742   2.531  16.027  0.1942  0.2991  0.8105
 6324TIP3   OH240386   6.266   0.293  11.229  0.0456 -0.1633  0.2392
 6324TIP3    H140387   6.280   0.252  11.314 -0.0384 -0.7525 -0.0259
 6324TIP3    H240388   6.213   0.370  11.248  0.1978 -0.1795  0.7426
 6325TIP3   OH240389   4.594   5.703  17.000  0.1400  0.0092 -0.2094
 6325TIP3    H140390   4.591   5.795  16.975 -0.0911  0.0009 -0.2161
 6325TIP3    H240391   4.507   5.669  16.976  0.5191 -0.4242 -1.0293
 6326TIP3   OH240392   4.430   6.021   2.023  0.5098 -0.1355  0.7302
 6326TIP3    H140393   4.391   6.011   1.935  0.9176 -0.2320  0.5587
 6326TIP3    H240394   4.515   6.060   2.007  1.4940 -2.0691  0.8734
 6327TIP3   OH240395   0.460   0.413  12.543  0.3602  0.0988 -0.2677
 6327TIP3    H140396   0.422   0.326  12.557  0.9891 -0.4045 -1.4974
 6327TIP3    H240397   0.540   0.412  12.596  0.4993 -0.1810 -0.4765
 6328TIP3   OH240398   3.154   5.184   1.381 -0.2033  0.0564 -0.5654
 6328TIP3    H140399   3.226   5.229   1.337 -0.2776  2.5906  1.6609
 6328TIP3    H240400   3.075   5.228   1.348 -0.3040  1.3863  1.2971
 6329TIP3   OH240401   6.129   2.065  15.256 -0.2377  0.4489  0.3389
 6329TIP3    H140402   6.057   2.015  15.217 -1.0209  1.2549  0.7233
 6329TIP3    H240403   6.197   2.000  15.271 -0.8142 -0.3029 -0.1925
 6330TIP3   OH240404   5.873   6.279  13.257  0.0265  0.5531  0.0868
 6330TIP3    H140405   5.795   6.334  13.267 -0.4108  0.2194 -1.2370
 6330TIP3    H240406   5.933   6.309  13.325  0.0033  3.0120 -0.8864
 6331TIP3   OH240407   6.662   3.317   4.271  0.0103  0.0585  0.3637
 6331TIP3    H140408   6.682   3.322   4.177 -0.3456  0.9109  0.3162
 6331TIP3    H240409   6.586   3.260   4.277 -0.4271  0.5968  0.0431
 6332TIP3   OH240410   5.190   5.632   0.491  0.7017  0.1680 -0.0176
 6332TIP3    H140411   5.195   5.725   0.516  0.9861 -0.3303  1.9682
 6332TIP3    H240412   5.255   5.623   0.422 -1.2409  1.9859 -2.2424
 6333TIP3   OH240413   4.396   6.047   1.748  0.1100 -0.2159  0.5209
 6333TIP3    H140414   4.463   5.979   1.742  0.9098  0.6086 -0.1068
 6333TIP3    H240415   4.360   6.055   1.660  2.6985  2.7718 -0.4450
 6334TIP3   OH240416   2.272   3.259  13.665  0.1851 -0.1683  0.5056
 6334TIP3    H140417   2.325   3.180  13.681 -0.1354 -0.5541 -0.2769
 6334TIP3    H240418   2.220   3.237  13.587 -0.5565  0.4921  0.8063
 6335TIP3   OH240419   1.185   1.051   3.558  0.6194 -0.4394 -0.4022
 6335TIP3    H140420   1.130   1.070   3.481 -2.2513 -1.2368  1.2717
 6335TIP3    H240421   1.207   0.958   3.548 -1.4125 -1.1018  0.5505
 6336TIP3   OH240422   3.505   1.599  13.514  0.2529 -0.5859 -0.8698
 6336TIP3    H140423   3.493   1.693  13.502 -0.3836 -0.3954  0.9578
 6336TIP3    H240424   3.416   1.564  13.517  0.2262 -0.5492  3.0479
 6337TIP3   OH240425   0.355   1.151  16.255 -0.0345  1.0591 -0.4505
 6337TIP3    H140426   0.296   1.128  16.183 -1.2531  0.8727  0.5648
 6337TIP3    H240427   0.301   1.204  16.314  0.8662  1.0240  0.4359
 6338TIP3   OH240428   0.165   0.246   1.525  0.6053  0.1859 -0.0264
 6338TIP3    H140429   0.126   0.334   1.533 -2.2567 -1.0092  0.3741
 6338TIP3    H240430   0.160   0.210   1.613  1.9547 -0.3300 -0.1503
 6339TIP3   OH240431   1.597   3.774  13.967 -0.3156 -0.6407  0.2013
 6339TIP3    H140432   1.579   3.693  13.919 -1.9700 -0.4709  0.4805
 6339TIP3    H240433   1.514   3.795  14.010 -0.6323  2.4260 -1.6455
 6340TIP3   OH240434   6.491   1.686  13.692  0.5463 -0.3068 -0.0815
 6340TIP3    H140435   6.586   1.685  13.703  0.8450 -1.9229 -2.2236
 6340TIP3    H240436   6.477   1.654  13.603 -1.9119  2.6477 -0.9071
 6341TIP3   OH240437   3.944   4.793   0.614  0.9757  0.1230  0.3368
 6341TIP3    H140438   3.935   4.796   0.519 -0.2305 -1.5459  0.3469
 6341TIP3    H240439   3.931   4.884   0.642 -1.9351  0.2193 -0.9071
 6342TIP3   OH240440   2.724   4.329  12.789  0.2289  0.2737 -0.5246
 6342TIP3    H140441   2.817   4.352  12.780  0.5347 -0.8825 -0.4890
 6342TIP3    H240442   2.725   4.245  12.834 -0.7871 -0.3881 -1.7013
 6343TIP3   OH240443   1.933   6.165  16.146 -0.2106  0.5851  0.0258
 6343TIP3    H140444   1.906   6.084  16.188 -0.0485 -1.1024 -2.8321
 6343TIP3    H240445   1.867   6.182  16.079  2.2988 -0.1885 -2.9086
 6344TIP3   OH240446   0.035   6.256  13.363 -0.4798 -0.1530  0.3428
 6344TIP3    H140447  -0.014   6.324  13.410 -2.1072 -1.9156  1.3089
 6344TIP3    H240448  -0.021   6.179  13.367  0.6155 -1.1703 -2.0829
 6345TIP3   OH240449   1.020   3.255   2.125 -0.1555  0.1953 -0.1970
 6345TIP3    H140450   0.990   3.274   2.036 -0.9139 -0.4755 -0.0982
 6345TIP3    H240451   1.004   3.337   2.173  1.1811  0.8963 -0.8786
 6346TIP3   OH240452   5.971   3.419  15.768 -0.1218 -0.1495 -0.7395
 6346TIP3    H140453   5.917   3.484  15.813 -1.2635 -1.8411  0.4679
 6346TIP3    H240454   6.031   3.471  15.714 -0.0745  1.9343  1.1654
 6347TIP3   OH240455   3.861   0.747   4.720 -0.6666  0.0944 -0.2147
 6347TIP3    H140456   3.932   0.683   4.726 -0.5818  0.1413 -0.6764
 6347TIP3    H240457   3.868   0.798   4.800  1.4099  1.7346 -1.3407
 6348TIP3   OH240458   1.069   4.980   2.255 -0.1802  0.5492  0.2628
 6348TIP3    H140459   1.090   4.889   2.233  3.5960  1.1472  0.6950
 6348TIP3    H240460   1.070   4.982   2.350 -0.2072  1.0807  0.2541
 6349TIP3   OH240461   2.583   0.847   1.883  0.2929 -0.0454  0.0923
 6349TIP3    H140462   2.562   0.818   1.794  0.4485  1.2956 -0.4097
 6349TIP3    H240463   2.676   0.871   1.879  0.9156 -1.9776  1.2045
 6350TIP3   OH240464   4.065   1.319   3.403  0.6868 -0.1966 -0.1153
 6350TIP3    H140465   4.029   1.349   3.487 -0.8539  0.0181 -0.8123
 6350TIP3    H240466   4.079   1.399   3.353 -1.2718 -0.4315 -1.1401
 6351TIP3   OH240467   5.025   1.366  12.088  0.8766  0.7462 -0.3447
 6351TIP3    H140468   4.973   1.329  12.017 -2.1589  0.6042  1.7524
 6351TIP3    H240469   5.114   1.332  12.074 -0.5248 -2.8627 -1.6428
 6352TIP3   OH240470   3.544   0.007   1.324 -0.1730 -0.1145  0.4356
 6352TIP3    H140471   3.522   0.012   1.417  2.3458 -0.2445  1.1213
 6352TIP3    H240472   3.610  -0.062   1.318  0.7335  0.8113 -1.1986
 6353TIP3   OH240473   5.169   6.186  15.839  0.0931  0.0130  0.5377
 6353TIP3    H140474   5.240   6.131  15.871 -1.0308 -0.7915  1.7782
 6353TIP3    H240475   5.100   6.124  15.814  0.3112  0.7004 -2.0352
 6354TIP3   OH240476   3.069   2.433   3.693 -0.3827  0.4183  0.4169
 6354TIP3    H140477   3.106   2.467   3.774  0.6621 -1.9196  1.0382
 6354TIP3    H240478   3.119   2.353   3.676 -1.2453  0.2942 -2.0086
 6355TIP3   OH240479   5.347   0.112   1.709 -0.0530  0.1661 -0.1771
 6355TIP3    H140480   5.334   0.202   1.738  0.4250  0.1032  0.2382
 6355TIP3    H240481   5.329   0.115   1.615 -1.5013  0.3828  0.0917
 6356TIP3   OH240482   2.230   4.310   3.844  0.0013  0.1368  0.8490
 6356TIP3    H140483   2.160   4.294   3.908  0.5188 -1.1504  1.1127
 6356TIP3    H240484   2.193   4.285   3.760 -1.0257  2.7675  0.4331
 6357TIP3   OH240485   5.444   0.333   3.911  0.5195  0.1967 -0.3349
 6357TIP3    H140486   5.531   0.316   3.875  0.7594  1.5155 -0.4315
 6357TIP3    H240487   5.385   0.283   3.855  1.1100  0.2444 -1.0205
 6358TIP3   OH240488   3.189   0.858  16.960  0.5518 -0.6484  0.1065
 6358TIP3    H140489   3.151   0.878  17.045 -0.2158 -1.2238 -0.0900
 6358TIP3    H240490   3.153   0.772  16.937 -0.9514  0.3895 -1.7651
 6359TIP3   OH240491   0.016   6.503   2.920  0.0453 -0.4777  0.6989
 6359TIP3    H140492  -0.031   6.421   2.937 -0.2484 -0.4793 -0.0849
 6359TIP3    H240493  -0.046   6.572   2.943 -0.6020 -0.4740 -0.9129
 6360TIP3   OH240494   6.264   2.290   0.337 -0.1721  0.3860  0.3498
 6360TIP3    H140495   6.328   2.352   0.372  0.6557 -0.5000  0.4614
 6360TIP3    H240496   6.275   2.212   0.392 -0.9857  0.0396  0.0296
 6361TIP3   OH240497   0.891   6.269  12.864 -0.0081 -0.0839  0.1133
 6361TIP3    H140498   0.887   6.214  12.943 -0.1691 -0.7299 -0.3332
 6361TIP3    H240499   0.907   6.357  12.897 -1.7125 -0.0694  0.9772
 6362TIP3   OH240500   0.621   6.703   3.354  0.2532  0.2342  0.4037
 6362TIP3    H140501   0.555   6.635   3.341 -1.2146  0.9507  3.2219
 6362TIP3    H240502   0.588   6.778   3.305  1.1889 -0.5741 -1.5899
 6363TIP3   OH240503   5.361   3.373  14.984  0.5893  0.0155 -0.4023
 6363TIP3    H140504   5.368   3.374  15.080 -1.1289  3.8042 -0.1295
 6363TIP3    H240505   5.310   3.295  14.964  2.5198 -1.8869  1.5037
 6364TIP3   OH240506   4.711   0.528   4.787 -0.1064  0.7846  0.0962
 6364TIP3    H140507   4.655   0.486   4.722 -0.0414  1.4700 -0.4110
 6364TIP3    H240508   4.683   0.620   4.787 -0.2823  0.7555  1.2208
 6365TIP3   OH240509   3.564   6.626  15.365 -0.0054 -0.0416  0.4993
 6365TIP3    H140510   3.547   6.555  15.303  2.7534  0.8044 -1.4497
 6365TIP3    H240511   3.522   6.702  15.326  0.1964  0.1181  0.5913
 6366TIP3   OH240512   2.026   4.509  14.283 -0.0289  0.3284  0.2887
 6366TIP3    H140513   2.117   4.531  14.302 -0.4036  0.9575  1.4632
 6366TIP3    H240514   2.000   4.449  14.353  0.1275 -1.7126 -1.3079
 6367TIP3   OH240515   6.494   2.115  11.652 -0.5662  0.0682  0.6733
 6367TIP3    H140516   6.566   2.157  11.699  1.0969 -1.5991 -0.2552
 6367TIP3    H240517   6.470   2.040  11.707 -1.9172  0.8200  1.1682
 6368TIP3   OH240518   6.757   5.440  12.209 -1.0785  0.0686  0.6076
 6368TIP3    H140519   6.779   5.413  12.298 -2.8126  1.4562  1.5385
 6368TIP3    H240520   6.805   5.522  12.197 -1.0414  0.0114  0.3629
 6369TIP3   OH240521   0.845   3.657   5.077  0.0003  0.0875 -0.1559
 6369TIP3    H140522   0.796   3.626   5.153  0.4034 -1.5124 -0.5161
 6369TIP3    H240523   0.884   3.578   5.039  1.6037  1.1136 -0.7605
 6370TIP3   OH240524   4.651   2.437  12.695  0.6897 -0.6558  0.1145
 6370TIP3    H140525   4.616   2.445  12.606 -1.5963 -1.5181  0.8564
 6370TIP3    H240526   4.741   2.407  12.682 -0.1029 -2.4477 -1.9273
 6371TIP3   OH240527   0.862   5.667  10.956  0.1741  0.6582 -0.3337
 6371TIP3    H140528   0.881   5.667  11.049 -0.7348 -0.6157 -0.1248
 6371TIP3    H240529   0.898   5.584  10.924 -0.0553  0.8044 -0.9948
 6372TIP3   OH240530   2.602   5.878   4.164  0.7907 -0.0194  0.0500
 6372TIP3    H140531   2.689   5.914   4.149  0.9603 -0.7937 -0.9838
 6372TIP3    H240532   2.544   5.932   4.111  1.1238 -1.5296 -1.9890
 6373TIP3   OH240533   2.807   4.299   3.505  0.1957 -0.5940  0.1783
 6373TIP3    H140534   2.881   4.341   3.550  0.2390  0.0918 -0.5206
 6373TIP3    H240535   2.734   4.307   3.566  0.0286  1.1285 -0.2106
 6374TIP3   OH240536   4.267   1.303   4.664 -0.4331 -0.7783 -0.1024
 6374TIP3    H140537   4.319   1.379   4.688  0.2491 -1.4376  0.5667
 6374TIP3    H240538   4.177   1.333   4.669 -0.1487  0.1499 -0.4411
 6375TIP3   OH240539   4.048   1.334  11.529 -0.0759 -0.3445  0.0190
 6375TIP3    H140540   3.987   1.360  11.460 -2.3392  1.8817  2.6407
 6375TIP3    H240541   4.117   1.400  11.526 -0.3149 -0.0915  0.0547
 6376TIP3   OH240542   1.239   0.574  16.281  0.6163 -0.4190 -0.3422
 6376TIP3    H140543   1.321   0.547  16.321 -0.1278 -1.7237  0.3333
 6376TIP3    H240544   1.175   0.511  16.311 -0.5118  0.1649 -1.4302
 6377TIP3   OH240545   0.694   5.850   2.766 -0.1297 -0.3642  0.0327
 6377TIP3    H140546   0.621   5.792   2.746  0.4246 -1.2773  0.6164
 6377TIP3    H240547   0.723   5.882   2.680 -0.7813 -0.5057 -0.2491
 6378TIP3   OH240548   0.612   2.924   2.872  0.7410  0.3947  0.0403
 6378TIP3    H140549   0.537   2.951   2.925  0.0355  0.8344 -1.1456
 6378TIP3    H240550   0.575   2.907   2.785  2.2879  2.5162 -1.1271
 6379TIP3   OH240551   1.057   2.934  13.138 -0.4780 -0.3991  0.3678
 6379TIP3    H140552   1.043   3.014  13.190 -0.5242 -0.7245  0.8637
 6379TIP3    H240553   1.099   2.965  13.058 -0.7805  0.1614  0.4207
 6380TIP3   OH240554   3.473   1.184   0.655 -0.2246 -0.3910 -0.0667
 6380TIP3    H140555   3.543   1.245   0.634  1.1300 -1.6994  0.4719
 6380TIP3    H240556   3.469   1.125   0.580 -0.9053 -0.2183 -0.1785
 6381TIP3   OH240557   2.418   5.851  14.435 -0.3781  0.6590 -0.1373
 6381TIP3    H140558   2.375   5.771  14.465 -0.8161  0.6542 -0.7616
 6381TIP3    H240559   2.420   5.907  14.512 -1.8647  0.8144 -0.1831
 6382TIP3   OH240560   1.853   5.639   0.690 -0.2672 -0.5143 -0.2821
 6382TIP3    H140561   1.895   5.701   0.750  3.7734 -0.5327 -2.7086
 6382TIP3    H240562   1.767   5.676   0.674 -0.4782  0.9348  3.2397
 6383TIP3   OH240563   1.282   6.365  13.627 -0.1961  0.1528  0.4645
 6383TIP3    H140564   1.376   6.356  13.614 -0.3294  0.3064 -0.7422
 6383TIP3    H240565   1.271   6.447  13.675  0.2637  0.3449  0.2413
 6384TIP3   OH240566   1.158   0.652   4.647 -0.2895  0.2348 -0.2613
 6384TIP3    H140567   1.226   0.717   4.665 -0.1810  0.4281 -1.2754
 6384TIP3    H240568   1.089   0.701   4.603 -1.9212  0.4113  2.2948
 6385TIP3   OH240569   4.236   0.597  14.099  0.5901 -0.0670  0.0356
 6385TIP3    H140570   4.325   0.583  14.130  0.3262  0.0251  0.8652
 6385TIP3    H240571   4.187   0.521  14.131  0.2946  0.0798 -0.0635
 6386TIP3   OH240572   0.843   3.931   4.735 -0.5069  0.0703  0.4284
 6386TIP3    H140573   0.914   3.904   4.676  0.6164  1.2968  1.1463
 6386TIP3    H240574   0.769   3.951   4.678 -1.0508 -3.2902 -0.2083
 6387TIP3   OH240575   0.147   2.462   4.834 -0.0472  0.2890  0.4878
 6387TIP3    H140576   0.108   2.440   4.749  0.9854 -1.1988  0.3500
 6387TIP3    H240577   0.235   2.493   4.812  0.1114  0.2034  0.9880
 6388TIP3   OH240578   6.584   1.368  13.254 -0.4373 -0.9251  0.0239
 6388TIP3    H140579   6.544   1.451  13.230  1.6453 -0.1738 -1.0117
 6388TIP3    H240580   6.567   1.359  13.348  0.4826  1.3605  0.4584
 6389TIP3   OH240581   4.545   2.331   2.737  0.4873  0.0873  0.2231
 6389TIP3    H140582   4.498   2.253   2.766 -0.4007  0.6538  0.3577
 6389TIP3    H240583   4.590   2.362   2.816 -0.1927  0.4197  0.4896
 6390TIP3   OH240584   1.992   6.209  13.380  0.1112 -0.6031 -0.1127
 6390TIP3    H140585   2.054   6.139  13.402  0.8178  0.2182  0.6118
 6390TIP3    H240586   2.047   6.288  13.375 -0.2191 -0.4670 -3.4891
 6391TIP3   OH240587   1.755   2.960  12.854  0.1048 -0.4857  0.4643
 6391TIP3    H140588   1.752   2.979  12.948 -1.5826  0.4383  0.2593
 6391TIP3    H240589   1.780   2.867  12.850 -2.6021 -1.4069  1.9819
 6392TIP3   OH240590   5.401   3.321  15.904  0.5353 -0.1204  0.1445
 6392TIP3    H140591   5.411   3.351  15.995  0.7614 -2.2753  0.8776
 6392TIP3    H240592   5.335   3.381  15.867  1.0705  1.3496  1.4399
 6393TIP3   OH240593   0.868   3.729   4.369  0.0290  0.2240  0.0823
 6393TIP3    H140594   0.943   3.696   4.420 -0.8286 -1.7339  0.1533
 6393TIP3    H240595   0.876   3.824   4.375  0.1581  0.1508  3.6904
 6394TIP3   OH240596   6.256   0.541  13.662 -0.3554 -0.3790  0.1468
 6394TIP3    H140597   6.288   0.527  13.573 -0.0672 -1.9577  0.4680
 6394TIP3    H240598   6.299   0.474  13.714 -0.6265  0.4309  1.4712
 6395TIP3   OH240599   5.938   4.989  12.412  0.2129  0.1920 -0.0705
 6395TIP3    H140600   5.914   5.062  12.470  2.6027  0.3571  0.7965
 6395TIP3    H240601   5.930   4.911  12.466  0.6129  0.1374 -0.0896
 6396TIP3   OH240602   5.134   1.626   1.474  0.7719  0.3905  0.0149
 6396TIP3    H140603   5.185   1.614   1.394  1.2260 -1.3892  0.5415
 6396TIP3    H240604   5.043   1.623   1.444  0.9366 -0.1347 -0.4561
 6397TIP3   OH240605   5.134   5.865   1.617 -0.5851 -0.0601 -0.0544
 6397TIP3    H140606   5.070   5.794   1.613 -0.4499 -0.1614 -0.4800
 6397TIP3    H240607   5.195   5.838   1.686 -1.8009  0.7245  1.3769
 6398TIP3   OH240608   4.915   4.085   4.225  0.7610  0.0287 -0.6990
 6398TIP3    H140609   4.890   4.092   4.133 -0.6140  1.2053 -0.2627
 6398TIP3    H240610   4.860   4.149   4.270  1.8494 -0.0849  0.8665
 6399TIP3   OH240611   2.783   1.186   4.878  0.1846  0.0478  0.1942
 6399TIP3    H140612   2.739   1.255   4.927 -0.2473 -0.4548  0.5144
 6399TIP3    H240613   2.764   1.106   4.926 -1.8916 -0.7716 -1.7947
 6400TIP3   OH240614   3.413   1.998   5.548  0.2711  0.1108  0.3924
 6400TIP3    H140615   3.368   1.918   5.520 -0.7022  0.3889  1.0866
 6400TIP3    H240616   3.490   1.968   5.595  0.1653 -0.4140  0.2379
 6401TIP3   OH240617   2.032   3.249   4.587  0.5278 -0.4299  0.0939
 6401TIP3    H140618   2.087   3.278   4.515  0.0655 -0.0119 -0.0947
 6401TIP3    H240619   1.943   3.255   4.553  0.3597 -0.9994  0.4318
 6402TIP3   OH240620   2.789   3.855  15.763  0.5770  0.4416  0.1844
 6402TIP3    H140621   2.780   3.760  15.753 -0.7603  0.7448 -2.1296
 6402TIP3    H240622   2.743   3.875  15.845 -0.4237 -0.7389 -0.0757
 6403TIP3   OH240623   2.025   5.130   2.093 -0.5878 -0.4884  0.1308
 6403TIP3    H140624   2.021   5.225   2.100 -1.0330 -0.4632 -0.4044
 6403TIP3    H240625   2.050   5.101   2.181  0.2444  0.1508  0.1160
 6404TIP3   OH240626   2.381   2.268  10.634  0.1072  0.4033  0.8333
 6404TIP3    H140627   2.466   2.247  10.596 -0.0301 -1.4751  1.4740
 6404TIP3    H240628   2.332   2.309  10.562  1.1997  0.5775  0.1738
 6405TIP3   OH240629   5.447   0.823  12.150 -0.5100 -0.1473  0.5826
 6405TIP3    H140630   5.360   0.786  12.146  0.2408 -1.9147 -0.4741
 6405TIP3    H240631   5.462   0.858  12.062 -0.1763  0.2047  0.7748
 6406TIP3   OH240632   5.845   3.992  10.551 -0.4625 -0.5614  0.6401
 6406TIP3    H140633   5.879   4.080  10.532 -0.6509 -0.1679  2.0092
 6406TIP3    H240634   5.863   3.942  10.471 -3.7487  1.6524 -1.7732
 6407TIP3   OH240635   6.339   3.596  16.200  0.3631 -0.5662  0.2629
 6407TIP3    H140636   6.303   3.578  16.287  1.6325  1.4629  1.2721
 6407TIP3    H240637   6.262   3.608  16.145 -0.4714 -2.1460  1.0189
 6408TIP3   OH240638   5.604   3.914   2.153  0.2460 -0.2809 -0.3086
 6408TIP3    H140639   5.686   3.872   2.125  0.1580 -0.4048 -0.3813
 6408TIP3    H240640   5.606   3.909   2.248  0.8430  0.7027 -0.2643
 6409TIP3   OH240641   5.371   2.298   3.346  0.1387 -0.7711  0.0589
 6409TIP3    H140642   5.281   2.286   3.375 -0.2721  0.4184 -0.6445
 6409TIP3    H240643   5.414   2.215   3.366 -0.2901 -0.3402  3.2702
 6410TIP3   OH240644   0.605   1.252   4.511 -0.1457 -0.1100  0.1968
 6410TIP3    H140645   0.556   1.205   4.579 -0.7529 -0.6150 -0.5729
 6410TIP3    H240646   0.655   1.185   4.467  1.8903  0.5021  1.4512
 6411TIP3   OH240647   5.521   1.651  14.070  0.1971 -0.3339 -0.6430
 6411TIP3    H140648   5.500   1.626  14.160  3.5550  0.5505  0.5319
 6411TIP3    H240649   5.439   1.639  14.022 -1.4436 -1.8703  2.2738
 6412TIP3   OH240650   4.337   4.701  14.209 -0.2093  0.3193  0.0744
 6412TIP3    H140651   4.263   4.645  14.186 -0.4752  0.9494 -0.6482
 6412TIP3    H240652   4.411   4.665  14.161 -0.1455 -0.0316  0.4320
 6413TIP3   OH240653   3.496   5.425  16.021  0.0838 -0.1088 -0.7036
 6413TIP3    H140654   3.450   5.455  16.100 -1.6042  2.5436 -2.5326
 6413TIP3    H240655   3.535   5.504  15.985  3.6578 -1.8036 -0.9070
 6414TIP3   OH240656   1.373   1.094   6.257  0.1053 -0.0401  0.6189
 6414TIP3    H140657   1.421   1.041   6.321  0.8838  1.2374  1.1374
 6414TIP3    H240658   1.429   1.170   6.243 -0.7052  0.3640 -0.5532
 6415TIP3   OH240659   0.247   4.191   5.281 -0.9382  0.3805  0.1588
 6415TIP3    H140660   0.238   4.135   5.203  0.1156 -0.0604  0.3319
 6415TIP3    H240661   0.293   4.269   5.249  1.3782 -0.6757  0.6648
 6416TIP3   OH240662   5.269   0.147   4.316 -0.2202  0.0444 -0.1985
 6416TIP3    H140663   5.224   0.208   4.258 -0.6354 -1.4964 -1.5593
 6416TIP3    H240664   5.359   0.146   4.283 -0.4012 -0.6544 -0.6880
 6417TIP3   OH240665   4.901   1.368  14.368 -0.2226 -0.0884  0.6740
 6417TIP3    H140666   4.835   1.370  14.438 -1.2868  0.9713 -0.3195
 6417TIP3    H240667   4.851   1.358  14.287  0.9279 -0.3903 -0.0268
 6418TIP3   OH240668   1.117   4.572   0.769 -0.7145  0.8188 -0.5972
 6418TIP3    H140669   1.104   4.555   0.676  0.3334  0.1633 -0.6356
 6418TIP3    H240670   1.043   4.528   0.812 -0.6546  0.2667 -1.0454
 6419TIP3   OH240671   3.557   6.107  12.598  0.2815  0.5006 -0.4686
 6419TIP3    H140672   3.650   6.086  12.588  0.3690  0.1064  0.9843
 6419TIP3    H240673   3.553   6.202  12.583  1.2043  0.8222  1.0566
 6420TIP3   OH240674   1.716   4.326  10.613  0.3852 -0.3106 -0.1845
 6420TIP3    H140675   1.801   4.344  10.573  0.1215  2.3806  0.2997
 6420TIP3    H240676   1.672   4.268  10.551  1.4990  0.5307 -1.8341
 6421TIP3   OH240677   0.741   6.656  16.367  0.0247  0.1812 -0.2935
 6421TIP3    H140678   0.785   6.596  16.428 -3.7314 -1.6871  0.8997
 6421TIP3    H240679   0.692   6.599  16.308 -1.7855  2.0376 -0.7011
 6422TIP3   OH240680   3.645   3.479   2.712  0.1053  0.3534 -0.4366
 6422TIP3    H140681   3.583   3.543   2.748 -0.5372  0.3561 -1.4892
 6422TIP3    H240682   3.730   3.505   2.748 -0.5605 -0.0347  1.5465
 6423TIP3   OH240683   6.331   6.494   1.671  0.1639 -0.2491  0.2323
 6423TIP3    H140684   6.380   6.470   1.750  0.5024  0.3908  0.2269
 6423TIP3    H240685   6.398   6.503   1.603 -0.2839 -2.3563 -0.5434
 6424TIP3   OH240686   5.184   3.195  14.811  0.6346 -1.3552  0.8482
 6424TIP3    H140687   5.110   3.134  14.815 -0.8481  0.2865  0.0993
 6424TIP3    H240688   5.193   3.215  14.718  0.1475  0.5575  1.1581
 6425TIP3   OH240689   2.589   2.980   5.557 -0.0266 -0.5119 -0.0967
 6425TIP3    H140690   2.563   2.901   5.510  1.8230 -0.9714 -0.4118
 6425TIP3    H240691   2.640   2.949   5.631 -1.3114  0.3093  1.1820
 6426TIP3   OH240692   6.144   0.490   1.280  0.2230 -0.1754 -0.0313
 6426TIP3    H140693   6.130   0.518   1.371  1.3293  0.2198  0.0304
 6426TIP3    H240694   6.135   0.395   1.283  1.5937 -0.3002  0.7707
 6427TIP3   OH240695   4.207   0.409  15.025  0.1253 -0.6248  0.5103
 6427TIP3    H140696   4.256   0.462  15.089  0.1790 -1.2716  1.0114
 6427TIP3    H240697   4.274   0.370  14.970  0.1002 -0.4216  0.3335
 6428TIP3   OH240698   4.677   5.321   5.523  0.5051 -0.3738 -0.2741
 6428TIP3    H140699   4.755   5.375   5.507  0.1298  0.3305  0.2366
 6428TIP3    H240700   4.637   5.359   5.601 -1.3265  0.3953 -1.5269
 6429TIP3   OH240701   5.498   4.567   6.696 -1.0521 -0.0937  0.2681
 6429TIP3    H140702   5.414   4.563   6.741 -1.0335 -0.8616  0.2548
 6429TIP3    H240703   5.551   4.500   6.739 -0.3427  0.5942  0.4821
 6430TIP3   OH240704   3.471   6.035  10.935  0.1867 -0.1142 -0.2569
 6430TIP3    H140705   3.489   6.122  10.970  0.1395  0.6160 -1.9644
 6430TIP3    H240706   3.527   5.977  10.986  0.6827  0.9855  0.4949
 6431TIP3   OH240707   4.779   3.797   0.210 -1.0021  0.4369  0.1418
 6431TIP3    H140708   4.736   3.712   0.203 -1.8411  0.7410  1.2504
 6431TIP3    H240709   4.785   3.813   0.305  0.4853  0.9497 -0.0216
 6432TIP3   OH240710   3.222   4.455  14.096 -0.4444  0.5317 -0.3579
 6432TIP3    H140711   3.282   4.502  14.038  1.0271 -1.2280 -0.3435
 6432TIP3    H240712   3.147   4.514  14.106  0.6665  2.2200 -1.4835
 6433TIP3   OH240713   1.747   5.032  16.429  0.5016 -0.2798 -0.4292
 6433TIP3    H140714   1.728   5.089  16.354 -0.7948 -1.2468 -0.8847
 6433TIP3    H240715   1.697   5.070  16.501 -2.5119 -2.1603 -1.3450
 6434TIP3   OH240716   5.734   0.379  11.239 -0.2730 -0.5679  0.2701
 6434TIP3    H140717   5.642   0.403  11.227 -0.1962 -0.6296 -0.4730
 6434TIP3    H240718   5.781   0.463  11.237 -0.1391 -0.6633 -1.0509
 6435TIP3   OH240719   1.318   1.687  16.295  0.1481 -0.1335 -0.4844
 6435TIP3    H140720   1.285   1.772  16.324 -1.3263 -0.5399 -0.8755
 6435TIP3    H240721   1.275   1.623  16.351 -0.0106 -0.7108 -1.2384
 6436TIP3   OH240722   4.082   4.038   3.939  0.3496  0.0924 -0.1927
 6436TIP3    H140723   4.049   3.988   4.013 -0.5002  0.0629 -0.5716
 6436TIP3    H240724   4.157   3.987   3.907 -0.0273 -0.5334 -0.0984
 6437TIP3   OH240725   4.109   3.296   0.998 -0.0181 -0.2221  0.3322
 6437TIP3    H140726   4.054   3.360   1.044 -0.9859 -0.0206 -1.0405
 6437TIP3    H240727   4.175   3.270   1.063 -0.7038  0.8042  1.4888
 6438TIP3   OH240728   5.339   5.015   1.630 -0.1386 -0.3185 -0.0672
 6438TIP3    H140729   5.304   4.983   1.547 -1.7760 -0.7983  0.7633
 6438TIP3    H240730   5.387   4.941   1.667 -0.2020 -0.3996 -0.1504
 6439TIP3   OH240731   3.335   4.374  13.643 -0.3825  0.2843 -0.4637
 6439TIP3    H140732   3.337   4.400  13.551 -0.8386 -0.7407 -0.7704
 6439TIP3    H240733   3.373   4.449  13.689  0.5455  0.5142 -1.5525
 6440TIP3   OH240734   4.832   3.150  16.726 -0.1292  0.2690 -0.1312
 6440TIP3    H140735   4.765   3.083  16.711  0.6989 -0.3746 -1.1865
 6440TIP3    H240736   4.838   3.157  16.821 -1.0492 -0.3167 -0.0095
 6441TIP3   OH240737   4.648   3.021  16.266 -0.2409 -0.0588 -0.4789
 6441TIP3    H140738   4.573   2.973  16.303 -0.5517  2.1360  2.0587
 6441TIP3    H240739   4.725   2.976  16.300 -0.4628 -0.3136 -0.3091
 6442TIP3   OH240740   3.698   1.915  15.404  0.4120 -0.1855 -0.3770
 6442TIP3    H140741   3.734   2.000  15.428  0.6600 -0.2289 -0.5975
 6442TIP3    H240742   3.675   1.923  15.312  4.0813 -1.5626 -1.5838
 6443TIP3   OH240743   0.232   5.896  15.025  0.1396  0.3342 -0.2217
 6443TIP3    H140744   0.260   5.952  15.098  0.0346 -0.5906  0.5550
 6443TIP3    H240745   0.162   5.946  14.982  0.1751  0.8805  0.3418
 6444TIP3   OH240746   5.874   5.016  13.346 -0.2600 -0.2003  0.0775
 6444TIP3    H140747   5.936   4.997  13.416 -1.3825  0.8251  1.4089
 6444TIP3    H240748   5.817   5.084  13.383 -2.3238 -1.2848 -0.9915
 6445TIP3   OH240749   3.100   0.997  15.019 -0.2695  0.1290 -0.8064
 6445TIP3    H140750   3.158   1.067  15.047 -0.6137 -0.3551  1.3130
 6445TIP3    H240751   3.103   0.933  15.090 -2.0348 -0.7357 -1.4341
 6446TIP3   OH240752   5.198   4.119  15.490 -0.1000 -0.0482 -0.0553
 6446TIP3    H140753   5.109   4.098  15.462 -0.2011  0.1917  0.0812
 6446TIP3    H240754   5.195   4.213  15.510  0.1747 -0.0469 -0.0201
 6447TIP3   OH240755   6.005   2.676   5.840  0.5127 -0.3358  0.2729
 6447TIP3    H140756   6.077   2.697   5.899  1.6480  0.0143 -1.1745
 6447TIP3    H240757   5.977   2.589   5.866  1.3769 -0.4241  0.9500
 6448TIP3   OH240758   4.061   2.181   0.357 -0.4697 -0.2017 -0.2689
 6448TIP3    H140759   4.018   2.114   0.304 -0.5816 -0.2876 -0.0706
 6448TIP3    H240760   4.005   2.190   0.434  0.6796 -1.4590  0.7627
 6449TIP3   OH240761   4.276   0.803   2.004  0.0448 -0.1118  0.1682
 6449TIP3    H140762   4.295   0.896   1.987  0.9392 -0.0558  1.3213
 6449TIP3    H240763   4.198   0.785   1.951  0.6423  0.9237 -1.1466
 6450TIP3   OH240764   5.682   2.046  15.754  0.0092  0.0012 -0.2745
 6450TIP3    H140765   5.591   2.061  15.727  0.4026 -0.2539 -1.8501
 6450TIP3    H240766   5.724   2.131  15.743 -0.2528  0.3922  1.4959
 6451TIP3   OH240767   3.847   0.214  15.922 -1.1011  0.0027  0.0271
 6451TIP3    H140768   3.767   0.251  15.959 -2.0595 -0.5012 -1.4233
 6451TIP3    H240769   3.837   0.119  15.931  0.3872 -0.0434  1.8340
 6452TIP3   OH240770   4.771   6.094  16.122 -0.4022 -0.2536  0.1478
 6452TIP3    H140771   4.723   6.173  16.094 -0.6402 -0.5173 -0.1994
 6452TIP3    H240772   4.737   6.075  16.209 -1.1676 -0.6203 -0.2174
 6453TIP3   OH240773   0.646   5.061   0.060  0.5402 -0.1956  0.1680
 6453TIP3    H140774   0.677   5.109   0.136 -2.0433  1.0755  0.5253
 6453TIP3    H240775   0.554   5.040   0.080  0.0338 -0.6006 -2.2169
 6454TIP3   OH240776   3.424   0.366   6.979 -0.1801  0.5403 -0.1709
 6454TIP3    H140777   3.419   0.277   6.943  0.4692  0.6969 -0.6760
 6454TIP3    H240778   3.451   0.420   6.905 -0.9386  1.2282  0.0422
 6455TIP3   OH240779   1.719   4.885  14.701 -0.7802  0.3959 -0.2812
 6455TIP3    H140780   1.698   4.798  14.667 -2.8327  0.1298  1.4426
 6455TIP3    H240781   1.641   4.911  14.750  0.5381  2.3638  0.9200
 6456TIP3   OH240782   1.820   1.886   3.023  0.4223  0.2488  0.3393
 6456TIP3    H140783   1.741   1.848   3.061 -0.1281 -0.9599 -1.8093
 6456TIP3    H240784   1.892   1.837   3.063 -0.0496 -0.2115  0.6380
 6457TIP3   OH240785   1.001   2.709   1.419 -0.5395  0.3886 -0.2700
 6457TIP3    H140786   1.020   2.797   1.451 -0.7400  0.2778  0.1505
 6457TIP3    H240787   1.082   2.660   1.433 -0.1665  0.6994 -1.2097
 6458TIP3   OH240788   5.492   4.475   2.396 -0.1636 -0.3890  0.1144
 6458TIP3    H140789   5.475   4.446   2.486  0.2239 -0.6744  0.0994
 6458TIP3    H240790   5.458   4.405   2.341 -1.8477  0.4922 -0.0331
 6459TIP3   OH240791   4.047   4.619  12.705 -0.0220 -0.0549 -0.0590
 6459TIP3    H140792   4.055   4.689  12.770 -1.2907  0.3999 -0.3564
 6459TIP3    H240793   3.953   4.607  12.695  0.1741 -1.4039 -0.4643
 6460TIP3   OH240794   6.513   2.562   5.557  0.4582  0.3125  0.0677
 6460TIP3    H140795   6.538   2.565   5.650 -2.6572  2.9703  1.0254
 6460TIP3    H240796   6.498   2.469   5.539  2.1367 -0.3863  1.8724
 6461TIP3   OH240797   2.498   1.585  11.619 -0.1547  0.0120 -0.2707
 6461TIP3    H140798   2.438   1.659  11.609 -2.9973 -2.4581 -3.8110
 6461TIP3    H240799   2.560   1.593  11.547 -0.5214 -1.0459 -0.7226
 6462TIP3   OH240800   1.598   2.017   2.350  0.5499 -0.1751  0.7343
 6462TIP3    H140801   1.664   2.079   2.382  1.3981 -0.5661 -0.1860
 6462TIP3    H240802   1.635   1.931   2.371 -0.7175 -0.4102  2.2028
 6463TIP3   OH240803   6.423   4.053  11.433  0.2294 -0.5860 -0.2669
 6463TIP3    H140804   6.368   4.119  11.390 -0.6098 -0.8210  0.4175
 6463TIP3    H240805   6.472   4.101  11.499  1.1821 -0.3019 -1.1626
 6464TIP3   OH240806   3.561   3.279  16.880 -0.1225 -0.0921  0.0726
 6464TIP3    H140807   3.631   3.310  16.823  0.3450 -0.7962  0.2649
 6464TIP3    H240808   3.504   3.228  16.822 -1.4383  1.8589 -0.4691
 6465TIP3   OH240809   2.969   5.841  11.451  0.7046  0.3219 -0.5244
 6465TIP3    H140810   2.968   5.843  11.547  0.5625  3.8328 -0.4672
 6465TIP3    H240811   3.024   5.766  11.430  1.8444  0.2083  2.3525
 6466TIP3   OH240812   2.196   1.846  15.168  0.3631  0.5181 -0.2568
 6466TIP3    H140813   2.142   1.790  15.112  0.0485 -1.1608  1.6191
 6466TIP3    H240814   2.171   1.935  15.144 -1.8481 -0.1828 -0.7781
 6467TIP3   OH240815   1.911   1.040  15.095 -0.0565 -0.4460 -0.0972
 6467TIP3    H140816   1.838   0.988  15.130 -0.1150 -0.2853  0.0256
 6467TIP3    H240817   1.944   0.989  15.021  0.7293 -1.2995  0.8104
 6468TIP3   OH240818   5.702   3.292  15.197 -0.1108  0.2770  0.5442
 6468TIP3    H140819   5.677   3.313  15.107 -1.0695 -0.9556  0.5007
 6468TIP3    H240820   5.779   3.235  15.188  0.7417  1.3889  0.5761
 6469TIP3   OH240821   1.855   4.806   2.490 -0.3707 -0.2513 -0.0491
 6469TIP3    H140822   1.862   4.804   2.394 -0.7472 -0.5211 -0.0743
 6469TIP3    H240823   1.878   4.718   2.517 -0.5270 -0.2506  0.0871
 6470TIP3   OH240824   2.704   1.049  11.487  0.1485 -0.4119 -0.4217
 6470TIP3    H140825   2.711   1.143  11.502  1.4430 -0.6407  0.4951
 6470TIP3    H240826   2.791   1.022  11.459 -0.2506 -1.3258 -0.8406
 6471TIP3   OH240827   2.138   3.391   4.797  0.3509  0.5123 -0.4884
 6471TIP3    H140828   2.067   3.343   4.753 -0.1805  0.8809 -0.0417
 6471TIP3    H240829   2.218   3.349   4.765 -0.1110 -1.0337  0.2993
 6472TIP3   OH240830   5.781   1.434  15.195  0.2851  0.6472  0.1809
 6472TIP3    H140831   5.711   1.499  15.191  0.4165  0.8576  1.1127
 6472TIP3    H240832   5.776   1.388  15.111 -2.0102 -0.4293  0.8361
 6473TIP3   OH240833   6.078   0.092  15.748  0.5310 -0.0765  0.2548
 6473TIP3    H140834   6.152   0.084  15.808  1.4564 -1.0824 -0.9900
 6473TIP3    H240835   6.045   0.003  15.738 -0.7731  0.3357  0.6614
 6474TIP3   OH240836   4.115   5.236   4.807  0.5386  0.5317  0.3129
 6474TIP3    H140837   4.102   5.311   4.748  1.8686 -1.3222 -2.5603
 6474TIP3    H240838   4.209   5.235   4.824  0.5591 -0.5184  0.1975
 6475TIP3   OH240839   2.933   4.479  16.607 -0.4542  0.3124 -0.2476
 6475TIP3    H140840   2.993   4.406  16.617  0.3711  1.2198  1.8707
 6475TIP3    H240841   2.913   4.481  16.513 -1.1809 -3.1012 -0.2948
 6476TIP3   OH240842   4.414   0.540  11.362 -0.4209  0.2385 -0.3004
 6476TIP3    H140843   4.446   0.587  11.285 -0.4731  1.7287  0.5553
 6476TIP3    H240844   4.472   0.568  11.432 -0.5876 -0.8422  0.2801
 6477TIP3   OH240845   2.501   6.584   1.951  0.0230 -0.3793  0.5324
 6477TIP3    H140846   2.509   6.514   2.015  0.9930 -1.2313 -0.4793
 6477TIP3    H240847   2.591   6.612   1.933 -0.3726  2.5459  2.3516
 6478TIP3   OH240848   6.598   2.569  12.929 -0.0449  0.0476 -0.0433
 6478TIP3    H140849   6.643   2.616  12.999 -1.0208  1.4513 -0.3263
 6478TIP3    H240850   6.569   2.637  12.869 -2.3209 -0.8048 -0.0040
 6479TIP3   OH240851   0.968   5.244   5.481  0.2003  0.2697 -0.0059
 6479TIP3    H140852   0.899   5.283   5.427 -0.4485 -1.1990 -0.2624
 6479TIP3    H240853   1.047   5.252   5.427 -0.2328 -0.1985 -0.7209
 6480TIP3   OH240854   6.205   1.105   6.010 -0.4246  0.1543 -0.4043
 6480TIP3    H140855   6.185   1.011   6.006  1.0077 -0.1918 -0.0054
 6480TIP3    H240856   6.161   1.135   6.090  0.4834 -0.5519  0.3900
 6481TIP3   OH240857   4.289   1.804   3.968  0.2774  0.2162  0.1530
 6481TIP3    H140858   4.194   1.795   3.958  0.3376 -1.4968  0.9276
 6481TIP3    H240859   4.303   1.811   4.062  0.9800 -0.1811  0.0816
 6482TIP3   OH240860   5.105   4.139  13.446 -0.5655 -0.2402 -0.2492
 6482TIP3    H140861   5.191   4.158  13.411 -0.1643 -0.7263  0.4427
 6482TIP3    H240862   5.106   4.176  13.534 -1.1903  0.0666 -0.3650
 6483TIP3   OH240863   1.566   2.881  11.952  0.4234 -0.3098 -0.7345
 6483TIP3    H140864   1.639   2.930  11.988 -0.5565 -0.0064  0.9285
 6483TIP3    H240865   1.571   2.896  11.857  1.7347  0.7390 -0.5222
 6484TIP3   OH240866   3.067   3.660   5.766 -0.2029 -0.3836 -0.1382
 6484TIP3    H140867   2.978   3.683   5.792 -0.1272 -0.1177 -0.1105
 6484TIP3    H240868   3.121   3.732   5.799  0.1631 -1.0499  0.7896
 6485TIP3   OH240869   5.182   3.725  14.941  0.2767  0.2133 -0.3804
 6485TIP3    H140870   5.118   3.789  14.910  0.4777  0.4760 -0.2553
 6485TIP3    H240871   5.137   3.640  14.934  0.2682  0.2855 -1.2440
 6486TIP3   OH240872   4.633   3.757   4.592  0.1132  0.1625 -0.2131
 6486TIP3    H140873   4.668   3.801   4.670 -1.5278 -1.4986  1.5706
 6486TIP3    H240874   4.542   3.737   4.614 -0.1571 -1.1258 -2.2275
 6487TIP3   OH240875   2.078   6.453  16.545  0.7039  0.0049  0.1826
 6487TIP3    H140876   2.093   6.421  16.456  0.2502 -0.0203  0.1124
 6487TIP3    H240877   2.000   6.508  16.538 -0.2760 -1.2473  0.8396
 6488TIP3   OH240878   1.121   2.578  11.692 -0.0134 -0.3489  0.1712
 6488TIP3    H140879   1.025   2.574  11.696 -0.1440  1.5686  0.3175
 6488TIP3    H240880   1.143   2.535  11.610 -0.9978 -0.8855  0.1698
 6489TIP3   OH240881   4.500   1.453  15.125  0.0237 -0.1943 -0.3428
 6489TIP3    H140882   4.471   1.372  15.083 -2.4454 -1.0241  2.6458
 6489TIP3    H240883   4.468   1.523  15.067 -3.4926 -1.2791  0.0679
 6490TIP3   OH240884   0.165   3.041  13.014 -0.1526 -0.0797  0.4906
 6490TIP3    H140885   0.222   2.965  13.023  0.3585  0.4029  1.6070
 6490TIP3    H240886   0.209   3.109  13.065 -1.0281  0.7106  0.2102
 6491TIP3   OH240887   0.322   6.213   3.877 -0.2715  0.4194  0.6798
 6491TIP3    H140888   0.408   6.231   3.916  0.4107 -1.5883  0.2381
 6491TIP3    H240889   0.338   6.213   3.783 -0.9858  0.9894  0.5515
 6492TIP3   OH240890   3.984   0.653  15.505  0.1449  0.2238 -0.4737
 6492TIP3    H140891   4.001   0.568  15.546  0.5375  0.7151  0.4206
 6492TIP3    H240892   4.054   0.663  15.441 -0.4703 -0.5532 -1.2926
 6493TIP3   OH240893   3.215   2.449  15.489  0.0118 -0.1705  0.2044
 6493TIP3    H140894   3.204   2.538  15.523  0.0377 -0.8038  1.9978
 6493TIP3    H240895   3.261   2.461  15.406 -0.5659  1.5209  0.0785
 6494TIP3   OH240896   4.349   4.914  13.147 -0.4256  0.3592  0.4680
 6494TIP3    H140897   4.294   4.979  13.103  0.9200 -0.6452 -2.9737
 6494TIP3    H240898   4.433   4.918  13.102  0.7252 -1.6511  2.2234
 6495TIP3   OH240899   3.346   0.249   2.518 -0.4309 -0.8448  0.2616
 6495TIP3    H140900   3.420   0.298   2.482 -1.7512 -0.1012 -1.5579
 6495TIP3    H240901   3.269   0.288   2.477 -1.9468 -1.0586  2.6990
 6496TIP3   OH240902   4.543   1.217  16.916 -0.2166  0.1611  0.1023
 6496TIP3    H140903   4.484   1.266  16.859 -0.7208 -0.4185  0.1136
 6496TIP3    H240904   4.609   1.180  16.857 -0.9387 -0.7297 -0.1625
 6497TIP3   OH240905   4.228   0.065   4.342  0.0012  0.4173  0.2682
 6497TIP3    H140906   4.164   0.089   4.410  1.0840  0.2182  1.3807
 6497TIP3    H240907   4.236  -0.030   4.349 -1.2036  0.1495 -1.3749
 6498TIP3   OH240908   2.870   2.714   6.673 -0.8959 -0.0415 -0.1614
 6498TIP3    H140909   2.781   2.680   6.665 -1.5532  1.8827 -1.7827
 6498TIP3    H240910   2.863   2.806   6.649  1.5489  0.1682 -0.3478
 6499TIP3   OH240911   2.101   6.167  14.465 -0.8059  0.1447 -0.1591
 6499TIP3    H140912   2.130   6.095  14.409  0.4693  1.0039 -0.6572
 6499TIP3    H240913   2.076   6.125  14.547  0.1677 -0.8430 -0.3423
 6500TIP3   OH240914   6.246   0.192  14.526  0.3960 -0.0115  0.0435
 6500TIP3    H140915   6.320   0.227  14.477 -0.6637 -0.5055 -2.0580
 6500TIP3    H240916   6.237   0.102  14.494 -1.8170  0.4000 -0.7059
 6501TIP3   OH240917   4.280   3.491   3.348  0.0292 -0.1299 -0.1483
 6501TIP3    H140918   4.274   3.430   3.275 -2.0469 -0.3467  0.1292
 6501TIP3    H240919   4.338   3.560   3.317  0.6811 -1.1455 -1.2828
 6502TIP3   OH240920   2.339   2.909   4.215 -0.2131  0.0261  0.5293
 6502TIP3    H140921   2.281   2.980   4.241  1.8386  1.9739  0.0960
 6502TIP3    H240922   2.427   2.941   4.234  1.0241 -0.9893 -2.7711
 6503TIP3   OH240923   2.780   1.028  15.128 -0.3975  0.1685  0.2257
 6503TIP3    H140924   2.789   1.063  15.040  2.6242  1.7282  1.0199
 6503TIP3    H240925   2.800   0.934  15.119 -0.3050  0.2768 -0.7729
 6504TIP3   OH240926   5.641   4.613   1.463 -0.0263  0.3886 -0.6611
 6504TIP3    H140927   5.634   4.546   1.395 -0.1442  0.2306 -0.4925
 6504TIP3    H240928   5.709   4.581   1.522 -0.4971  0.1276 -0.2534
 6505TIP3   OH240929   1.555   2.090   0.517  0.2374 -0.1813  0.1778
 6505TIP3    H140930   1.585   2.048   0.436 -0.2189 -0.5558  0.1981
 6505TIP3    H240931   1.599   2.042   0.587  1.3922  0.7512  0.1446
 6506TIP3   OH240932   0.780   3.412   2.156 -0.3053 -0.3486 -0.3725
 6506TIP3    H140933   0.810   3.492   2.113 -0.5022 -0.5091 -0.8175
 6506TIP3    H240934   0.787   3.431   2.250  2.1317 -0.7383 -0.4063
 6507TIP3   OH240935   1.281   1.606  13.985 -0.0938 -0.2862  0.1052
 6507TIP3    H140936   1.185   1.608  13.975 -0.2823  1.1766  1.7345
 6507TIP3    H240937   1.306   1.698  13.993  1.3935 -0.6829  0.2510
 6508TIP3   OH240938   4.633   1.662  16.285  0.1379 -0.5010 -0.2181
 6508TIP3    H140939   4.652   1.571  16.308  1.6163 -0.0360  0.5284
 6508TIP3    H240940   4.548   1.680  16.323  0.8599 -0.9053  1.6902
 6509TIP3   OH240941   0.150   4.155  16.448 -0.5496  0.8942 -0.5978
 6509TIP3    H140942   0.132   4.100  16.525  0.4336  1.3050 -0.0525
 6509TIP3    H240943   0.135   4.245  16.478 -3.0726  0.9495 -1.7436
 6510TIP3   OH240944   2.391   0.514   5.536  0.4164  0.1268  0.2403
 6510TIP3    H140945   2.478   0.531   5.499  0.0509 -1.5377 -1.5880
 6510TIP3    H240946   2.402   0.434   5.587 -0.5391 -1.8703 -2.4589
 6511TIP3   OH240947   5.647   2.424   4.101  0.1210 -0.0599 -0.0651
 6511TIP3    H140948   5.732   2.379   4.110  1.2905  2.0467  0.0049
 6511TIP3    H240949   5.613   2.395   4.017  1.2353 -0.4465 -0.4034
 6512TIP3   OH240950   3.334   5.960   3.243  0.0593  0.3726 -0.1935
 6512TIP3    H140951   3.428   5.941   3.236 -0.3040 -1.5117 -0.3005
 6512TIP3    H240952   3.298   5.885   3.290 -1.4192  1.0307 -0.2332
 6513TIP3   OH240953   4.034   1.185  16.714 -0.4403 -0.0286 -0.5966
 6513TIP3    H140954   4.021   1.251  16.646 -0.4421  0.9636  0.3395
 6513TIP3    H240955   4.077   1.232  16.786 -1.5033 -0.7350  0.5576
 6514TIP3   OH240956   3.828   0.334  10.623  0.1782  0.4414  0.4042
 6514TIP3    H140957   3.919   0.364  10.626  0.1031  0.6896  0.2341
 6514TIP3    H240958   3.818   0.298  10.535  0.1557  0.2731  0.4757
 6515TIP3   OH240959   0.183   3.621  12.461 -0.1782 -0.1199  0.0177
 6515TIP3    H140960   0.146   3.695  12.509  1.4791 -0.7719  2.5040
 6515TIP3    H240961   0.153   3.544  12.510 -1.2943 -1.1243 -2.1026
 6516TIP3   OH240962   6.611   5.151  11.451 -0.2938  0.0204  0.9273
 6516TIP3    H140963   6.650   5.177  11.535  0.8517  0.4381  0.2856
 6516TIP3    H240964   6.556   5.224  11.426  1.0594  0.8624  0.2882
 6517TIP3   OH240965   5.298   4.376   3.178  0.2123 -0.2038 -1.2243
 6517TIP3    H140966   5.259   4.300   3.135  1.5324 -0.5753 -1.8184
 6517TIP3    H240967   5.357   4.340   3.243  1.2958  0.2877 -1.9108
 6518TIP3   OH240968   0.827   6.485   5.343 -0.1695 -0.0416  0.2603
 6518TIP3    H140969   0.910   6.440   5.359  1.0521  1.2151 -1.9443
 6518TIP3    H240970   0.760   6.419   5.357  1.3231 -1.5787  0.4062
 6519TIP3   OH240971   3.510   5.755   0.489  0.2082  0.5171 -0.1166
 6519TIP3    H140972   3.508   5.797   0.404 -1.2931 -0.2852 -0.5110
 6519TIP3    H240973   3.431   5.700   0.491  1.0409 -0.7209  1.1406
 6520TIP3   OH240974   2.098   2.212  12.760  0.6636 -0.8276 -0.4310
 6520TIP3    H140975   2.098   2.268  12.683  1.6308 -0.8966 -0.5033
 6520TIP3    H240976   2.007   2.210  12.790  0.2593 -0.8869 -1.6221
 6521TIP3   OH240977   2.615   5.589   3.278 -0.0529  0.6605  0.2604
 6521TIP3    H140978   2.522   5.597   3.256  0.7864  2.7679 -3.3269
 6521TIP3    H240979   2.660   5.586   3.194  3.3577  3.4302  1.7113
 6522TIP3   OH240980   6.405   2.875   2.732 -0.3403 -0.1817 -0.3064
 6522TIP3    H140981   6.317   2.909   2.750 -0.0613 -0.2939  1.4518
 6522TIP3    H240982   6.390   2.783   2.707 -0.7658 -0.0043 -0.7183
 6523TIP3   OH240983   6.371   3.104   1.187  0.5864  0.0606 -0.5300
 6523TIP3    H140984   6.308   3.176   1.195  0.6934  0.0748  0.2684
 6523TIP3    H240985   6.318   3.028   1.162  0.2299  0.0658  0.1686
 6524TIP3   OH240986   0.321   3.314  15.164 -0.0250 -0.3898  0.2427
 6524TIP3    H140987   0.243   3.288  15.115  0.1420 -3.0213  1.2100
 6524TIP3    H240988   0.391   3.259  15.130  0.5334 -0.8412  2.0056
 6525TIP3   OH240989   5.281   5.261   0.065 -0.1771  0.0406  0.0373
 6525TIP3    H140990   5.192   5.237   0.092  0.0626  0.7495  1.5645
 6525TIP3    H240991   5.333   5.182   0.082  0.0246  0.5666  2.0391
 6526TIP3   OH240992   5.456   2.780  13.525 -0.0248 -0.3578  0.1480
 6526TIP3    H140993   5.477   2.709  13.585  1.6715  0.6014  0.7452
 6526TIP3    H240994   5.381   2.824  13.565  0.0694 -0.7176  0.7241
 6527TIP3   OH240995   2.629   2.746   2.482  0.2605 -0.1695 -0.0347
 6527TIP3    H140996   2.661   2.749   2.392  1.0254  0.4303  0.2477
 6527TIP3    H240997   2.708   2.739   2.536 -0.0665  1.1761  0.6692
 6528TIP3   OH240998   5.757   5.011   6.516 -0.3602  0.0128 -0.2952
 6528TIP3    H140999   5.844   4.971   6.516  0.4625  1.7151  0.4564
 6528TIP3    H241000   5.698   4.939   6.540  1.0628 -0.7291  1.1759
 6529TIP3   OH241001   3.012   1.842  14.474  0.1610 -0.6352  0.1735
 6529TIP3    H141002   2.969   1.925  14.454  0.7867 -0.5192 -0.8032
 6529TIP3    H241003   3.071   1.827  14.399  0.6933 -1.5268  0.7459
 6530TIP3   OH241004   6.082   4.697   4.180 -0.1271  0.1091  0.0989
 6530TIP3    H141005   6.044   4.781   4.155  0.3266  0.0484 -0.8398
 6530TIP3    H241006   6.175   4.716   4.197 -0.2951  0.0326  1.1768
 6531TIP3   OH241007   6.550   5.624  15.073 -0.7938 -0.0115 -0.0572
 6531TIP3    H141008   6.572   5.702  15.125  0.1286  1.1076 -1.9964
 6531TIP3    H241009   6.516   5.659  14.991 -1.8499 -1.7109 -0.3960
 6532TIP3   OH241010   2.100   3.695  14.612 -0.1665 -0.1315 -0.0359
 6532TIP3    H141011   2.066   3.769  14.562 -1.5330 -0.9422 -0.3454
 6532TIP3    H241012   2.093   3.621  14.552  3.3300 -0.2130 -0.6042
 6533TIP3   OH241013   1.251   5.268  15.700  0.1873  0.5150 -0.2549
 6533TIP3    H141014   1.297   5.258  15.783 -0.8582 -1.4477  0.1492
 6533TIP3    H241015   1.171   5.316  15.722 -0.5723 -0.8693  0.0984
 6534TIP3   OH241016   5.570   1.237  12.122  0.1602 -0.1542 -0.8957
 6534TIP3    H141017   5.638   1.170  12.120 -0.2944 -0.6340 -0.6718
 6534TIP3    H241018   5.593   1.293  12.196  0.3959 -0.2210 -0.9182
 6535TIP3   OH241019   2.908   3.484   2.944 -0.4024 -0.2857  0.0166
 6535TIP3    H141020   2.867   3.539   2.878 -0.5176  1.0708  1.1599
 6535TIP3    H241021   2.979   3.439   2.898  0.7417  2.0603 -0.6822
 6536TIP3   OH241022   4.660   4.075  11.811 -0.1491  0.2330 -0.1931
 6536TIP3    H141023   4.695   4.078  11.722 -1.3658 -0.5596 -0.7241
 6536TIP3    H241024   4.652   3.982  11.831  2.6842  0.3139  1.8533
 6537TIP3   OH241025   3.811   3.052  13.036 -0.0559  0.2239 -0.2460
 6537TIP3    H141026   3.787   3.142  13.016 -3.0110 -0.0487  1.5015
 6537TIP3    H241027   3.805   3.006  12.953  0.3116  1.3912 -0.9326
 6538TIP3   OH241028   1.493   5.211  15.562 -0.0114 -0.1530 -0.7836
 6538TIP3    H141029   1.547   5.273  15.611  2.0216 -1.8612 -0.7303
 6538TIP3    H241030   1.406   5.218  15.603  0.3782  1.9348 -0.1773
 6539TIP3   OH241031   1.789   3.593  16.114 -0.0484 -0.0258 -0.3797
 6539TIP3    H141032   1.836   3.673  16.091 -0.3293  0.3254  0.2158
 6539TIP3    H241033   1.697   3.614  16.099 -0.1792 -0.0071  0.4048
 6540TIP3   OH241034   3.533   5.942   0.261  0.1024  0.5342 -0.7601
 6540TIP3    H141035   3.441   5.960   0.280 -0.0385 -2.0794  1.6845
 6540TIP3    H241036   3.531   5.883   0.186 -0.2242  0.4412 -0.6782
 6541TIP3   OH241037   1.360   6.202  14.035  0.0386 -0.2084 -0.0451
 6541TIP3    H141038   1.411   6.178  13.958  0.6334 -2.0612  0.8783
 6541TIP3    H241039   1.269   6.196  14.007  0.2546 -0.7375 -0.6487
 6542TIP3   OH241040   0.552   6.159  17.022 -0.1956 -0.0893 -0.4036
 6542TIP3    H141041   0.568   6.086  16.963 -1.9822 -1.1263  0.3089
 6542TIP3    H241042   0.639   6.184  17.053  0.5261 -1.4243 -1.2418
 6543TIP3   OH241043   2.827   1.803  16.506 -0.0634 -0.4831 -0.3167
 6543TIP3    H141044   2.781   1.727  16.542 -1.1803  0.7644  1.0176
 6543TIP3    H241045   2.839   1.781  16.413 -1.6143 -1.7039 -0.2831
 6544TIP3   OH241046   3.456   5.770   3.527  0.3286  0.1547 -0.7390
 6544TIP3    H141047   3.381   5.724   3.489  0.9378 -1.2674 -0.2662
 6544TIP3    H241048   3.420   5.816   3.603  0.1833 -1.8733  0.4953
 6545TIP3   OH241049   4.018   0.720   6.399  0.5685 -0.2168  0.3689
 6545TIP3    H141050   4.054   0.632   6.410  1.4519  0.1217  0.3088
 6545TIP3    H241051   4.085   0.766   6.349 -0.7332 -0.0450 -1.2763
 6546TIP3   OH241052   0.352   1.780  11.251 -0.1882  0.6689 -0.6782
 6546TIP3    H141053   0.295   1.733  11.312 -0.7016 -0.1501 -1.7516
 6546TIP3    H241054   0.435   1.789  11.299 -0.2775 -0.7727 -0.1781
 6547TIP3   OH241055   4.600   3.135   4.320  0.1931 -0.3107 -0.8161
 6547TIP3    H141056   4.533   3.124   4.387  0.2842 -1.1426 -0.8552
 6547TIP3    H241057   4.551   3.150   4.239  0.0609  2.8656 -0.2899
 6548TIP3   OH241058   2.027   4.316  13.447 -0.4137 -0.0748 -0.0487
 6548TIP3    H141059   1.937   4.328  13.415 -0.8650 -2.7397 -0.0325
 6548TIP3    H241060   2.068   4.259  13.383  0.2539 -1.4171  1.4996
 6549TIP3   OH241061   3.205   6.507  15.058 -0.1337 -0.2097 -0.6955
 6549TIP3    H141062   3.283   6.492  15.004  0.4229  0.7390 -0.1771
 6549TIP3    H241063   3.181   6.421  15.090  0.8463 -0.4867 -0.6754
 6550TIP3   OH241064   2.988   2.992   0.199 -0.4907 -0.1724 -0.1995
 6550TIP3    H141065   2.940   2.928   0.250  2.2346 -1.8082  0.5117
 6550TIP3    H241066   2.929   3.014   0.126 -2.6660 -1.1898  1.1546
 6551TIP3   OH241067   0.184   0.387  11.007  0.1633  0.2320 -0.0993
 6551TIP3    H141068   0.223   0.414  10.924 -0.4487 -1.1732 -0.8893
 6551TIP3    H241069   0.258   0.356  11.059  0.5628  1.2028 -0.0654
 6552TIP3   OH241070   2.349   6.103  13.174  0.2078  0.0067 -0.2076
 6552TIP3    H141071   2.415   6.129  13.111 -0.1833  1.5425 -0.0246
 6552TIP3    H241072   2.366   6.157  13.251  1.5186 -2.7504  1.6093
 6553TIP3   OH241073   1.733   1.307   6.312  0.1184  0.7146 -0.3583
 6553TIP3    H141074   1.654   1.360   6.318  0.7536  2.0221 -2.4024
 6553TIP3    H241075   1.798   1.355   6.365  0.0651  0.7205 -0.2988
 6554TIP3   OH241076   3.261   6.699  12.513  0.6870  0.4230  0.8466
 6554TIP3    H141077   3.349   6.663  12.520  0.3127 -0.5995  0.4770
 6554TIP3    H241078   3.261   6.749  12.432  0.6555 -0.3837  0.3428
 6555TIP3   OH241079   1.801   5.252   5.293 -0.1312  0.3431  0.1759
 6555TIP3    H141080   1.891   5.222   5.308  0.2598  1.5219  0.3408
 6555TIP3    H241081   1.772   5.282   5.379 -1.1404 -1.1336  0.3857
 6556TIP3   OH241082   5.814   3.032   3.798  0.6284 -0.0393 -0.7762
 6556TIP3    H141083   5.800   3.022   3.892 -1.4611 -0.4193 -1.0741
 6556TIP3    H241084   5.859   2.952   3.772  0.5952 -0.2495 -0.2069
 6557TIP3   OH241085   5.373   0.092  12.795 -0.5390 -0.1445 -0.0986
 6557TIP3    H141086   5.428   0.103  12.873 -1.0327 -0.6038  0.3262
 6557TIP3    H241087   5.397   0.165  12.738  1.6079 -1.1335 -0.5978
 6558TIP3   OH241088   1.352   3.877  12.302 -0.0144 -0.1427 -0.5437
 6558TIP3    H141089   1.442   3.897  12.326 -0.5288  0.5383  0.9167
 6558TIP3    H241090   1.359   3.832  12.217  1.5082  1.9678 -1.6255
 6559TIP3   OH241091   1.654   0.116   1.915 -0.2449 -0.3803  0.6464
 6559TIP3    H141092   1.688   0.036   1.955 -1.0584 -0.7554  0.6111
 6559TIP3    H241093   1.568   0.130   1.956 -0.7411 -0.3258 -0.3608
 6560TIP3   OH241094   0.910   2.476   3.000 -0.9899  0.0497  0.0059
 6560TIP3    H141095   0.993   2.441   3.032 -0.8936  0.4219  0.1708
 6560TIP3    H241096   0.848   2.457   3.071 -0.8934  0.3965  0.1822
 6561TIP3   OH241097   2.765   3.243  15.652 -0.1969 -0.0926  0.7206
 6561TIP3    H141098   2.853   3.219  15.679 -0.2395 -0.1542  0.8081
 6561TIP3    H241099   2.739   3.173  15.591 -0.9076 -1.1461  2.1708
 6562TIP3   OH241100   0.168   3.168  14.493  0.1903  0.0236  0.1450
 6562TIP3    H141101   0.186   3.079  14.465 -1.4618  0.5400 -3.0040
 6562TIP3    H241102   0.252   3.202  14.524  0.7119 -2.7362  2.0914
 6563TIP3   OH241103   5.919   2.097   0.496  0.0926  0.6369  0.1336
 6563TIP3    H141104   5.985   2.063   0.436  1.2860  0.4072  1.5142
 6563TIP3    H241105   5.931   2.192   0.494 -1.1828  0.8180 -1.3988
 6564TIP3   OH241106   6.335   2.970  12.424  0.4198 -0.5289  0.7213
 6564TIP3    H141107   6.296   2.896  12.471 -0.9837  1.1950  2.4462
 6564TIP3    H241108   6.387   3.016  12.491 -1.1047  1.6262  0.5207
 6565TIP3   OH241109   6.642   6.790  13.082  0.7730 -0.3578  0.0985
 6565TIP3    H141110   6.601   6.773  12.998 -0.1250 -0.0347  0.4526
 6565TIP3    H241111   6.702   6.862  13.066 -0.0504  0.3076 -0.0968
 6566TIP3   OH241112   6.765   6.083   5.860  0.2072 -0.7654  0.6275
 6566TIP3    H141113   6.825   6.067   5.933 -0.6095 -0.5069  1.3753
 6566TIP3    H241114   6.749   6.178   5.863  0.0349 -0.7806  0.2114
 6567TIP3   OH241115   2.079   0.285  11.275 -0.3891  0.3107  0.1764
 6567TIP3    H141116   2.124   0.274  11.359  0.0422 -0.0044 -0.0930
 6567TIP3    H241117   2.073   0.197  11.239  0.8146  0.5963 -0.8237
 6568TIP3   OH241118   2.762   3.954   1.541 -0.2282  0.2190  0.0153
 6568TIP3    H141119   2.850   3.934   1.573 -0.2709  0.8009  0.5174
 6568TIP3    H241120   2.727   3.869   1.514  0.5702  0.0168 -0.4119
 6569TIP3   OH241121   6.622   4.083   2.119 -0.1635 -0.6484 -0.2392
 6569TIP3    H141122   6.590   3.993   2.106 -1.0554 -0.1063 -2.0976
 6569TIP3    H241123   6.681   4.076   2.194 -0.6961 -2.6658  0.0661
 6570TIP3   OH241124   5.100   2.565  12.408 -0.8237  0.4158 -0.2531
 6570TIP3    H141125   5.072   2.623  12.479  2.4607  2.0986 -0.1509
 6570TIP3    H241126   5.085   2.616  12.328 -0.4513  0.2964 -0.3978
 6571TIP3   OH241127   2.330   3.280   3.242  0.1980  0.1839 -0.0174
 6571TIP3    H141128   2.348   3.186   3.243  1.3088  0.3434  2.0895
 6571TIP3    H241129   2.235   3.287   3.257  0.0719 -0.6025 -0.4271
 6572TIP3   OH241130   4.687   6.500  15.690 -0.5306  1.1086  0.5182
 6572TIP3    H141131   4.714   6.541  15.608 -1.0987 -0.6967 -0.6084
 6572TIP3    H241132   4.592   6.505  15.689 -0.6077 -0.0577  0.4205
 6573TIP3   OH241133   1.710   5.418   1.983 -0.2215 -0.3081 -0.4942
 6573TIP3    H141134   1.620   5.445   2.003 -0.2636  0.6113 -1.7605
 6573TIP3    H241135   1.703   5.370   1.900  0.3652 -0.8550 -0.2298
 6574TIP3   OH241136   6.665   4.942  11.730 -0.1548  0.3095 -0.2879
 6574TIP3    H141137   6.745   4.916  11.777 -0.2857  2.7401  1.4902
 6574TIP3    H241138   6.594   4.916  11.789 -0.4498  1.3421 -0.1706
 6575TIP3   OH241139   3.578   0.780   2.109  0.0782  0.6889 -0.3094
 6575TIP3    H141140   3.639   0.712   2.138 -0.2117  0.7279  0.4216
 6575TIP3    H241141   3.545   0.818   2.190 -0.7457  0.8242 -0.7006
 6576TIP3   OH241142   1.663   1.607  11.987 -0.5823 -0.1186  1.0762
 6576TIP3    H141143   1.669   1.689  11.939 -0.0693  0.5063  2.1708
 6576TIP3    H241144   1.707   1.542  11.932 -1.0550  0.3206  0.1738
 6577TIP3   OH241145   2.098   5.007   3.173  0.0391 -0.3388 -0.2990
 6577TIP3    H141146   2.036   5.046   3.111  0.0084 -1.4658 -0.9893
 6577TIP3    H241147   2.042   4.970   3.241  0.0972  2.0850  1.2081
 6578TIP3   OH241148   6.285   5.234  13.742 -0.1984 -0.0347  0.0080
 6578TIP3    H141149   6.370   5.270  13.769  0.2784 -0.9106 -0.2728
 6578TIP3    H241150   6.280   5.254  13.648  0.3045 -1.1106 -0.2664
 6579TIP3   OH241151   4.706   5.049  11.813 -0.5627 -0.2855  0.6643
 6579TIP3    H141152   4.641   5.002  11.761  1.1479 -3.6215  1.2381
 6579TIP3    H241153   4.752   5.104  11.750 -1.9693 -0.1706 -0.3018
 6580TIP3   OH241154   1.187   1.239  14.412 -0.2705 -0.0562 -0.0069
 6580TIP3    H141155   1.129   1.276  14.346 -2.3632 -0.1535  1.6965
 6580TIP3    H241156   1.129   1.200  14.477  1.7552 -1.8718  0.8412
 6581TIP3   OH241157   4.304   5.644  17.025  0.1540 -0.1567  0.1004
 6581TIP3    H141158   4.236   5.585  16.992 -1.6554  1.7717  0.1237
 6581TIP3    H241159   4.315   5.618  17.116 -2.0326  0.6543  0.6746
 6582TIP3   OH241160   4.811   3.343   5.960 -0.6082 -0.0157 -0.2969
 6582TIP3    H141161   4.722   3.311   5.973 -0.4563 -0.2403  0.2251
 6582TIP3    H241162   4.812   3.429   6.000 -0.9485  0.5623 -1.4822
 6583TIP3   OH241163   2.690   3.623   4.704 -0.1558  0.1473 -0.2779
 6583TIP3    H141164   2.616   3.682   4.690 -0.0167  0.3339 -0.2377
 6583TIP3    H241165   2.765   3.682   4.713 -0.0215 -0.0363 -0.2041
 6584TIP3   OH241166   1.769   3.835   4.817  0.2681  0.2434 -0.0972
 6584TIP3    H141167   1.846   3.778   4.820  0.0529 -0.0201  0.5693
 6584TIP3    H241168   1.695   3.774   4.808 -0.0532  0.3191  1.6766
 6585TIP3   OH241169   5.047   5.207  13.598 -0.1356  0.4450 -0.4309
 6585TIP3    H141170   5.013   5.126  13.561  1.9945 -0.5922 -0.2785
 6585TIP3    H241171   5.083   5.182  13.683  1.3668  1.3132 -0.7596
 6586TIP3   OH241172   5.089   2.718   1.237  0.3640 -0.2448  0.3270
 6586TIP3    H141173   5.129   2.753   1.317  1.3824  0.3074 -0.4055
 6586TIP3    H241174   5.163   2.693   1.182 -0.3248 -0.4812 -0.5084
 6587TIP3   OH241175   4.709   6.176   0.907  0.5980 -0.1563 -0.2929
 6587TIP3    H141176   4.655   6.171   0.829 -0.1855 -0.8248  0.2824
 6587TIP3    H241177   4.759   6.094   0.907  2.1085  0.7199 -1.1543
 6588TIP3   OH241178   3.166   0.938   5.434  0.5243  0.2554  0.1849
 6588TIP3    H141179   3.095   0.982   5.480 -0.7445  0.4499 -1.8329
 6588TIP3    H241180   3.175   0.987   5.352  2.8061  0.0541  0.2441
 6589TIP3   OH241181   6.694   4.796   3.115 -0.4094 -0.5026 -0.4386
 6589TIP3    H141182   6.662   4.882   3.089 -0.8479 -0.6264 -0.3239
 6589TIP3    H241183   6.789   4.802   3.107 -0.3561  0.3471  0.6273
 6590TIP3   OH241184   1.827   1.338  13.201 -0.2380 -0.3474 -0.3882
 6590TIP3    H141185   1.762   1.306  13.263  0.2722 -0.0518  0.3172
 6590TIP3    H241186   1.860   1.419  13.240 -0.8472  0.5758 -1.6875
 6591TIP3   OH241187   3.561   1.360  16.163 -0.2198  0.1079 -1.1915
 6591TIP3    H141188   3.560   1.288  16.226 -0.0822  0.5692 -0.6595
 6591TIP3    H241189   3.477   1.405  16.177  0.1327  0.6594 -0.8087
 6592TIP3   OH241190   0.170   0.760  16.370  0.2183  0.0733 -0.3261
 6592TIP3    H141191   0.111   0.833  16.351 -0.4836 -0.4460 -0.1763
 6592TIP3    H241192   0.129   0.714  16.443  1.7756  0.7974  1.0628
 6593TIP3   OH241193   3.625   6.485   2.791 -0.5490 -0.1240  0.2940
 6593TIP3    H141194   3.667   6.545   2.853 -1.1586  0.2221  0.3825
 6593TIP3    H241195   3.573   6.427   2.846  0.9869 -1.5466  0.3132
 6594TIP3   OH241196   6.798   3.417   4.815 -0.1512 -0.0748  0.1120
 6594TIP3    H141197   6.732   3.391   4.750 -2.2907 -0.7779  2.4126
 6594TIP3    H241198   6.755   3.403   4.899  2.4425  0.9626  1.7130
 6595TIP3   OH241199   6.053   1.172   4.399 -0.1337  0.4573 -0.2227
 6595TIP3    H141200   6.119   1.239   4.377  0.5600  0.4579  1.6740
 6595TIP3    H241201   6.013   1.150   4.315  0.4947  2.3383 -1.0865
 6596TIP3   OH241202   4.565   0.588  14.512  0.2132  0.0790 -1.2589
 6596TIP3    H141203   4.620   0.568  14.588 -0.2380  1.0402 -0.6555
 6596TIP3    H241204   4.588   0.678  14.488 -0.3957  0.1511 -1.5960
 6597TIP3   OH241205   5.424   5.659   4.001 -0.2216  0.3031  0.3825
 6597TIP3    H141206   5.349   5.666   4.060 -0.9411 -0.8339 -0.3380
 6597TIP3    H241207   5.385   5.640   3.915  0.8792 -0.3034 -0.0088
 6598TIP3   OH241208   0.037   6.738  16.861 -0.6375 -0.5494 -0.1338
 6598TIP3    H141209  -0.041   6.709  16.813 -1.2772  0.2388  0.3934
 6598TIP3    H241210   0.083   6.794  16.798 -0.5585 -0.9072 -0.4021
 6599TIP3   OH241211   6.321   4.772   2.661 -0.8117 -0.4469 -0.0299
 6599TIP3    H141212   6.401   4.806   2.700 -0.3158 -1.0871 -0.4436
 6599TIP3    H241213   6.321   4.808   2.572 -1.1494 -0.1904  0.0748
 6600TIP3   OH241214   5.999   0.489  14.803 -0.1063  0.1749  0.3540
 6600TIP3    H141215   6.091   0.512  14.819 -0.6233  2.5660  0.2281
 6600TIP3    H241216   6.000   0.394  14.795  2.1592  0.0116  1.6058
 6601TIP3   OH241217   1.618   0.807  12.816 -0.6227 -0.6694 -0.3838
 6601TIP3    H141218   1.540   0.834  12.863  0.0600  0.3671  0.1848
 6601TIP3    H241219   1.593   0.809  12.724 -0.9833  0.6500 -0.2738
 6602TIP3   OH241220   4.702   0.334   0.776 -0.3970 -0.2665  0.2253
 6602TIP3    H141221   4.638   0.373   0.835  0.3612  2.2862 -0.5290
 6602TIP3    H241222   4.781   0.386   0.788  0.8574 -1.8844 -0.5510
 6603TIP3   OH241223   1.691   4.373   6.057  0.1575 -0.1446 -0.2160
 6603TIP3    H141224   1.779   4.379   6.020 -0.6454 -0.6194 -2.3662
 6603TIP3    H241225   1.691   4.434   6.131  2.1550  0.1651 -0.4288
 6604TIP3   OH241226   5.955   6.766  16.391 -0.4495  0.4983  0.4706
 6604TIP3    H141227   5.999   6.838  16.346 -0.9282  0.3475 -0.2637
 6604TIP3    H241228   5.938   6.799  16.479  0.5178  0.7972  0.5541
 6605TIP3   OH241229   0.374   0.840   2.454  0.1016  0.6032  0.1838
 6605TIP3    H141230   0.313   0.906   2.486  1.1185  1.9387 -0.5241
 6605TIP3    H241231   0.324   0.792   2.388 -0.3966  1.2754  0.0560
 6606TIP3   OH241232   2.096   1.622  15.577  0.0177  0.1767  0.3155
 6606TIP3    H141233   2.098   1.550  15.640  2.6379  0.8378  1.1088
 6606TIP3    H241234   2.173   1.608  15.522  1.4594  3.0059  1.3808
 6607TIP3   OH241235   2.657   2.871  15.186  0.3553 -0.2599  0.5256
 6607TIP3    H141236   2.637   2.831  15.101  1.1223  1.1036 -0.3100
 6607TIP3    H241237   2.639   2.801  15.249  1.4484 -1.8703 -0.8670
 6608TIP3   OH241238   2.890   5.303  13.744  0.5317  0.5181 -0.2229
 6608TIP3    H141239   2.951   5.234  13.715  0.1394  0.3589 -0.6673
 6608TIP3    H241240   2.911   5.378  13.689 -1.3727 -0.2965 -2.1838
 6609TIP3   OH241241   2.056   6.301   4.960 -0.2873  0.4308 -0.0786
 6609TIP3    H141242   2.088   6.211   4.962 -1.0411  0.1543 -0.0420
 6609TIP3    H241243   2.134   6.355   4.973  0.0529 -0.2389  0.6991
 6610TIP3   OH241244   6.224   5.900   4.698 -0.3531 -0.1772 -0.0629
 6610TIP3    H141245   6.275   5.921   4.776  0.6362 -1.9891 -0.1937
 6610TIP3    H241246   6.134   5.892   4.730  0.0979 -1.2743  0.9820
 6611TIP3   OH241247   5.367   3.274   3.113 -0.0841  0.2898  0.2043
 6611TIP3    H141248   5.320   3.356   3.101 -1.9568 -0.8949 -1.2218
 6611TIP3    H241249   5.328   3.234   3.191  0.3932  0.4574  0.5351
 6612TIP3   OH241250   1.948   6.720  17.045  0.3151 -0.2477 -0.2857
 6612TIP3    H141251   1.862   6.733  17.084 -0.9713 -2.3120 -2.2484
 6612TIP3    H241252   2.009   6.730  17.118 -1.6486  0.1337  1.3803
 6613TIP3   OH241253   0.597   2.207  12.004  0.2564 -0.5429  0.3725
 6613TIP3    H141254   0.534   2.243  12.067  1.4322 -1.3483  2.0884
 6613TIP3    H241255   0.642   2.284  11.969 -1.7718  0.0610 -1.0583
 6614TIP3   OH241256   0.638   1.302  10.688 -0.5576 -0.3444  0.1292
 6614TIP3    H141257   0.548   1.330  10.704 -0.9765 -1.1011 -0.8718
 6614TIP3    H241258   0.671   1.365  10.624 -0.7081 -0.6747 -0.2746
 6615TIP3   OH241259   2.517   1.198  14.970  0.1168 -0.4304 -0.1967
 6615TIP3    H141260   2.522   1.196  14.874  1.1573 -0.4042 -0.1512
 6615TIP3    H241261   2.608   1.208  14.999 -0.2951  0.7463  0.7690
 6616TIP3   OH241262   5.676   5.059   4.722  0.0710  0.3418 -0.2137
 6616TIP3    H141263   5.680   5.142   4.770  1.1029 -0.1156  0.5365
 6616TIP3    H241264   5.597   5.017   4.755 -0.0760  0.7198 -0.0730
 6617TIP3   OH241265   4.171   5.157  11.203 -0.4537 -0.2213 -0.4505
 6617TIP3    H141266   4.178   5.232  11.143 -1.5314  0.5856  0.3949
 6617TIP3    H241267   4.079   5.156  11.230 -0.4300 -1.7928 -0.3447
 6618TIP3   OH241268   3.743   0.536  11.459  0.0851  0.1037 -0.1390
 6618TIP3    H141269   3.690   0.606  11.498 -0.5422 -0.9868  1.0280
 6618TIP3    H241270   3.684   0.493  11.397  0.7272  1.0946 -1.4957
 6619TIP3   OH241271   6.589   3.535  15.090 -0.1030  0.1878 -0.4367
 6619TIP3    H141272   6.494   3.538  15.102 -0.2272 -1.2492 -0.8783
 6619TIP3    H241273   6.623   3.508  15.176 -0.0900  0.6021 -0.3077
 6620TIP3   OH241274   6.640   4.300  14.736  0.2144 -0.2496 -0.1262
 6620TIP3    H141275   6.598   4.317  14.820  0.4952 -0.6221  0.0941
 6620TIP3    H241276   6.649   4.387  14.695  0.6958  0.0116  0.5256
 6621TIP3   OH241277   3.946   2.312  16.824  0.2683 -0.5538  0.0079
 6621TIP3    H141278   3.976   2.327  16.913  0.2595  1.6946 -0.3193
 6621TIP3    H241279   4.023   2.278  16.778  1.1089  0.9642  0.2377
 6622TIP3   OH241280   4.683   5.628   6.387  0.2304 -1.0037 -0.0617
 6622TIP3    H141281   4.762   5.574   6.388  0.0645 -1.2424  0.3649
 6622TIP3    H241282   4.611   5.567   6.376  0.0541 -0.8617  0.2544
 6623TIP3   OH241283   6.139   3.155  16.105  0.3437 -0.4968  0.1111
 6623TIP3    H141284   6.156   3.072  16.059  1.8055 -0.0665 -0.1637
 6623TIP3    H241285   6.143   3.221  16.036 -0.6502 -0.1581  0.3620
 6624TIP3   OH241286   5.754   0.464   1.365 -0.5633  0.3204 -0.3873
 6624TIP3    H141287   5.684   0.527   1.349  0.1971  1.4013  0.4088
 6624TIP3    H241288   5.787   0.442   1.278 -0.6424  1.2490 -0.6604
 6625TIP3   OH241289   3.607   4.014   5.915 -0.1578 -0.1098  0.4980
 6625TIP3    H141290   3.656   4.047   5.990  1.6749  0.1581 -0.7698
 6625TIP3    H241291   3.593   3.921   5.934 -2.0779  0.4537  2.3449
 6626TIP3   OH241292   0.515   0.811   3.288 -0.4180  0.5269  0.2739
 6626TIP3    H141293   0.607   0.790   3.272 -0.8871 -1.4406 -0.0229
 6626TIP3    H241294   0.466   0.742   3.244 -1.9775 -0.0321  2.6724
 6627TIP3   OH241295   0.631   5.279  13.828  0.1649  0.6799 -0.6456
 6627TIP3    H141296   0.625   5.252  13.920  0.8463  2.5743 -0.0115
 6627TIP3    H241297   0.724   5.286  13.811  0.0210  1.5102 -1.1209
 6628TIP3   OH241298   1.885   4.222  14.971  0.0295 -0.4219  0.4084
 6628TIP3    H141299   1.831   4.143  14.965  1.1544 -1.0966 -2.1199
 6628TIP3    H241300   1.844   4.273  15.040 -0.1375 -3.6387  2.9369
 6629TIP3   OH241301   2.234   1.848   2.558 -0.8973  0.5124  0.4836
 6629TIP3    H141302   2.293   1.895   2.500 -0.2353  0.6301  1.2400
 6629TIP3    H241303   2.197   1.915   2.614  0.9320  0.0571  2.3527
 6630TIP3   OH241304   2.171   3.597  15.895 -0.2988 -0.3489  0.1033
 6630TIP3    H141305   2.223   3.628  15.821  0.3872 -1.5817  0.0302
 6630TIP3    H241306   2.223   3.621  15.972 -0.2300 -0.4703  0.0948
 6631TIP3   OH241307   5.397   1.797  14.863 -0.0691  0.1218 -0.0699
 6631TIP3    H141308   5.330   1.733  14.888  2.3401 -1.8241  1.8343
 6631TIP3    H241309   5.431   1.765  14.779  0.2307 -0.3564  0.2314
 6632TIP3   OH241310   2.067   3.565   3.498  0.5664 -0.3721 -0.5137
 6632TIP3    H141311   1.992   3.509   3.514  0.2015 -0.0987 -1.1946
 6632TIP3    H241312   2.083   3.557   3.404  0.0807  1.1487 -0.7676
 6633TIP3   OH241313   3.825   1.107   2.019  0.1331 -0.6124  0.0384
 6633TIP3    H141314   3.750   1.069   1.972  0.9762 -0.8142 -1.1943
 6633TIP3    H241315   3.861   1.171   1.958  2.1377 -1.9192 -0.2277
 6634TIP3   OH241316   5.090   3.492   4.227  0.2328 -0.4586  0.0143
 6634TIP3    H141317   5.012   3.515   4.175  1.4965  0.7443 -1.4685
 6634TIP3    H241318   5.079   3.542   4.308 -0.6039 -0.3881 -0.1291
 6635TIP3   OH241319   3.131   0.217  16.894 -0.2851 -0.5243  0.0010
 6635TIP3    H141320   3.221   0.226  16.864 -0.5406  1.2740 -0.3453
 6635TIP3    H241321   3.138   0.174  16.980  0.7219 -2.1278 -0.8247
 6636TIP3   OH241322   4.519   2.681  15.881  0.2035 -0.1619 -0.2773
 6636TIP3    H141323   4.570   2.641  15.810  1.2560 -1.0618  0.9441
 6636TIP3    H241324   4.567   2.761  15.903  0.7793 -0.7058  0.4763
 6637TIP3   OH241325   2.421   2.750   2.629  0.0458 -0.0924  0.4947
 6637TIP3    H141326   2.411   2.655   2.638 -1.5093  0.0126  0.1920
 6637TIP3    H241327   2.495   2.761   2.570  0.7528 -1.0919  1.1700
 6638TIP3   OH241328   3.021   0.077  14.015  0.3656 -0.4778  0.0135
 6638TIP3    H141329   2.937   0.046  14.049  0.5199 -2.3064 -1.1563
 6638TIP3    H241330   3.030   0.034  13.930  2.2177  0.1423 -0.1400
 6639TIP3   OH241331   5.500   5.163  11.624  0.1686 -0.5365  0.5085
 6639TIP3    H141332   5.490   5.249  11.663  1.0890 -0.6706  1.0528
 6639TIP3    H241333   5.584   5.131  11.656  2.0890  0.2150 -3.1787
 6640TIP3   OH241334   1.566   1.630   2.183  0.0005  0.3423 -0.9645
 6640TIP3    H141335   1.610   1.581   2.253  0.6696  1.5586 -0.5119
 6640TIP3    H241336   1.505   1.688   2.228 -0.3069  0.4102 -1.4593
 6641TIP3   OH241337   1.198   4.440  14.133  0.8432 -0.0472 -0.3982
 6641TIP3    H141338   1.223   4.384  14.059 -1.1237 -0.7388 -0.5781
 6641TIP3    H241339   1.172   4.523  14.093 -0.1608 -0.4004 -0.4975
 6642TIP3   OH241340   2.636   4.176  15.880  0.3078 -0.3788 -0.1206
 6642TIP3    H141341   2.574   4.214  15.818 -0.2926 -0.3093  0.5044
 6642TIP3    H241342   2.716   4.228  15.869  0.3631 -0.6533 -1.1358
 6643TIP3   OH241343   1.806   2.174  15.992 -0.2349  0.6388 -0.0366
 6643TIP3    H141344   1.810   2.079  15.979  1.3935  0.9029 -1.9702
 6643TIP3    H241345   1.898   2.202  15.991 -0.7126  2.2910  0.0404
 6644TIP3   OH241346   6.548   5.645   1.831  0.3639 -0.2515  0.1826
 6644TIP3    H141347   6.613   5.615   1.768  0.8310  1.4006 -0.1643
 6644TIP3    H241348   6.469   5.595   1.808  0.5578  0.1861 -1.6295
 6645TIP3   OH241349   4.240   4.587  11.284  0.0571  0.4474  0.4753
 6645TIP3    H141350   4.153   4.548  11.286  0.0654  0.3815 -0.0669
 6645TIP3    H241351   4.266   4.596  11.375  0.1571 -1.0423  0.6081
 6646TIP3   OH241352   1.684   6.270  12.775 -0.4143  0.2075  1.3475
 6646TIP3    H141353   1.670   6.361  12.751 -1.1096 -0.5597 -1.5282
 6646TIP3    H241354   1.606   6.246  12.825 -0.3837  1.0572  1.8246
 6647TIP3   OH241355   6.568   0.865   3.461  0.0650  0.1313 -0.1612
 6647TIP3    H141356   6.627   0.927   3.504  0.7663 -1.0988  0.7508
 6647TIP3    H241357   6.492   0.917   3.435  0.4229  1.2740  0.9664
 6648TIP3   OH241358   3.250   3.898   0.092  0.5352  0.3271 -0.3182
 6648TIP3    H141359   3.294   3.940   0.018  1.3644  0.9327  0.5002
 6648TIP3    H241360   3.318   3.846   0.135  0.2116  0.4590  0.3686
 6649TIP3   OH241361   0.560   4.738  11.586 -0.1038  0.0461  0.4563
 6649TIP3    H141362   0.642   4.690  11.569 -0.8295 -0.7161 -1.0850
 6649TIP3    H241363   0.588   4.828  11.600  1.1028 -0.4045  1.2435
 6650TIP3   OH241364   6.640   6.609   3.573 -0.0346  0.1662  0.2282
 6650TIP3    H141365   6.611   6.644   3.657 -1.0717 -0.4075  0.1311
 6650TIP3    H241366   6.627   6.514   3.580 -1.4503  0.2168 -1.0213
 6651TIP3   OH241367   6.607   2.226  12.586  0.2737 -0.0498  0.1044
 6651TIP3    H141368   6.546   2.240  12.513  0.8707  0.9879 -0.2167
 6651TIP3    H241369   6.659   2.306  12.589  1.2587 -0.6964  0.7286
 6652TIP3   OH241370   6.701   4.015  10.705  0.4323 -0.5480 -0.1325
 6652TIP3    H141371   6.652   3.950  10.655  0.5494  0.6951 -1.9436
 6652TIP3    H241372   6.634   4.061  10.757 -0.0643 -0.1789 -1.0826
 6653TIP3   OH241373   3.041   5.862  16.945 -0.5616  0.0409  0.0125
 6653TIP3    H141374   3.113   5.851  16.884 -0.2722  0.0238  0.3565
 6653TIP3    H241375   2.985   5.928  16.905 -0.7482 -0.4842 -0.6178
 6654TIP3   OH241376   5.228   5.583   5.923 -0.3814 -0.0417  0.5514
 6654TIP3    H141377   5.274   5.666   5.914  1.8945 -1.2887 -0.2307
 6654TIP3    H241378   5.182   5.590   6.007 -0.0639  1.8930  0.6116
 6655TIP3   OH241379   0.928   2.601  14.820 -0.3048 -0.3686  0.5800
 6655TIP3    H141380   0.997   2.581  14.883 -0.6731 -0.8639  0.8338
 6655TIP3    H241381   0.913   2.695  14.829  2.2292  0.3717 -1.3932
 6656TIP3   OH241382   2.386   4.100  11.048  0.2641 -0.1144  0.2291
 6656TIP3    H141383   2.372   4.044  10.971 -0.0451  0.4398 -0.1318
 6656TIP3    H241384   2.363   4.188  11.017  3.1990  0.6895 -0.0028
 6657TIP3   OH241385   5.297   0.636  10.346  0.1028  0.1212 -0.4521
 6657TIP3    H141386   5.350   0.561  10.321 -0.9883 -0.3812 -1.3145
 6657TIP3    H241387   5.358   0.710  10.344  0.6956 -0.3718 -1.7890
 6658TIP3   OH241388   0.366   0.682  12.677  0.4752 -0.3445 -0.0084
 6658TIP3    H141389   0.406   0.602  12.645 -0.0938 -0.2145 -1.0669
 6658TIP3    H241390   0.438   0.727  12.723  0.6778 -1.6582  1.0338
 6659TIP3   OH241391   0.508   5.460  11.550 -0.4362 -0.4755  0.0460
 6659TIP3    H141392   0.533   5.550  11.568 -1.2345 -0.5387  1.5904
 6659TIP3    H241393   0.544   5.442  11.463  0.5264  1.0182  0.1077
 6660TIP3   OH241394   5.092   4.744   5.545 -0.1629 -0.7427 -0.8275
 6660TIP3    H141395   5.087   4.689   5.467 -1.5750 -0.8396 -0.6869
 6660TIP3    H241396   5.168   4.711   5.593 -0.5685 -2.1146 -1.0850
 6661TIP3   OH241397   0.275   2.601   0.826 -0.3386 -0.3961 -0.3215
 6661TIP3    H141398   0.257   2.628   0.916  0.1975 -1.2273  0.0483
 6661TIP3    H241399   0.224   2.661   0.772 -0.1987  0.5034  0.5144
 6662TIP3   OH241400   1.303   4.456  11.932  0.3185  0.3614 -0.6001
 6662TIP3    H141401   1.290   4.412  12.016 -0.0068 -0.7197 -1.1886
 6662TIP3    H241402   1.228   4.429  11.879  0.6983  0.7357 -1.3462
 6663TIP3   OH241403   6.541   3.791   5.329  0.6617 -0.0654 -0.1788
 6663TIP3    H141404   6.532   3.876   5.373  1.9887 -0.3290  0.6691
 6663TIP3    H241405   6.479   3.734   5.375 -0.2304  0.4285 -0.7457
 6664TIP3   OH241406   3.129   3.319  13.559  0.2100  0.3779  0.4065
 6664TIP3    H141407   3.180   3.373  13.498  0.7827  0.2182  0.7443
 6664TIP3    H241408   3.039   3.352  13.549  0.2541  0.2149 -0.6728
 6665TIP3   OH241409   2.581   4.869   1.641 -0.0328  0.4843 -0.1452
 6665TIP3    H141410   2.530   4.950   1.648 -0.5377  0.4941 -2.8493
 6665TIP3    H241411   2.640   4.884   1.566  2.2992 -0.4419  1.3765
 6666TIP3   OH241412   4.336   1.020  14.667  0.3057 -0.3594 -0.7035
 6666TIP3    H141413   4.295   0.969  14.598  0.4434 -1.1385 -0.2166
 6666TIP3    H241414   4.385   0.956  14.719  1.2456  0.3955 -0.6258
 6667TIP3   OH241415   6.695   4.362   4.394  0.1555  0.1599  0.2562
 6667TIP3    H141416   6.763   4.429   4.391  0.8026 -0.5065 -0.6369
 6667TIP3    H241417   6.686   4.333   4.304 -0.5096 -0.5634  0.5419
 6668TIP3   OH241418   3.126   4.605   5.989  0.2789 -0.3589  0.2769
 6668TIP3    H141419   3.154   4.515   6.007  1.3702  0.1335  1.0643
 6668TIP3    H241420   3.069   4.628   6.062  3.5657  1.1280  2.5879
 6669TIP3   OH241421   3.206   2.618   4.243  0.2352  0.0402  0.4135
 6669TIP3    H141422   3.182   2.653   4.329  0.1276  1.6699 -0.2564
 6669TIP3    H241423   3.193   2.691   4.183 -0.2822 -1.2547 -1.0971
 6670TIP3   OH241424   4.624   0.244   4.064  0.5370  0.0340  0.1242
 6670TIP3    H141425   4.681   0.296   4.121  0.0439 -0.6037  1.2368
 6670TIP3    H241426   4.587   0.177   4.122 -2.0847  0.9839 -0.3132
 6671TIP3   OH241427   3.611   2.187  11.250 -0.3285 -0.0502 -0.0898
 6671TIP3    H141428   3.606   2.282  11.238 -0.0863  0.1784  1.4635
 6671TIP3    H241429   3.553   2.152  11.182 -0.3038  1.1871 -0.7868
 6672TIP3   OH241430   1.990   4.916  14.712  0.3074 -0.5321  0.5443
 6672TIP3    H141431   1.895   4.912  14.701  0.4287  0.2697 -1.0473
 6672TIP3    H241432   2.021   4.831  14.683  0.3102  0.3419 -2.2696
 6673TIP3   OH241433   3.254   1.732  16.177 -0.0513  0.1682  0.1100
 6673TIP3    H141434   3.221   1.726  16.088 -1.1589 -0.8174  0.5540
 6673TIP3    H241435   3.293   1.819  16.183  0.0573  0.2392 -1.3261
 6674TIP3   OH241436   1.312   6.758  12.737 -0.2825 -0.5762  0.3205
 6674TIP3    H141437   1.361   6.767  12.818 -0.2752 -3.0240  0.6557
 6674TIP3    H241438   1.275   6.670  12.740  0.9081 -1.3626 -2.9633
 6675TIP3   OH241439   4.752   4.159  13.542  0.2420 -0.4600 -0.0290
 6675TIP3    H141440   4.821   4.107  13.501  1.1810  1.4523 -1.0044
 6675TIP3    H241441   4.725   4.107  13.618  1.5736 -2.0398 -0.5729
 6676TIP3   OH241442   2.215   2.608   0.599 -0.1045  0.1848 -0.3314
 6676TIP3    H141443   2.258   2.530   0.631  1.2351  0.6423 -0.9610
 6676TIP3    H241444   2.209   2.596   0.504 -0.1886  0.6985 -0.3986
 6677TIP3   OH241445   1.997   1.607  13.234  0.2787  0.2037  0.1015
 6677TIP3    H141446   2.055   1.682  13.219  1.5349 -0.7109  0.1924
 6677TIP3    H241447   2.022   1.573  13.320 -0.3784 -0.2235  0.1347
 6678TIP3   OH241448   6.781   1.060   3.538 -0.1155 -0.0500 -0.0864
 6678TIP3    H141449   6.843   1.109   3.593 -0.1751 -1.8757  1.7609
 6678TIP3    H241450   6.826   1.050   3.454  0.6287  1.5820  0.0828
 6679TIP3   OH241451   6.218   0.872  16.944 -0.0922  0.2114  0.2079
 6679TIP3    H141452   6.250   0.919  16.867  1.2163  0.9801  1.1921
 6679TIP3    H241453   6.261   0.914  17.018  0.8415 -2.2656  1.1841
 6680TIP3   OH241454   0.518   4.781  15.039  0.5087 -0.0263  0.1458
 6680TIP3    H141455   0.447   4.806  14.981 -0.1094  1.1794  1.3524
 6680TIP3    H241456   0.591   4.758  14.981 -0.8208 -1.2301 -1.1090
 6681TIP3   OH241457   4.586   4.112   4.578  0.1362  0.1557 -0.7673
 6681TIP3    H141458   4.599   4.200   4.543 -1.1055  0.7321  0.1302
 6681TIP3    H241459   4.646   4.057   4.527 -0.0225  1.2856 -2.2519
 6682TIP3   OH241460   0.425   3.416   3.511  0.2338 -0.0208  0.3051
 6682TIP3    H141461   0.437   3.415   3.606  0.8559  3.3164  0.3693
 6682TIP3    H241462   0.508   3.383   3.477 -0.0088 -1.2883  0.8540
 6683TIP3   OH241463   0.611   6.576   2.123  0.5690 -0.5478 -0.3279
 6683TIP3    H141464   0.578   6.549   2.037 -0.2669 -2.7128  0.5827
 6683TIP3    H241465   0.645   6.495   2.162 -1.0346 -0.1437  2.1928
 6684TIP3   OH241466   3.020   4.470   4.476  0.0761 -0.0649 -0.2593
 6684TIP3    H141467   3.061   4.497   4.558 -2.6908 -2.2113  2.0700
 6684TIP3    H241468   3.071   4.395   4.446 -1.9202 -2.9785  2.8190
 6685TIP3   OH241469   5.228   5.772  15.111 -0.4971  0.3802 -0.1470
 6685TIP3    H141470   5.152   5.783  15.055  0.0968 -0.8432 -1.2443
 6685TIP3    H241471   5.243   5.859  15.148 -2.6057  0.5678  0.3824
 6686TIP3   OH241472   6.492   4.172  16.934  0.2370  0.6566 -0.0987
 6686TIP3    H141473   6.478   4.079  16.952 -2.3573  1.2957  1.6591
 6686TIP3    H241474   6.538   4.173  16.850 -0.5244 -2.1859 -0.6536
 6687TIP3   OH241475   0.947   2.624   5.076 -0.1952 -0.3064 -0.2212
 6687TIP3    H141476   0.870   2.628   5.019 -0.2122  0.7929 -0.1503
 6687TIP3    H241477   1.019   2.650   5.019 -0.2944  1.3847  0.3625
 6688TIP3   OH241478   6.696   1.622  16.407  0.1305 -0.0841 -0.4063
 6688TIP3    H141479   6.689   1.530  16.432 -1.5012 -0.2871 -1.5203
 6688TIP3    H241480   6.752   1.622  16.330  0.7410 -0.0414  0.0274
 6689TIP3   OH241481   0.713   1.183  14.291  0.6864  0.2972 -0.2137
 6689TIP3    H141482   0.780   1.116  14.309  1.0997  0.3291 -1.5519
 6689TIP3    H241483   0.728   1.250  14.358 -0.3368 -1.3290  1.7462
 6690TIP3   OH241484   3.731   5.966   1.380  0.7064 -0.1827  1.1754
 6690TIP3    H141485   3.765   5.945   1.467  1.4134  0.2579  1.0182
 6690TIP3    H241486   3.691   6.052   1.390  0.7810 -0.1355  1.0729
 6691TIP3   OH241487   4.378   1.691   5.357  0.1265  0.5016 -0.0239
 6691TIP3    H141488   4.430   1.738   5.423 -1.9003  0.3141  1.8047
 6691TIP3    H241489   4.437   1.623   5.325  1.2277  0.6833  1.5005
 6692TIP3   OH241490   4.307   3.551   5.096 -0.1857  0.1405 -0.1008
 6692TIP3    H141491   4.261   3.467   5.093 -0.4172  0.2331  0.6077
 6692TIP3    H241492   4.316   3.577   5.004  0.7266 -1.1068 -0.3950
 6693TIP3   OH241493   4.190   3.596   1.793  0.2929  0.0260 -0.3554
 6693TIP3    H141494   4.116   3.623   1.738  0.3611  0.4673 -0.2347
 6693TIP3    H241495   4.261   3.578   1.731  0.2060 -0.0022 -0.4465
 6694TIP3   OH241496   6.032   2.952   2.184  0.4055  0.0759  0.2157
 6694TIP3    H141497   5.971   2.988   2.248  0.2506 -0.0912  0.1646
 6694TIP3    H241498   6.110   3.006   2.191  0.1088  0.5313  0.0153
 6695TIP3   OH241499   6.308   2.767   3.728 -0.6008  0.0486 -0.0730
 6695TIP3    H141500   6.265   2.683   3.709 -1.5467 -0.0078  1.9802
 6695TIP3    H241501   6.250   2.833   3.691 -0.5053 -0.1685 -0.6081
 6696TIP3   OH241502   5.553   6.573   2.407  0.0238 -0.2459  0.2741
 6696TIP3    H141503   5.636   6.619   2.421 -0.3186  0.2646  0.6442
 6696TIP3    H241504   5.526   6.600   2.319  0.4761 -0.7804 -0.0374
 6697TIP3   OH241505   5.896   6.117  11.769  0.1292  0.0034 -0.0535
 6697TIP3    H141506   5.839   6.181  11.811 -0.4014  0.0403 -0.8089
 6697TIP3    H241507   5.862   6.032  11.798  0.9355  0.0377  1.0837
 6698TIP3   OH241508   0.713   2.996  10.922 -0.1035  0.4389  0.0192
 6698TIP3    H141509   0.752   2.914  10.953  0.2097  0.9491  1.0036
 6698TIP3    H241510   0.643   2.968  10.863  0.0576 -0.5344  0.2660
 6699TIP3   OH241511   3.184   6.303  13.480  0.4750  0.7226  0.6970
 6699TIP3    H141512   3.214   6.285  13.391 -0.5094  0.4201  0.4149
 6699TIP3    H241513   3.105   6.250  13.490  0.6656  0.6153  1.8132
 6700TIP3   OH241514   6.445   5.483   3.485  0.0533  0.6264  0.6956
 6700TIP3    H141515   6.360   5.512   3.520  0.0545  0.5870  0.7311
 6700TIP3    H241516   6.486   5.563   3.452 -0.0610  0.6233  0.5442
 6701TIP3   OH241517   0.557   3.525   3.777 -0.2175 -0.1356 -0.0463
 6701TIP3    H141518   0.485   3.503   3.837  1.8014  0.8507  2.9293
 6701TIP3    H241519   0.580   3.615   3.799  1.4624 -0.1729 -1.4634
 6702TIP3   OH241520   6.621   6.352  11.919 -0.0587  0.5882 -0.2228
 6702TIP3    H141521   6.613   6.362  11.824  0.3930 -3.0455 -0.8103
 6702TIP3    H241522   6.693   6.410  11.944 -0.0998  1.5025 -2.0920
 6703TIP3   OH241523   3.696   3.007  13.283 -0.0334  0.2660 -0.0363
 6703TIP3    H141524   3.760   3.021  13.213  2.5165  2.0903  2.4068
 6703TIP3    H241525   3.704   3.085  13.338 -3.0045 -0.3844  1.4932
 6704TIP3   OH241526   0.103   1.576  15.003  0.0516  0.1468 -0.2690
 6704TIP3    H141527   0.180   1.526  14.975  0.9242  1.6652 -0.6634
 6704TIP3    H241528   0.134   1.666  15.009 -1.2421  0.5226  1.3633
 6705TIP3   OH241529   5.370   2.186  13.022 -0.2699  0.4117 -0.1879
 6705TIP3    H141530   5.424   2.263  13.042  2.0960 -1.4690  1.1012
 6705TIP3    H241531   5.285   2.206  13.062  0.7964  1.6732  1.6292
 6706TIP3   OH241532   4.383   1.532  15.725 -0.1129  1.1895  0.4349
 6706TIP3    H141533   4.468   1.487  15.724 -0.7497 -0.0454  0.4603
 6706TIP3    H241534   4.397   1.608  15.781  0.8631  0.7798  0.7697
 6707TIP3   OH241535   1.454   4.258   5.975 -0.1747  0.3579 -0.9404
 6707TIP3    H141536   1.492   4.177   5.942 -0.0375 -0.5392  1.2266
 6707TIP3    H241537   1.530   4.316   5.990  0.0404 -0.1715  0.1322
 6708TIP3   OH241538   6.549   4.342   3.740 -0.5245 -0.0823 -0.5012
 6708TIP3    H141539   6.636   4.383   3.739 -0.7377  0.4346  0.8524
 6708TIP3    H241540   6.493   4.404   3.785 -1.3537 -0.8910 -0.3874
 6709TIP3   OH241541   0.649   1.703  11.994 -0.0514 -0.0266  0.0470
 6709TIP3    H141542   0.744   1.715  12.000 -0.2415  2.1693 -0.5655
 6709TIP3    H241543   0.612   1.789  12.014 -1.9061 -0.7557 -0.0565
 6710TIP3   OH241544   6.319   6.108   4.012  0.2972 -0.0872 -0.2155
 6710TIP3    H141545   6.334   6.016   4.033  1.4937 -0.4318 -2.3055
 6710TIP3    H241546   6.268   6.141   4.086 -0.5091 -2.5058  0.4045
 6711TIP3   OH241547   3.602   4.487  10.602  0.1032 -0.2616 -0.2215
 6711TIP3    H141548   3.605   4.581  10.584 -0.4409 -0.5520 -2.0800
 6711TIP3    H241549   3.523   4.476  10.655  0.7365  0.4349  0.9024
 6712TIP3   OH241550   0.407   0.662   3.573  0.1357  0.2128  0.3077
 6712TIP3    H141551   0.476   0.632   3.513  1.1745  0.6848  1.2408
 6712TIP3    H241552   0.442   0.742   3.612 -1.2867  0.9272  0.2009
 6713TIP3   OH241553   4.087   6.628  13.372 -0.4406  0.2419  0.7761
 6713TIP3    H141554   4.078   6.719  13.344 -0.6175 -0.1824 -0.6415
 6713TIP3    H241555   4.080   6.631  13.467  1.8984  1.9872  0.9884
 6714TIP3   OH241556   1.552   6.554   6.045  0.4351 -0.6135  0.4331
 6714TIP3    H141557   1.574   6.632   5.993  1.0499 -2.0437 -1.5548
 6714TIP3    H241558   1.463   6.532   6.018  0.5891 -1.0971  0.3114
 6715TIP3   OH241559   4.378   5.806  15.139  0.2196 -0.0371 -0.3120
 6715TIP3    H141560   4.420   5.798  15.225 -0.5686 -0.4465  0.0473
 6715TIP3    H241561   4.451   5.807  15.077  0.7498 -2.0142  0.2022
 6716TIP3   OH241562   5.049   4.230  10.319 -0.2468  0.0237  0.3168
 6716TIP3    H141563   5.082   4.170  10.252  1.7187  0.1839  1.0861
 6716TIP3    H241564   5.066   4.185  10.402 -0.9872  0.6172  0.8051
 6717TIP3   OH241565   1.399   1.537   5.335 -0.0259 -0.0450 -0.2264
 6717TIP3    H141566   1.374   1.547   5.244 -1.9242 -0.0032  0.2716
 6717TIP3    H241567   1.334   1.587   5.384  0.5218 -0.6838  1.2028
 6718TIP3   OH241568   6.508   5.631  12.162 -0.2160  0.3821  0.4265
 6718TIP3    H141569   6.466   5.674  12.087  2.8108 -0.5526 -2.0222
 6718TIP3    H241570   6.507   5.538  12.139 -0.9353 -0.1954  2.5709
 6719TIP3   OH241571   3.703   2.565  12.220 -0.4007  0.5226  0.0040
 6719TIP3    H141572   3.713   2.483  12.170  1.7556  1.0911 -0.5739
 6719TIP3    H241573   3.616   2.596  12.196 -0.5324 -0.6706 -1.2004
 6720TIP3   OH241574   6.171   2.961  17.072  0.0259 -0.4198  0.3621
 6720TIP3    H141575   6.261   2.987  17.091  0.1054 -0.4650  0.0500
 6720TIP3    H241576   6.136   3.033  17.020 -0.0510 -0.4980  0.3054
 6721TIP3   OH241577   6.357   0.366   3.235 -0.2299  0.3050  0.1277
 6721TIP3    H141578   6.398   0.449   3.212  2.0955 -1.0019 -0.8876
 6721TIP3    H241579   6.283   0.357   3.176  2.2353 -0.3517 -3.1743
 6722TIP3   OH241580   5.287   5.978  12.020  0.2519  0.5335 -0.4044
 6722TIP3    H141581   5.352   6.048  12.033  0.5537  0.6671 -2.3483
 6722TIP3    H241582   5.205   6.016  12.052  0.8508  0.8291  0.8827
 6723TIP3   OH241583   1.446   4.011   4.694 -0.1824 -0.1489  0.3671
 6723TIP3    H141584   1.371   4.008   4.753 -0.4307  0.0496  0.0661
 6723TIP3    H241585   1.491   3.928   4.707  0.5216  0.4222  1.8151
 6724TIP3   OH241586   0.072   5.813   4.453  0.2244 -0.5510  0.2973
 6724TIP3    H141587   0.145   5.872   4.471  0.1290 -0.4956  0.5010
 6724TIP3    H241588   0.068   5.809   4.357  0.0407  0.0049  0.2789
 6725TIP3   OH241589   1.566   5.683  10.978  0.2395  0.1855 -0.3055
 6725TIP3    H141590   1.626   5.747  11.016 -0.6805  1.1744 -0.4637
 6725TIP3    H241591   1.622   5.621  10.932  1.1110  1.3769 -0.8905
 6726TIP3   OH241592   0.347   4.892   5.517 -0.0308  0.0900 -0.3116
 6726TIP3    H141593   0.375   4.801   5.508  0.0326 -0.0831  1.2648
 6726TIP3    H241594   0.350   4.909   5.611 -2.2535  1.0195 -0.3380
 6727TIP3   OH241595   4.673   1.098  10.980  0.7191 -0.1709  0.0628
 6727TIP3    H141596   4.651   1.024  10.923 -0.1280 -0.0445  0.2115
 6727TIP3    H241597   4.607   1.165  10.959  0.6532  0.0336  0.8896
 6728TIP3   OH241598   2.375   2.885  15.410 -0.1132  0.1153 -0.0869
 6728TIP3    H141599   2.421   2.815  15.363 -2.8141 -3.0705  1.5769
 6728TIP3    H241600   2.442   2.921  15.468  0.8252 -3.4430  1.3497
 6729TIP3   OH241601   3.890   6.705  13.861  0.3810  0.0838 -0.0075
 6729TIP3    H141602   3.829   6.711  13.934  0.5325  1.7379  0.0197
 6729TIP3    H241603   3.958   6.645  13.892  0.5452  0.9114  1.3026
 6730TIP3   OH241604   1.389   0.690  16.062  0.3999 -0.5242 -0.4847
 6730TIP3    H141605   1.356   0.666  16.149  1.4411 -1.5861 -0.3511
 6730TIP3    H241606   1.477   0.725  16.079 -0.2712  1.5093 -0.9026
 6731TIP3   OH241607   0.107   0.698   2.538 -0.0923  0.2038 -0.0668
 6731TIP3    H141608   0.101   0.793   2.552 -0.2917  0.3060 -0.8002
 6731TIP3    H241609   0.184   0.671   2.589 -0.5872  0.5969  0.9252
 6732TIP3   OH241610   1.051   2.459   4.706  0.5231 -0.3061  0.3144
 6732TIP3    H141611   1.082   2.381   4.659  0.5695  0.2304 -0.5723
 6732TIP3    H241612   0.994   2.424   4.775  0.9608 -1.1497  0.2581
 6733TIP3   OH241613   6.600   3.272   4.592 -0.0023 -0.3427  0.3446
 6733TIP3    H141614   6.606   3.363   4.562  0.6246 -0.4843  0.0156
 6733TIP3    H241615   6.513   3.244   4.566  0.0657 -0.0619 -0.2158
 6734TIP3   OH241616   5.933   4.226   0.596  0.0891  0.1037 -0.3767
 6734TIP3    H141617   5.992   4.259   0.528 -0.7774 -0.2485 -1.3315
 6734TIP3    H241618   5.861   4.290   0.598  0.7445  0.8499  1.1846
 6735TIP3   OH241619   2.990   4.023   4.862  0.2621  0.1183 -0.4291
 6735TIP3    H141620   2.995   4.105   4.814  1.6281  0.1018 -0.3600
 6735TIP3    H241621   3.010   4.047   4.952 -0.3566 -0.1457 -0.2160
 6736TIP3   OH241622   2.136   5.099   4.538 -0.3916 -0.2804  0.3164
 6736TIP3    H141623   2.215   5.072   4.585 -0.2006  1.4682  1.0865
 6736TIP3    H241624   2.070   5.111   4.606 -0.3753  1.3932  0.0878
 6737TIP3   OH241625   3.477   5.623  13.499 -0.1265 -0.7425  0.0545
 6737TIP3    H141626   3.407   5.571  13.459 -0.5299 -0.7760  0.7805
 6737TIP3    H241627   3.484   5.588  13.588 -0.7615  0.7588  0.7307
 6738TIP3   OH241628   1.449   5.500   3.650 -0.5122  0.1369 -0.3010
 6738TIP3    H141629   1.400   5.506   3.732  1.2487 -1.3867  0.9774
 6738TIP3    H241630   1.422   5.576   3.599 -1.9478  0.9314  1.5453
 6739TIP3   OH241631   0.005   5.829  10.547  0.0369  0.3957 -0.1177
 6739TIP3    H141632  -0.013   5.789  10.632 -0.6852  2.7318  0.9096
 6739TIP3    H241633  -0.062   5.793  10.489  0.1237 -0.7210  0.4396
 6740TIP3   OH241634   0.077   5.272   1.338 -0.6259  0.3021  0.5493
 6740TIP3    H141635   0.022   5.346   1.360  0.9822  1.2545  1.5586
 6740TIP3    H241636   0.112   5.292   1.252  0.7507  1.3646  1.3106
 6741TIP3   OH241637   5.827   1.038  15.108  0.0548 -0.0041 -0.2262
 6741TIP3    H141638   5.789   1.050  15.195  0.9448  0.7618  0.0804
 6741TIP3    H241639   5.787   0.958  15.074  1.6561 -1.8807  1.9696
 6742TIP3   OH241640   3.530   2.488   5.484  0.5206  0.7856  0.0964
 6742TIP3    H141641   3.470   2.457   5.552 -1.4208  0.1547 -1.7576
 6742TIP3    H241642   3.604   2.428   5.488 -0.3930 -0.3577  0.5058
 6743TIP3   OH241643   5.132   5.474   4.606  0.3559  0.2784  0.0911
 6743TIP3    H141644   5.044   5.486   4.643  0.0982  0.5224 -0.5776
 6743TIP3    H241645   5.116   5.461   4.512  1.0007 -0.1840  0.0413
 6744TIP3   OH241646   0.401   0.479   3.046 -0.9254  0.4944 -0.3787
 6744TIP3    H141647   0.457   0.409   3.080 -0.9717  0.8105  0.3611
 6744TIP3    H241648   0.440   0.502   2.962  0.9320  1.6950  0.7537
 6745TIP3   OH241649   0.950   3.530   4.162 -0.0490  0.3443  0.0022
 6745TIP3    H141650   0.885   3.541   4.093  0.9206  0.2703 -0.9309
 6745TIP3    H241651   0.913   3.578   4.237 -0.8080  0.9653 -0.7575
 6746TIP3   OH241652   2.015   5.656  10.922 -0.9163  0.0592 -0.0305
 6746TIP3    H141653   2.108   5.659  10.945 -1.2866 -1.5661  1.9905
 6746TIP3    H241654   1.989   5.748  10.914  0.3958  0.6003  1.4843
 6747TIP3   OH241655   2.467   2.633  16.127  0.0952  0.3905 -0.1247
 6747TIP3    H141656   2.436   2.578  16.198 -0.6813  1.4223  0.3564
 6747TIP3    H241657   2.456   2.580  16.048  1.4600 -0.9661  0.5486
 6748TIP3   OH241658   5.333   0.443   5.149 -0.2340 -0.5735  0.5657
 6748TIP3    H141659   5.245   0.463   5.181  0.2238  1.2647  0.8007
 6748TIP3    H241660   5.369   0.384   5.215 -0.7744 -0.1461  1.2583
 6749TIP3   OH241661   3.617   0.874  14.300 -0.3432  0.4613  0.0985
 6749TIP3    H141662   3.526   0.903  14.313 -0.3952  0.3572 -0.0364
 6749TIP3    H241663   3.670   0.944  14.339 -0.4901  0.3319  0.5299
 6750TIP3   OH241664   4.647   5.279  17.066 -0.0396 -0.0192 -0.5414
 6750TIP3    H141665   4.655   5.293  16.972  0.1831 -0.0311 -0.5238
 6750TIP3    H241666   4.693   5.353  17.106 -0.7778  0.3894 -0.4351
 6751TIP3   OH241667   2.968   5.196   3.002  0.0146  0.4121  0.2564
 6751TIP3    H141668   3.019   5.149   3.068 -1.6203 -2.3128 -0.2609
 6751TIP3    H241669   3.032   5.244   2.950  1.9334 -1.8436  0.4092
 6752TIP3   OH241670   1.869   3.872  16.011 -0.4426  0.0900  0.3018
 6752TIP3    H141671   1.949   3.879  16.062  0.1011  0.7860 -0.6195
 6752TIP3    H241672   1.869   3.949  15.954 -0.1576 -1.4489 -1.9327
 6753TIP3   OH241673   4.696   1.452   0.195  0.2573 -0.3414  0.7648
 6753TIP3    H141674   4.700   1.457   0.291  1.6726 -0.3427  0.7278
 6753TIP3    H241675   4.690   1.543   0.166  0.5732 -0.2948  0.8401
 6754TIP3   OH241676   4.621   3.679   1.660 -0.4141  0.2935  0.3052
 6754TIP3    H141677   4.588   3.723   1.738  2.0119  2.0988  0.4091
 6754TIP3    H241678   4.601   3.586   1.675  0.0647  0.5614  3.1607
 6755TIP3   OH241679   1.773   3.041   2.913  0.6919  0.0126  0.0460
 6755TIP3    H141680   1.781   3.000   2.827  0.6983  0.0886  0.0104
 6755TIP3    H241681   1.836   3.113   2.911  1.7698 -0.8799  0.6389
 6756TIP3   OH241682   4.019   5.939   5.132 -0.0689 -0.0576  0.3585
 6756TIP3    H141683   4.069   5.901   5.204 -1.2901 -0.8960  0.7748
 6756TIP3    H241684   4.009   6.031   5.156  0.0386 -0.2027  0.9733
 6757TIP3   OH241685   6.256   4.700  12.343 -0.0373 -0.0836 -0.1545
 6757TIP3    H141686   6.347   4.671  12.353 -0.1627 -0.4818 -0.1318
 6757TIP3    H241687   6.249   4.724  12.251  0.3967  1.0381  0.0900
 6758TIP3   OH241688   6.428   2.799  16.679 -0.5000  0.5688  0.0775
 6758TIP3    H141689   6.383   2.747  16.613 -1.3870  0.8810  0.4234
 6758TIP3    H241690   6.363   2.863  16.708 -0.0950  0.5055  1.1763
 6759TIP3   OH241691   4.107   5.654   3.890 -1.2353 -0.0642 -0.4585
 6759TIP3    H141692   4.183   5.704   3.920  0.9825 -1.0637 -3.8961
 6759TIP3    H241693   4.046   5.720   3.857 -0.2218  0.6140 -1.0165
 6760TIP3   OH241694   2.970   0.472  12.532  0.0066 -0.0334 -0.1471
 6760TIP3    H141695   3.058   0.493  12.499  0.7171  2.4317  2.7509
 6760TIP3    H241696   2.940   0.555  12.570 -2.0545 -1.7055  2.1155
 6761TIP3   OH241697   1.733   6.585   3.147  0.0693 -0.3915 -0.0449
 6761TIP3    H141698   1.822   6.577   3.180  1.3743 -0.8759 -3.2695
 6761TIP3    H241699   1.708   6.675   3.169  2.1347  0.4010 -0.6543
 6762TIP3   OH241700   1.754   2.280   2.156  0.4143 -0.3481  0.5158
 6762TIP3    H141701   1.729   2.190   2.132  1.6054 -0.1605 -1.7493
 6762TIP3    H241702   1.705   2.335   2.095  3.3592  0.1885 -1.6227
 6763TIP3   OH241703   5.344   3.376  15.281 -0.0418  0.0082  0.3955
 6763TIP3    H141704   5.309   3.455  15.322 -1.0071 -0.2590  0.1179
 6763TIP3    H241705   5.267   3.322  15.263  0.3701 -0.0562 -1.3980
 6764TIP3   OH241706   2.016   1.652   3.563  0.2150 -0.2425  0.0039
 6764TIP3    H141707   1.986   1.677   3.650  1.8846  0.8034  0.3237
 6764TIP3    H241708   2.109   1.673   3.563 -0.0747  1.5469 -2.6330
 6765TIP3   OH241709   0.645   3.819  16.354 -0.7047 -0.0374  0.0039
 6765TIP3    H141710   0.671   3.795  16.443 -3.8560 -0.8774  0.8188
 6765TIP3    H241711   0.694   3.899  16.336  0.7662 -0.3788  2.0866
 6766TIP3   OH241712   3.626   3.769  12.217  0.2278 -0.6608 -1.0012
 6766TIP3    H141713   3.624   3.862  12.238  0.0606 -0.9842  0.5630
 6766TIP3    H241714   3.709   3.757  12.169  1.3860 -0.0547  0.7472
 6767TIP3   OH241715   0.765   4.972  14.651  0.0825 -0.1414 -0.0065
 6767TIP3    H141716   0.714   5.001  14.726 -0.7432  3.5086 -1.7922
 6767TIP3    H241717   0.705   4.917  14.601 -0.3218 -0.1727  0.4988
 6768TIP3   OH241718   3.966   0.970  13.284 -0.5677  0.4052 -0.3843
 6768TIP3    H141719   3.974   1.064  13.298 -2.1888  0.5530 -0.2878
 6768TIP3    H241720   3.888   0.960  13.230 -0.6933 -0.9228 -0.0040
 6769TIP3   OH241721   1.427   6.746  12.219  0.3835  0.3950 -0.3751
 6769TIP3    H141722   1.496   6.687  12.188  0.4876 -0.1836  0.8856
 6769TIP3    H241723   1.346   6.698  12.203  0.5011 -0.4038  1.1907
 6770TIP3   OH241724   0.109   0.028   5.982 -0.3403 -0.4261  0.6951
 6770TIP3    H141725   0.076  -0.002   6.067  0.8933  0.1135  1.3987
 6770TIP3    H241726   0.179  -0.034   5.961  1.8538  1.4921  1.8923
 6771TIP3   OH241727   2.867   4.009   5.594 -0.2157  0.1348 -0.1617
 6771TIP3    H141728   2.831   4.080   5.540  0.3167  1.5897  1.3320
 6771TIP3    H241729   2.961   4.026   5.597 -0.3655  0.8755  2.2514
 6772TIP3   OH241730   5.877   5.356  16.838  0.7340  0.5093 -0.0006
 6772TIP3    H141731   5.921   5.370  16.754 -0.3295 -0.8083 -0.8218
 6772TIP3    H241732   5.812   5.427  16.842  0.4503  0.2905 -0.5463
 6773TIP3   OH241733   0.132   3.768   1.877 -0.4796 -0.2125  0.7745
 6773TIP3    H141734   0.144   3.850   1.926 -0.4333 -0.2718  0.8624
 6773TIP3    H241735   0.046   3.778   1.836  0.4635  0.8564 -1.0958
 6774TIP3   OH241736   4.603   0.689   4.086  0.1093 -0.5720  1.0199
 6774TIP3    H141737   4.672   0.639   4.044  1.2412  1.2403  0.6061
 6774TIP3    H241738   4.648   0.740   4.153 -0.9481  0.0889  1.2532
 6775TIP3   OH241739   1.961   3.272   5.093 -0.0670  0.5109  0.2273
 6775TIP3    H141740   1.943   3.366   5.097 -0.3135  0.4208  2.2486
 6775TIP3    H241741   2.054   3.267   5.071  0.3013  1.2911  1.4854
 6776TIP3   OH241742   6.415   3.121  12.677  0.0308 -0.8117  0.7279
 6776TIP3    H141743   6.362   3.189  12.636  2.8175  0.6995 -0.6480
 6776TIP3    H241744   6.405   3.136  12.771  0.8334  1.8302  0.4642
 6777TIP3   OH241745   2.618   6.208  15.116  0.3156 -0.2436  0.1029
 6777TIP3    H141746   2.559   6.284  15.113 -0.5390 -0.8925  0.2178
 6777TIP3    H241747   2.664   6.217  15.199 -0.1054 -0.0841  0.3268
 6778TIP3   OH241748   4.700   6.558   4.495 -0.6393 -0.2324 -0.0437
 6778TIP3    H141749   4.639   6.579   4.566 -0.0839  0.3823  0.2573
 6778TIP3    H241750   4.645   6.551   4.417 -0.9863  1.2900  0.0347
 6779TIP3   OH241751   2.089   1.016  10.944  0.5655  0.1466 -0.1282
 6779TIP3    H141752   2.004   0.975  10.930  1.2010 -0.5231 -2.3380
 6779TIP3    H241753   2.083   1.053  11.033 -1.9834  0.1122 -0.2123
 6780TIP3   OH241754   0.989   4.760  11.660  0.3755  0.0511  0.1464
 6780TIP3    H141755   1.059   4.806  11.613  1.1256 -1.5916 -0.4046
 6780TIP3    H241756   1.013   4.768  11.752  0.1348  1.2925  0.1226
 6781TIP3   OH241757   1.177   5.900  11.719  0.1165  0.1667  0.4580
 6781TIP3    H141758   1.181   5.840  11.794  1.5641  2.3901  2.3023
 6781TIP3    H241759   1.137   5.979  11.754 -0.1873  0.8931 -1.4410
 6782TIP3   OH241760   4.339   3.083   3.255  0.1549 -0.0628 -0.2971
 6782TIP3    H141761   4.399   3.158   3.253 -0.7825  0.7595  0.9294
 6782TIP3    H241762   4.258   3.117   3.292 -0.7544 -1.3929 -0.9634
 6783TIP3   OH241763   2.257   5.863  11.021  0.2016  0.5519  0.3034
 6783TIP3    H141764   2.273   5.822  10.936  0.3129  0.2053  0.4899
 6783TIP3    H241765   2.339   5.852  11.069  0.7592  2.3570 -0.1908
 6784TIP3   OH241766   2.185   4.191  14.969  0.1294  0.2848 -0.4720
 6784TIP3    H141767   2.202   4.097  14.974  0.0755  0.3146  0.4802
 6784TIP3    H241768   2.091   4.198  14.955 -0.2386  0.1877  1.5406
 6785TIP3   OH241769   0.167   4.993   5.017 -0.2597  0.6627 -0.1193
 6785TIP3    H141770   0.226   4.958   5.084  1.2500 -2.0136 -2.6276
 6785TIP3    H241771   0.080   4.962   5.044  0.4177 -1.0358  0.2375
 6786TIP3   OH241772   4.467   5.912  16.136  0.4960 -0.0650 -0.2746
 6786TIP3    H141773   4.489   5.819  16.135 -1.9461 -0.7491  1.4880
 6786TIP3    H241774   4.414   5.924  16.214  0.7979  2.8745 -0.3866
 6787TIP3   OH241775   0.226   1.258   5.497 -0.1776 -0.4736  0.0773
 6787TIP3    H141776   0.136   1.291   5.501 -0.2197  0.4121 -3.8180
 6787TIP3    H241777   0.268   1.295   5.574 -2.2600  2.3165  0.0450
 6788TIP3   OH241778   5.575   0.645   5.433 -0.8032  0.0128  0.3252
 6788TIP3    H141779   5.512   0.677   5.368  0.0412  0.6015 -0.2266
 6788TIP3    H241780   5.572   0.549   5.424  0.9126  0.1142 -2.2049
 6789TIP3   OH241781   3.430   5.901   3.774  0.0149  0.0122  0.2100
 6789TIP3    H141782   3.349   5.936   3.811  0.1217 -0.2991  0.7555
 6789TIP3    H241783   3.444   5.818   3.820  0.0458 -0.4936 -0.6768
 6790TIP3   OH241784   5.553   6.093   1.138  0.1993 -0.0298 -0.0316
 6790TIP3    H141785   5.629   6.151   1.134  1.4116 -1.5448 -0.4112
 6790TIP3    H241786   5.530   6.089   1.231 -0.6166  1.8867 -0.1269
 6791TIP3   OH241787   1.735   1.110  12.995 -0.3307  0.4267  0.2719
 6791TIP3    H141788   1.773   1.057  13.065 -0.8042 -1.2510 -0.6566
 6791TIP3    H241789   1.763   1.199  13.013  0.7660 -0.1821  1.7616
 6792TIP3   OH241790   5.105   2.009   3.033  0.8269 -0.1385 -0.3116
 6792TIP3    H141791   5.104   1.917   3.005  0.0483 -0.1004 -0.4123
 6792TIP3    H241792   5.068   2.008   3.121  1.1294  0.0436 -0.1780
 6793TIP3   OH241793   3.511   2.346  14.071 -0.0527  0.5124 -0.2217
 6793TIP3    H141794   3.538   2.423  14.120  0.4287 -0.4920  1.1480
 6793TIP3    H241795   3.517   2.372  13.979  1.7959  1.5574  0.1545
 6794TIP3   OH241796   4.866   6.783   3.869  0.1670  0.0512 -0.0351
 6794TIP3    H141797   4.860   6.755   3.778 -0.4215  0.0981 -0.0124
 6794TIP3    H241798   4.841   6.705   3.919 -0.8364  0.4105  0.0460
 6795TIP3   OH241799   2.794   6.125  12.886  0.3750 -0.3973 -0.0091
 6795TIP3    H141800   2.788   6.032  12.861 -2.0746 -0.0128 -1.1335
 6795TIP3    H241801   2.851   6.164  12.820  0.9819 -0.9826  0.1567
 6796TIP3   OH241802   0.219   0.076  13.194  0.0437 -0.0340  0.0703
 6796TIP3    H141803   0.278   0.008  13.228 -0.2960 -0.0828  0.5767
 6796TIP3    H241804   0.267   0.116  13.121 -0.0038 -1.2241 -0.6306
 6797TIP3   OH241805   5.851   5.980  11.086 -0.0866  0.1650  0.4765
 6797TIP3    H141806   5.936   6.022  11.095 -0.5150  1.1024  0.2275
 6797TIP3    H241807   5.864   5.913  11.019  0.2611  0.8448 -0.1465
 6798TIP3   OH241808   6.587   3.634  16.317 -0.3890  0.3253 -0.3673
 6798TIP3    H141809   6.503   3.637  16.272  0.4664  0.9275 -2.0144
 6798TIP3    H241810   6.619   3.545  16.302 -0.1673  0.4832 -0.8501
 6799TIP3   OH241811   1.004   3.885   6.358  0.4999 -0.6468 -0.2436
 6799TIP3    H141812   0.912   3.912   6.352  0.1316 -2.1545 -2.6282
 6799TIP3    H241813   1.027   3.899   6.450 -1.7246  0.9310  0.1492
 6800TIP3   OH241814   0.884   4.314  11.611 -0.1929 -0.0343  0.1658
 6800TIP3    H141815   0.868   4.273  11.527  1.0267 -1.3245  0.5412
 6800TIP3    H241816   0.847   4.253  11.675 -1.0995  0.9252  0.6033
 6801TIP3   OH241817   0.781   1.172   2.201  0.0875 -0.3388 -0.7465
 6801TIP3    H141818   0.865   1.154   2.159  0.0912  2.9018 -2.4001
 6801TIP3    H241819   0.793   1.257   2.244 -1.6032 -1.0390  1.2867
 6802TIP3   OH241820   1.354   5.421   3.893  0.7232  0.3064  0.2111
 6802TIP3    H141821   1.420   5.457   3.952  1.0141 -0.4200  0.3376
 6802TIP3    H241822   1.318   5.346   3.940  3.0272 -2.1591 -1.6389
 6803TIP3   OH241823   0.060   0.723   4.867 -0.0021  0.0682  0.2336
 6803TIP3    H141824  -0.015   0.709   4.926  0.2711 -1.3168  0.2909
 6803TIP3    H241825   0.107   0.640   4.869  1.6674  0.9806  0.3577
 6804TIP3   OH241826   0.772   5.360   5.028 -0.3449  0.4336  0.3937
 6804TIP3    H141827   0.757   5.362   4.933 -0.0004 -0.3200  0.3149
 6804TIP3    H241828   0.803   5.448   5.049 -0.0017  0.4791 -0.2661
 6805TIP3   OH241829   2.132   5.032   0.111 -0.4768  0.0971  0.7456
 6805TIP3    H141830   2.102   4.962   0.169  1.9716 -2.7971 -1.1862
 6805TIP3    H241831   2.096   5.010   0.026  1.5355  0.3138 -0.2194
 6806TIP3   OH241832   5.753   1.486  11.898  0.5136 -0.6841  0.8348
 6806TIP3    H141833   5.797   1.451  11.821  2.0130  1.7436  0.4692
 6806TIP3    H241834   5.660   1.490  11.874  0.9775  0.1866 -0.9593
 6807TIP3   OH241835   4.960   3.071  11.433  0.5304 -0.1853  0.3076
 6807TIP3    H141836   4.878   3.100  11.393  0.3715 -0.1106  0.6797
 6807TIP3    H241837   4.979   2.986  11.393  0.7632  0.2212 -0.4689
 6808TIP3   OH241838   3.870   1.339   4.010  0.1420 -0.5053  0.1899
 6808TIP3    H141839   3.785   1.294   4.016  0.1598 -0.4062  1.3154
 6808TIP3    H241840   3.869   1.379   3.923 -0.4038 -1.6169 -0.3421
 6809TIP3   OH241841   0.087   4.038  16.739  0.0855  0.5511 -1.4100
 6809TIP3    H141842   0.074   3.952  16.779  0.6780  1.1147  0.0471
 6809TIP3    H241843   0.176   4.063  16.763 -0.6422  2.3004 -0.3507
 6810TIP3   OH241844   0.657   5.193   3.584  0.5073 -0.2127 -0.5534
 6810TIP3    H141845   0.658   5.147   3.500  0.0511 -1.8316  0.2770
 6810TIP3    H241846   0.709   5.136   3.642  0.3060  0.5678  0.4070
 6811TIP3   OH241847   3.339   6.336  11.310  0.1561 -0.5986 -0.1829
 6811TIP3    H141848   3.423   6.380  11.300 -0.3984  0.2139 -1.6937
 6811TIP3    H241849   3.283   6.401  11.352 -0.0254 -0.7005 -0.2654
 6812TIP3   OH241850   1.020   3.421   5.679  0.1351  0.3060  0.0611
 6812TIP3    H141851   1.074   3.494   5.710  2.2912 -1.1668 -0.0240
 6812TIP3    H241852   0.932   3.458   5.675  0.9776  2.6561  0.8340
 6813TIP3   OH241853   0.679   3.355   3.393  0.6723 -0.4157 -0.1373
 6813TIP3    H141854   0.720   3.419   3.451  0.6563 -1.5935  1.2227
 6813TIP3    H241855   0.752   3.312   3.349  0.6491  1.5063 -2.2198
 6814TIP3   OH241856   3.860   2.321   1.502  0.1106  0.1475 -0.5881
 6814TIP3    H141857   3.850   2.391   1.567 -1.8072 -0.3169 -0.3233
 6814TIP3    H241858   3.907   2.252   1.549  0.2552  0.4771 -0.2358
 6815TIP3   OH241859   6.534   1.463  15.501  0.0508 -0.7611 -0.0116
 6815TIP3    H141860   6.512   1.500  15.586  1.6458  0.3123 -0.0186
 6815TIP3    H241861   6.514   1.532  15.439  1.8029 -0.3311 -0.1595
 6816TIP3   OH241862   4.165   0.707   3.393 -0.2186 -0.0934  0.0163
 6816TIP3    H141863   4.201   0.618   3.393  0.8598  0.3081 -1.4232
 6816TIP3    H241864   4.242   0.763   3.400 -0.9165  0.7505  1.3716
 6817TIP3   OH241865   1.846   0.054   0.258  0.0725 -0.2427  0.1833
 6817TIP3    H141866   1.788   0.017   0.192  1.6238 -0.3167 -1.2006
 6817TIP3    H241867   1.806   0.137   0.282 -1.4852 -1.0558  0.5588
 6818TIP3   OH241868   1.240   5.216  13.388 -0.6785 -0.2831  0.2794
 6818TIP3    H141869   1.322   5.232  13.434 -0.9229 -1.2733  1.0941
 6818TIP3    H241870   1.262   5.150  13.322 -0.7548 -0.3394  0.3103
 6819TIP3   OH241871   0.885   3.286   0.114  0.1956  0.7205 -0.4833
 6819TIP3    H141872   0.909   3.293   0.207 -0.8511  0.3984 -0.1816
 6819TIP3    H241873   0.934   3.357   0.072  2.1372 -0.2523 -0.0119
 6820TIP3   OH241874   0.273   0.875   1.344  0.3168 -0.2696 -0.0734
 6820TIP3    H141875   0.224   0.824   1.279  1.0102  0.9007 -1.5899
 6820TIP3    H241876   0.364   0.847   1.333  0.5308  0.4082 -0.0788
 6821TIP3   OH241877   5.336   5.673   2.387  0.0865  0.0675  0.1080
 6821TIP3    H141878   5.387   5.698   2.310  0.1622  1.0476  0.4503
 6821TIP3    H241879   5.253   5.640   2.353 -0.7155  2.3821 -0.4024
 6822TIP3   OH241880   0.621   6.533   1.368  0.7425  0.4141  0.6311
 6822TIP3    H141881   0.687   6.566   1.306 -0.1634 -0.5258 -0.8990
 6822TIP3    H241882   0.566   6.476   1.315 -1.9931  1.9984  1.6007
 6823TIP3   OH241883   5.221   6.683  13.165  0.0083 -0.3103  0.6622
 6823TIP3    H141884   5.266   6.706  13.247  0.5011  0.9856  0.0579
 6823TIP3    H241885   5.231   6.588  13.158 -1.1850 -0.6511  2.7490
 6824TIP3   OH241886   1.882   0.171  12.463 -0.2777 -0.2639 -0.5914
 6824TIP3    H141887   1.886   0.084  12.425  1.8367  0.1117 -1.3713
 6824TIP3    H241888   1.801   0.172  12.514 -0.9376 -2.2597 -1.5312
 6825TIP3   OH241889   1.161   3.366  12.123  0.2244  0.6019  0.2651
 6825TIP3    H141890   1.141   3.452  12.086 -0.3525  0.5889  0.5447
 6825TIP3    H241891   1.079   3.317  12.116  1.3066 -1.0982 -2.9987
 6826TIP3   OH241892   3.209   3.271   5.658 -0.8378  0.4391  0.0559
 6826TIP3    H141893   3.124   3.263   5.616 -0.2784  0.2955 -1.0901
 6826TIP3    H241894   3.233   3.363   5.648 -1.4067  0.7628  1.5039
 6827TIP3   OH241895   5.193   3.217   0.860 -0.5304 -0.5944 -0.4202
 6827TIP3    H141896   5.254   3.243   0.791  0.6983 -0.3117  0.7226
 6827TIP3    H241897   5.114   3.189   0.814 -0.3674  1.1745 -1.8649
 6828TIP3   OH241898   0.667   3.297  16.685 -0.3272  0.1443  0.2379
 6828TIP3    H141899   0.698   3.375  16.639  1.4648 -0.9594 -0.5398
 6828TIP3    H241900   0.725   3.227  16.655 -1.8274 -1.4899  0.9612
 6829TIP3   OH241901   6.483   4.913   1.377 -0.3055  0.2640  0.4558
 6829TIP3    H141902   6.414   4.847   1.388  1.2735 -1.2938  1.5887
 6829TIP3    H241903   6.451   4.989   1.425 -0.8195 -0.7900  1.8650
 6830TIP3   OH241904   3.435   2.991  10.191 -0.3604 -0.0756 -0.6673
 6830TIP3    H141905   3.466   3.080  10.171 -2.1663  0.5835 -0.7550
 6830TIP3    H241906   3.472   2.972  10.277 -1.2057  1.4148  0.0658
 6831TIP3   OH241907   2.720   0.052  16.159 -0.3078  0.1345  0.4800
 6831TIP3    H141908   2.675   0.111  16.219  0.0548 -0.5920  1.4953
 6831TIP3    H241909   2.655   0.031  16.092 -0.8538  0.6341  0.8411
 6832TIP3   OH241910   5.753   2.118   4.979 -0.3337 -1.0622 -0.2326
 6832TIP3    H141911   5.711   2.195   5.017  1.3336 -0.1397 -0.1489
 6832TIP3    H241912   5.720   2.045   5.032  0.7263  0.0036  2.0818
 6833TIP3   OH241913   5.200   2.657  13.984  0.6981  0.1412  0.2128
 6833TIP3    H141914   5.187   2.726  14.050 -0.5794  1.9810 -1.8020
 6833TIP3    H241915   5.119   2.606  13.988 -0.2363  1.4303 -1.1323
 6834TIP3   OH241916   2.237   5.394  11.848  0.6258 -0.6452  0.4542
 6834TIP3    H141917   2.283   5.316  11.817  0.6254 -0.9190  1.1213
 6834TIP3    H241918   2.270   5.408  11.937 -0.1423 -0.4967  0.7207
 6835TIP3   OH241919   4.071   6.524  11.759  0.1941 -0.5579 -0.2571
 6835TIP3    H141920   4.077   6.568  11.674  1.3768 -0.0950  0.0401
 6835TIP3    H241921   4.107   6.587  11.821 -0.3170 -1.0335  0.5354
 6836TIP3   OH241922   0.639   3.880  16.654 -0.0335 -0.2618 -0.0878
 6836TIP3    H141923   0.729   3.903  16.633 -0.7101  0.2090 -2.9736
 6836TIP3    H241924   0.632   3.893  16.748  2.6978  0.3627  0.1172
 6837TIP3   OH241925   0.096   5.421   0.443  0.0159  0.2488  0.0121
 6837TIP3    H141926   0.125   5.333   0.467  1.9488  0.7785 -0.2204
 6837TIP3    H241927   0.095   5.469   0.526 -0.7611  0.1086  0.0954
 6838TIP3   OH241928   4.065   3.150   5.217  0.2093 -0.1785 -0.2517
 6838TIP3    H141929   4.043   3.063   5.184 -1.0265  0.4947 -1.3030
 6838TIP3    H241930   4.140   3.177   5.164 -0.1054 -0.1732 -0.7062
 6839TIP3   OH241931   2.600   6.252   5.431  0.7203 -0.5645 -0.0726
 6839TIP3    H141932   2.530   6.302   5.474  2.1020 -0.1664  1.8680
 6839TIP3    H241933   2.556   6.174   5.397 -0.6072 -0.6293  1.6449
 6840TIP3   OH241934   0.890   3.143   5.790 -0.0815 -0.2239 -0.0691
 6840TIP3    H141935   0.877   3.202   5.864 -1.3659  0.4405 -0.7888
 6840TIP3    H241936   0.913   3.059   5.830 -0.9760  0.0584  1.1093
 6841TIP3   OH241937   5.680   5.193   2.350  0.0895  0.0863 -0.1890
 6841TIP3    H141938   5.668   5.189   2.445  2.6707 -1.6345  0.1801
 6841TIP3    H241939   5.697   5.102   2.325 -0.2163  0.5632 -2.2583
 6842TIP3   OH241940   4.339   1.655   0.179 -0.1059  0.4083  0.0870
 6842TIP3    H141941   4.277   1.587   0.155 -0.3938  1.1628 -1.4680
 6842TIP3    H241942   4.413   1.608   0.217 -1.1280 -0.5878  0.9373
 6843TIP3   OH241943   3.968   0.238   2.876 -0.0833 -1.0540  0.2799
 6843TIP3    H141944   3.952   0.328   2.905 -0.1959 -0.7576 -0.6723
 6843TIP3    H241945   3.895   0.188   2.912  0.8093 -1.0852  2.1620
 6844TIP3   OH241946   4.667   4.991   0.227  0.3980  0.2255  0.4434
 6844TIP3    H141947   4.639   5.073   0.187 -2.2840 -0.7087  0.2252
 6844TIP3    H241948   4.636   4.923   0.167 -0.6428 -1.0700  2.3545
 6845TIP3   OH241949   0.204   6.632  15.292 -0.3187 -0.3372  0.1871
 6845TIP3    H141950   0.260   6.662  15.220 -0.3841  1.7812  0.9626
 6845TIP3    H241951   0.195   6.708  15.350 -2.9086 -0.9897  0.7893
 6846TIP3   OH241952   4.298   2.344   2.166  0.1578  0.2130 -0.1553
 6846TIP3    H141953   4.325   2.432   2.188  0.4540 -0.0824  0.6863
 6846TIP3    H241954   4.266   2.350   2.076 -2.0511  1.6688  0.6492
 6847TIP3   OH241955   2.846   2.425  12.044  0.3884  0.1580 -0.0112
 6847TIP3    H141956   2.880   2.424  11.955 -0.4049 -0.5235 -0.3212
 6847TIP3    H241957   2.907   2.371  12.094 -1.0671 -2.5315 -0.9237
 6848TIP3   OH241958   2.489   3.399   1.011  0.0350  0.0491 -0.2058
 6848TIP3    H141959   2.554   3.436   1.071 -0.9478 -1.0245  1.6027
 6848TIP3    H241960   2.491   3.457   0.935  1.9057  1.0026  0.5061
 6849TIP3   OH241961   2.140   3.483  12.713  0.0127 -0.6205 -0.2766
 6849TIP3    H141962   2.164   3.538  12.788 -1.4748 -0.4869  0.1253
 6849TIP3    H241963   2.224   3.457  12.675  0.7712  0.5736  0.5126
 6850TIP3   OH241964   4.926   6.592   0.615 -0.0781  0.0983 -0.2110
 6850TIP3    H141965   5.017   6.607   0.639 -0.0103 -1.1490  0.4373
 6850TIP3    H241966   4.903   6.509   0.659 -0.9222 -0.6486 -1.9468
 6851TIP3   OH241967   1.886   0.248  11.509 -0.3902  0.7010 -0.2284
 6851TIP3    H141968   1.930   0.182  11.563 -1.1683  0.4349  0.1013
 6851TIP3    H241969   1.955   0.283  11.452  0.6062  1.4323  1.3500
 6852TIP3   OH241970   2.653   3.727  16.665  0.0998  0.2898 -0.1149
 6852TIP3    H141971   2.560   3.714  16.681 -0.0160 -0.3083 -1.1962
 6852TIP3    H241972   2.696   3.695  16.744 -0.4682 -2.2663 -0.7506
 6853TIP3   OH241973   5.788   2.531   3.591 -0.2986  0.0606 -0.3063
 6853TIP3    H141974   5.754   2.485   3.514 -2.7749 -0.2345  0.8684
 6853TIP3    H241975   5.755   2.480   3.666 -2.1302  2.9605  1.0418
 6854TIP3   OH241976   3.236   2.047   6.250 -0.4484 -0.5651  0.2387
 6854TIP3    H141977   3.278   2.118   6.201 -0.9011  0.7339  1.6260
 6854TIP3    H241978   3.307   1.988   6.273  0.0942 -0.0993 -0.2121
 6855TIP3   OH241979   2.420   6.232   3.472  0.2954  0.0358 -0.0134
 6855TIP3    H141980   2.431   6.268   3.560 -0.8298  1.9514 -0.6050
 6855TIP3    H241981   2.399   6.140   3.488  2.8155 -0.3713  1.5697
 6856TIP3   OH241982   0.153   2.780  16.163 -0.3945 -0.3056  0.2535
 6856TIP3    H141983   0.072   2.757  16.209 -1.3382  0.5222 -0.9348
 6856TIP3    H241984   0.126   2.795  16.073  0.9204  0.9617  0.0406
 6857TIP3   OH241985   3.803   4.761  16.406 -0.7162 -0.9716  0.1424
 6857TIP3    H141986   3.736   4.830  16.407 -0.6241 -0.8648  2.0514
 6857TIP3    H241987   3.864   4.788  16.338 -2.5324 -1.0344 -1.6251
 6858TIP3   OH241988   6.276   5.771   0.816  0.2644 -0.2876 -0.2903
 6858TIP3    H141989   6.266   5.849   0.761 -1.0415  0.1424  0.5317
 6858TIP3    H241990   6.188   5.752   0.848  0.5808 -2.0066 -0.3167
 6859TIP3   OH241991   5.828   4.442  13.992 -0.6203 -0.1281 -0.1520
 6859TIP3    H141992   5.784   4.515  13.947 -1.2618 -1.3202 -1.5826
 6859TIP3    H241993   5.829   4.467  14.084 -0.5009  1.8296 -0.6403
 6860TIP3   OH241994   3.245   3.954   4.423  0.0993 -0.4910  0.1582
 6860TIP3    H141995   3.176   3.907   4.469  0.1628 -0.0863  0.6826
 6860TIP3    H241996   3.204   3.988   4.344 -0.2628 -0.3888  0.3881
 6861TIP3   OH241997   0.427   6.312   2.093  0.1318 -0.0174  0.7552
 6861TIP3    H141998   0.441   6.277   2.005 -2.6556 -1.2682  0.6718
 6861TIP3    H241999   0.480   6.256   2.150  0.0396 -0.8136  0.0805
 6862TIP3   OH242000   0.993   0.893   3.075  0.4820  0.0370 -0.3352
 6862TIP3    H142001   1.000   0.980   3.035 -1.1100  0.1688 -0.3885
 6862TIP3    H242002   0.985   0.833   3.001 -1.6135  0.1985 -0.3103
 6863TIP3   OH242003   4.662   3.365   3.998 -0.1518 -0.3169  0.4084
 6863TIP3    H142004   4.575   3.404   3.998  0.7360  1.8249 -0.7174
 6863TIP3    H242005   4.671   3.327   3.911 -0.9816 -3.1712  1.4694
 6864TIP3   OH242006   0.395   3.069   2.027  0.2950 -0.0545 -0.0440
 6864TIP3    H142007   0.344   2.993   1.999 -2.6428  2.0114 -0.8427
 6864TIP3    H242008   0.433   3.043   2.111 -1.1158 -2.1721  0.0137
 6865TIP3   OH242009   0.521   5.056  16.603  0.2133 -0.1539  0.2344
 6865TIP3    H142010   0.596   5.038  16.547  0.1690  0.5981 -0.0871
 6865TIP3    H242011   0.507   4.976  16.653  2.2564  0.2287  1.5210
 6866TIP3   OH242012   6.278   1.312  13.378  0.0887  0.3778  0.1967
 6866TIP3    H142013   6.293   1.378  13.446 -1.1795 -0.1361  1.0164
 6866TIP3    H242014   6.191   1.278  13.397 -0.4528  0.4692 -1.9205
 6867TIP3   OH242015   5.258   2.443  12.666 -0.0367 -0.1126 -0.3736
 6867TIP3    H142016   5.284   2.353  12.688  1.2979  0.7860  2.1429
 6867TIP3    H242017   5.163   2.439  12.659  0.1114 -2.0575 -2.3259
 6868TIP3   OH242018   0.577   0.115  11.335 -0.9820 -0.4566 -0.1604
 6868TIP3    H142019   0.590   0.208  11.354 -0.7630  0.0989 -2.6445
 6868TIP3    H242020   0.504   0.089  11.391  1.4122  0.0995  3.5483
 6869TIP3   OH242021   4.716   0.720  11.950 -0.5322 -0.2266  0.4199
 6869TIP3    H142022   4.681   0.808  11.940  1.2454  0.4495 -0.3182
 6869TIP3    H242023   4.780   0.711  11.879 -2.0325 -2.8490 -0.7324
 6870TIP3   OH242024   2.896   2.444  13.681 -0.2013 -0.2202 -0.1405
 6870TIP3    H142025   2.988   2.463  13.662 -0.1127  0.6772  1.0505
 6870TIP3    H242026   2.876   2.499  13.757 -1.9340  0.1774 -0.8337
 6871TIP3   OH242027   5.506   6.308   2.140  0.1470  0.4483  0.2892
 6871TIP3    H142028   5.559   6.301   2.219 -0.0314 -0.4616  0.3336
 6871TIP3    H242029   5.417   6.286   2.168 -0.1056  1.1134  0.0365
 6872TIP3   OH242030   5.184   5.946   4.006 -0.0353 -0.1159  0.2340
 6872TIP3    H142031   5.143   5.986   3.928  0.5292  1.3406  0.6421
 6872TIP3    H242032   5.158   6.003   4.078  1.0167 -0.3467  0.8125
 6873TIP3   OH242033   2.709   4.109  11.906 -0.1817  0.1940 -0.2333
 6873TIP3    H142034   2.687   4.045  11.839 -2.1934  1.4506 -0.8809
 6873TIP3    H242035   2.762   4.061  11.969 -0.4895 -1.7338 -1.3583
 6874TIP3   OH242036   4.053   2.899  11.562 -0.4497 -0.2082  0.1199
 6874TIP3    H142037   4.073   2.831  11.497 -1.2979 -0.1532 -0.2103
 6874TIP3    H242038   4.021   2.973  11.510  1.2660  0.7751  0.4004
 6875TIP3   OH242039   2.138   4.555   6.344 -0.2196 -0.0273  1.0527
 6875TIP3    H142040   2.058   4.594   6.378 -1.9584  0.3754 -2.9139
 6875TIP3    H242041   2.108   4.487   6.283  2.4443 -0.1516 -0.2994
 6876TIP3   OH242042   5.494   3.241  13.305  0.0284 -0.1174  0.3217
 6876TIP3    H142043   5.581   3.281  13.301 -0.2676  0.4463 -0.8157
 6876TIP3    H242044   5.511   3.147  13.298  0.5965 -0.0649  0.9249
 6877TIP3   OH242045   2.856   0.215  15.035 -0.0724 -0.2200 -0.2492
 6877TIP3    H142046   2.838   0.157  14.960 -1.6701 -0.7399  0.5055
 6877TIP3    H242047   2.835   0.302  15.003  1.1405 -0.1732 -0.9981
 6878TIP3   OH242048   3.032   0.977   4.318 -0.6277 -0.3435 -0.3743
 6878TIP3    H142049   3.052   1.048   4.379 -0.5402 -0.9709  0.3533
 6878TIP3    H242050   2.986   1.019   4.246  1.0839  0.7676 -0.8859
 6879TIP3   OH242051   5.107   2.415  14.749 -0.0598 -1.0259 -0.3056
 6879TIP3    H142052   5.132   2.356  14.820 -0.3031  0.4950  1.1126
 6879TIP3    H242053   5.013   2.429  14.761 -0.1450 -0.9036 -1.0564
 6880TIP3   OH242054   4.285   1.864  16.592  0.1721  0.4563  0.1863
 6880TIP3    H142055   4.237   1.942  16.565 -1.1606 -0.1316  0.7726
 6880TIP3    H242056   4.337   1.892  16.667  1.1966  1.2245 -0.7639
 6881TIP3   OH242057   1.899   3.752  11.633 -0.6155  0.0851 -0.1757
 6881TIP3    H142058   1.939   3.774  11.717  1.8135  0.0001 -1.2187
 6881TIP3    H242059   1.912   3.657  11.624 -1.3010  0.0107 -0.4348
 6882TIP3   OH242060   3.353   5.775  12.100  0.2682 -0.2422  0.4753
 6882TIP3    H142061   3.402   5.792  12.180 -1.0106  0.5683  1.1124
 6882TIP3    H242062   3.407   5.813  12.031 -0.0302  1.8679  1.3109
 6883TIP3   OH242063   2.583   0.671   3.788 -0.0966  0.2790 -0.2718
 6883TIP3    H142064   2.661   0.622   3.762 -0.1969 -0.0926  0.1173
 6883TIP3    H242065   2.616   0.758   3.813  0.1035  0.3551 -0.7742
 6884TIP3   OH242066   1.365   5.247  11.261  0.0501 -0.5245  0.2461
 6884TIP3    H142067   1.360   5.305  11.185 -0.2669 -0.2638  0.4606
 6884TIP3    H242068   1.352   5.159  11.225  0.4871 -0.4590 -0.0765
 6885TIP3   OH242069   0.088   1.583  16.643 -0.2175 -0.8414  0.1195
 6885TIP3    H142070   0.013   1.642  16.632  1.1256  1.4059  2.1955
 6885TIP3    H242071   0.048   1.497  16.655 -2.2798 -0.3125 -2.0783
 6886TIP3   OH242072   1.298   1.819   1.206 -0.5756  0.3302  0.1784
 6886TIP3    H142073   1.283   1.890   1.142  0.8195  0.9684  0.5112
 6886TIP3    H242074   1.372   1.770   1.169 -1.0645 -0.5276  0.3189
 6887TIP3   OH242075   3.826   6.133   3.225 -0.3083  0.4959 -0.0774
 6887TIP3    H142076   3.731   6.116   3.220  0.1853 -2.5905 -0.8906
 6887TIP3    H242077   3.860   6.064   3.281  1.7125  0.2105 -1.5389
 6888TIP3   OH242078   4.632   0.343   5.889  0.2931 -0.0809  0.7712
 6888TIP3    H142079   4.633   0.438   5.885  1.2761 -0.0811  0.8555
 6888TIP3    H242080   4.584   0.316   5.810 -0.8526  0.4910  1.2482
 6889TIP3   OH242081   1.868   3.370   1.314 -0.8597 -0.4318  0.3769
 6889TIP3    H142082   1.841   3.438   1.252 -0.0849 -0.6813 -0.2513
 6889TIP3    H242083   1.799   3.370   1.381 -1.5767  0.0295 -0.3343
 6890TIP3   OH242084   0.239   1.905   0.010 -0.4917  0.2229 -0.1474
 6890TIP3    H142085   0.261   1.917   0.103 -0.1367 -1.2322 -0.0160
 6890TIP3    H242086   0.182   1.828   0.009 -0.4144  0.1711 -1.1468
 6891TIP3   OH242087   4.178   6.059   0.943 -0.2745  0.0862  0.1171
 6891TIP3    H142088   4.191   5.987   1.004  2.2688 -0.8916 -1.3870
 6891TIP3    H242089   4.093   6.041   0.902 -0.4728 -1.0816  0.9949
 6892TIP3   OH242090   2.040   4.607  14.961  0.2661 -0.3164 -0.1425
 6892TIP3    H142091   1.984   4.684  14.973  0.6085 -0.3309  1.9559
 6892TIP3    H242092   2.020   4.552  15.037 -0.5944 -2.7528 -1.9994
 6893TIP3   OH242093   6.252   0.560  16.423 -0.0652 -0.2110 -0.3662
 6893TIP3    H142094   6.191   0.586  16.491 -0.2607  0.0570 -0.6396
 6893TIP3    H242095   6.301   0.487  16.461 -1.4275 -1.2761 -0.6021
 6894TIP3   OH242096   2.600   6.254   2.976 -0.8118  0.0341 -0.5499
 6894TIP3    H142097   2.672   6.191   2.983  0.7652  1.7075 -1.1467
 6894TIP3    H242098   2.574   6.270   3.067 -0.1756 -0.2842 -0.3045
 6895TIP3   OH242099   0.676   4.887   1.360 -0.8345  0.4568  0.5598
 6895TIP3    H142100   0.763   4.862   1.389 -1.2431 -0.8745  0.7064
 6895TIP3    H242101   0.691   4.942   1.283  0.1281 -0.1006  0.3336
 6896TIP3   OH242102   3.849   1.198  13.081 -0.2037  0.6513  0.0120
 6896TIP3    H142103   3.754   1.206  13.092 -0.7149 -2.6418 -0.8159
 6896TIP3    H242104   3.861   1.193  12.986  0.4522 -1.2997  0.1495
 6897TIP3   OH242105   5.622   2.594  15.603  0.1832  0.0162 -0.3903
 6897TIP3    H142106   5.636   2.601  15.509  0.7566 -0.4359 -0.3445
 6897TIP3    H242107   5.549   2.653  15.621 -0.3250 -0.3550 -1.2074
 6898TIP3   OH242108   2.666   5.079   6.319  0.7829  0.0212  0.6890
 6898TIP3    H142109   2.648   5.150   6.381 -0.1280 -1.6325  2.4112
 6898TIP3    H242110   2.618   5.104   6.240 -0.5918  0.7061  1.7074
 6899TIP3   OH242111   3.228   2.321   2.617 -0.6560  0.4701  0.1574
 6899TIP3    H142112   3.136   2.324   2.590 -1.0138  1.5342  1.3877
 6899TIP3    H242113   3.275   2.362   2.545 -1.1636  0.0620 -0.4154
 6900TIP3   OH242114   0.715   3.015   3.158 -0.0735  0.2995 -0.6614
 6900TIP3    H142115   0.655   2.970   3.218 -1.5029  2.4428 -0.3638
 6900TIP3    H242116   0.786   2.952   3.143 -1.4189 -1.6126  0.5067
 6901TIP3   OH242117   6.086   4.526  16.625  0.5302  0.3464 -0.3823
 6901TIP3    H142118   6.153   4.592  16.607 -0.7841  1.9601  0.3408
 6901TIP3    H242119   6.017   4.545  16.561  0.0845 -0.2406 -0.0782
 6902TIP3   OH242120   1.895   6.006   5.080  0.4478 -0.0150 -0.0115
 6902TIP3    H142121   1.837   6.049   5.144 -0.4321 -1.8387  0.4849
 6902TIP3    H242122   1.900   6.069   5.008 -0.7795  0.9289  0.6608
 6903TIP3   OH242123   5.623   0.250  11.808 -0.0369 -0.0243  0.4106
 6903TIP3    H142124   5.670   0.249  11.725  1.7047  0.4843  1.3317
 6903TIP3    H242125   5.691   0.238  11.874 -1.1522  1.2089  1.8593
 6904TIP3   OH242126   5.214   3.671   0.846 -0.9529 -0.0304  0.5411
 6904TIP3    H142127   5.142   3.638   0.899 -0.9670 -0.1012  0.4779
 6904TIP3    H242128   5.182   3.666   0.756 -0.8351 -0.1475  0.5061
 6905TIP3   OH242129   1.806   0.048  10.915  0.0469  0.7336 -0.7770
 6905TIP3    H142130   1.831   0.064  10.824  0.3909  0.3320 -0.7517
 6905TIP3    H242131   1.719   0.007  10.910 -0.0110  0.8722 -0.9121
 6906TIP3   OH242132   1.576   3.207   1.777 -0.2412 -0.2051  0.4037
 6906TIP3    H142133   1.643   3.149   1.815 -1.4042 -1.3846  0.7123
 6906TIP3    H242134   1.513   3.220   1.848 -1.5117 -0.9699 -0.5404
 6907TIP3   OH242135   5.519   1.910   2.390  0.0121 -0.6090  0.7908
 6907TIP3    H142136   5.426   1.909   2.368  0.0792  0.4771  0.3928
 6907TIP3    H242137   5.534   1.995   2.431  1.0950 -0.1344 -0.4787
 6908TIP3   OH242138   1.372   4.889   5.332  0.6438  0.7635 -0.0675
 6908TIP3    H142139   1.429   4.964   5.311  0.4063  1.0584  0.3525
 6908TIP3    H242140   1.359   4.846   5.247 -0.7035  2.2247 -0.6666
 6909TIP3   OH242141   3.745   3.038   2.664  0.4955 -0.1656  0.3127
 6909TIP3    H142142   3.714   3.112   2.611 -0.7557  1.0648  2.5663
 6909TIP3    H242143   3.665   2.988   2.684  1.0993 -1.2140  0.1573
 6910TIP3   OH242144   3.021   2.503   6.736 -0.0896  0.1750 -0.0166
 6910TIP3    H142145   2.987   2.585   6.702  0.3045  0.1387 -0.5027
 6910TIP3    H242146   2.963   2.435   6.701  1.9433 -0.1695 -3.0583
 6911TIP3   OH242147   0.430   2.517  15.781 -0.1559  0.0664  0.0587
 6911TIP3    H142148   0.476   2.446  15.826  0.9076 -2.3874 -4.3348
 6911TIP3    H242149   0.341   2.484  15.769 -1.3672  1.9774  2.6061
 6912TIP3   OH242150   0.033   2.057  10.482  0.1367  0.3734 -0.6022
 6912TIP3    H142151  -0.044   2.004  10.503  0.0986  0.1948 -1.1651
 6912TIP3    H242152   0.087   2.000  10.427  0.9397  0.3077  0.2398
 6913TIP3   OH242153   2.740   2.944  11.309  0.4131 -0.1827  0.1714
 6913TIP3    H142154   2.648   2.918  11.298  0.5811 -0.7706  0.1000
 6913TIP3    H242155   2.746   3.029  11.265  0.0333 -0.4075 -0.3374
 6914TIP3   OH242156   5.486   2.544  14.095 -0.1853 -0.2460  0.1498
 6914TIP3    H142157   5.490   2.633  14.129 -0.3323  0.1155 -0.7543
 6914TIP3    H242158   5.485   2.489  14.173 -1.6395  0.5914  0.7614
 6915TIP3   OH242159   0.830   0.207  14.074 -0.4996  0.4652  0.2330
 6915TIP3    H142160   0.924   0.205  14.054 -0.6485 -2.3248 -0.6852
 6915TIP3    H242161   0.824   0.170  14.162 -0.7515  0.1936  0.1057
 6916TIP3   OH242162   6.340   4.270  13.165 -0.1417 -0.5000 -0.4311
 6916TIP3    H142163   6.423   4.284  13.119 -0.0386 -0.5423 -0.2584
 6916TIP3    H242164   6.354   4.191  13.217 -0.9926 -1.7369 -2.0184
 6917TIP3   OH242165   5.547   4.940  12.494 -0.7913 -0.0987 -0.3402
 6917TIP3    H142166   5.596   4.862  12.517 -0.5268 -0.7655 -2.8628
 6917TIP3    H242167   5.480   4.948  12.562 -0.3504 -2.0723  0.3866
 6918TIP3   OH242168   2.211   1.911  14.527  0.1156  0.6194  0.1238
 6918TIP3    H142169   2.141   1.971  14.552 -0.0203  0.7091 -0.4585
 6918TIP3    H242170   2.218   1.920  14.432  2.2158  2.0474  0.3538
 6919TIP3   OH242171   6.127   6.767   3.479 -0.3331  0.0239 -0.3312
 6919TIP3    H142172   6.190   6.749   3.549  0.2481  0.6296 -0.6824
 6919TIP3    H242173   6.078   6.686   3.468  1.7344 -1.1421 -1.4173
 6920TIP3   OH242174   2.727   6.382   4.788 -0.1965 -0.6678 -0.0080
 6920TIP3    H142175   2.670   6.405   4.714 -0.4300  0.4921  0.4910
 6920TIP3    H242176   2.689   6.430   4.862  1.8648  0.7907  0.1926
 6921TIP3   OH242177   4.715   1.387  14.148  0.4146  0.1077 -0.1622
 6921TIP3    H142178   4.772   1.460  14.126 -1.7023  2.1233  0.6127
 6921TIP3    H242179   4.654   1.422  14.213 -0.2524 -2.5802  0.8197
 6922TIP3   OH242180   0.905   6.729   2.741 -0.5234  0.0226 -0.2588
 6922TIP3    H142181   0.870   6.736   2.652 -1.0741 -0.6104 -0.0981
 6922TIP3    H242182   0.915   6.819   2.770 -0.6274  0.2305 -0.8522
 6923TIP3   OH242183   6.361   1.593   4.196 -0.1463 -0.2076 -0.2422
 6923TIP3    H142184   6.420   1.668   4.182 -0.0250 -0.4168 -0.8639
 6923TIP3    H242185   6.404   1.543   4.266  0.3667 -0.2935 -0.6058
 6924TIP3   OH242186   3.686   6.040   3.808 -0.0423  0.2096  0.2973
 6924TIP3    H142187   3.671   6.103   3.879  0.5392  1.5590 -0.7395
 6924TIP3    H242188   3.599   6.025   3.771 -0.0842  0.9644  0.0893
 6925TIP3   OH242189   6.249   5.491  16.344  0.2169 -0.2029  0.2278
 6925TIP3    H142190   6.271   5.585  16.339  4.5412 -1.0610 -2.3636
 6925TIP3    H242191   6.299   5.459  16.419 -0.9571 -0.5547  0.8805
 6926TIP3   OH242192   2.678   5.079  13.280  0.1278 -0.6718  0.8596
 6926TIP3    H142193   2.708   5.150  13.337  0.3278 -0.2298  0.2120
 6926TIP3    H242194   2.647   5.012  13.341 -0.7467  0.2587  1.4798
 6927TIP3   OH242195   3.953   4.827  11.560  0.3524  0.0009 -0.8800
 6927TIP3    H142196   3.907   4.910  11.547 -0.4143 -0.6337 -2.4290
 6927TIP3    H242197   3.915   4.791  11.641  0.8088  1.1980 -0.1050
 6928TIP3   OH242198   3.743   4.194   6.268 -0.0979 -0.3244 -0.2613
 6928TIP3    H142199   3.788   4.175   6.350  0.5468 -2.5172 -1.0417
 6928TIP3    H242200   3.709   4.283   6.279  1.1789 -0.0203  1.8108
 6929TIP3   OH242201   1.538   5.553   4.034  0.2027 -0.0846  0.2466
 6929TIP3    H142202   1.529   5.492   4.108 -0.1560  1.2152  1.3225
 6929TIP3    H242203   1.632   5.572   4.031  0.2094 -0.0907  0.3997
 6930TIP3   OH242204   5.452   2.892  14.361 -0.0323 -0.0120 -0.3950
 6930TIP3    H142205   5.460   2.893  14.456 -1.4319 -2.6053 -0.1703
 6930TIP3    H242206   5.537   2.858  14.331  0.3263  0.5842 -0.0783
 6931TIP3   OH242207   0.084   5.868   0.924  0.8441  0.4792 -0.5551
 6931TIP3    H142208   0.062   5.936   0.987  1.8447  1.2931 -1.0536
 6931TIP3    H242209   0.095   5.789   0.976  0.5745  0.8943  0.1406
 6932TIP3   OH242210   0.605   0.987   2.403  0.3542 -0.1358  0.2479
 6932TIP3    H142211   0.639   0.986   2.313  0.2668  1.9746  0.1246
 6932TIP3    H242212   0.518   0.949   2.396  0.2173  0.2943 -0.6510
 6933TIP3   OH242213   4.677   2.435  15.105  0.1423 -0.2188  0.0872
 6933TIP3    H142214   4.679   2.363  15.043 -0.3280  1.6994 -2.3104
 6933TIP3    H242215   4.616   2.407  15.172 -1.8221 -1.1755 -1.9729
 6934TIP3   OH242216   1.284   1.711  10.941  0.3174  0.5914  0.5610
 6934TIP3    H142217   1.277   1.683  11.032  0.0960 -1.2360  0.0045
 6934TIP3    H242218   1.201   1.754  10.923 -1.3430 -2.5362  0.1197
 6935TIP3   OH242219   5.819   3.032   1.948  0.0072  0.3396 -0.6285
 6935TIP3    H142220   5.764   3.017   1.871 -0.5910 -0.8542  0.0090
 6935TIP3    H242221   5.881   3.100   1.920 -1.3097  1.1959 -1.6021
 6936TIP3   OH242222   0.546   1.734   4.302 -0.8190 -0.3125 -0.1742
 6936TIP3    H142223   0.559   1.665   4.367 -0.3467  0.0904  0.1666
 6936TIP3    H242224   0.527   1.812   4.354  0.3615  0.1972 -0.4681
 6937TIP3   OH242225   2.886   2.737   2.601 -0.3977 -0.5419 -0.0198
 6937TIP3    H142226   2.978   2.730   2.576 -0.3432  1.9824 -0.8086
 6937TIP3    H242227   2.885   2.796   2.676 -1.4115  0.0161 -0.4401
 6938TIP3   OH242228   5.452   6.806  15.347  0.1992  0.0536  0.1492
 6938TIP3    H142229   5.538   6.843  15.370  0.5069 -0.2445 -0.4941
 6938TIP3    H242230   5.454   6.799  15.252  0.9180 -3.3782  0.3083
 6939TIP3   OH242231   0.131   2.719  11.782 -0.0621  0.0276 -0.1591
 6939TIP3    H142232   0.119   2.814  11.776 -3.2008 -0.3562 -1.7602
 6939TIP3    H242233   0.108   2.698  11.873 -1.9183  0.5933 -0.4491
 6940TIP3   OH242234   2.165   2.729   2.269 -0.2638 -0.0736  0.1564
 6940TIP3    H142235   2.251   2.771   2.264 -0.7533  1.1387  1.3043
 6940TIP3    H242236   2.128   2.738   2.182 -0.1115  1.3721  0.2228
 6941TIP3   OH242237   4.153   0.798  15.742 -0.3703  0.4130  0.0608
 6941TIP3    H142238   4.224   0.748  15.701 -0.5850 -0.4312  0.6876
 6941TIP3    H242239   4.109   0.842  15.669 -0.3057 -0.4872 -0.5358
 6942TIP3   OH242240   2.598   3.287  16.727 -0.1480 -0.5451  0.0628
 6942TIP3    H142241   2.650   3.277  16.807 -0.6217 -1.9036  0.2307
 6942TIP3    H242242   2.651   3.343  16.671  1.1525 -1.2582  0.5371
 6943TIP3   OH242243   4.172   4.771   0.067 -0.8337  0.4728  0.1262
 6943TIP3    H142244   4.134   4.687   0.092  0.0322  0.1467  0.3797
 6943TIP3    H242245   4.173   4.768  -0.029  2.1234 -1.2182  0.0915
 6944TIP3   OH242246   5.179   0.390   4.891  0.2815 -0.1478 -0.5171
 6944TIP3    H142247   5.244   0.361   4.827 -0.0564  1.2464 -1.5378
 6944TIP3    H242248   5.230   0.413   4.969  0.8326 -0.5991 -0.7359
 6945TIP3   OH242249   2.607   5.526   1.982 -0.4077 -0.4060 -0.1487
 6945TIP3    H142250   2.567   5.456   1.930 -2.0304  0.4462 -0.0977
 6945TIP3    H242251   2.688   5.487   2.015  0.1240 -1.3617 -2.3446
 6946TIP3   OH242252   6.329   2.605   6.108 -0.0204 -0.4854  0.5978
 6946TIP3    H142253   6.393   2.666   6.072  0.0044 -0.6771  0.3109
 6946TIP3    H242254   6.349   2.601   6.201  0.1431 -0.2540  0.5721
 6947TIP3   OH242255   3.320   6.138   2.232 -0.4221  0.2541 -0.3166
 6947TIP3    H142256   3.398   6.152   2.178 -0.8117  0.5818 -0.8078
 6947TIP3    H242257   3.248   6.135   2.169 -0.5945 -2.2525 -0.1182
 6948TIP3   OH242258   4.746   1.925  15.765  0.1259  0.0517  0.1967
 6948TIP3    H142259   4.663   1.961  15.732  0.2558 -0.3279 -0.5782
 6948TIP3    H242260   4.778   1.990  15.826 -0.3702  0.5630 -0.0773
 6949TIP3   OH242261   5.757   6.505   3.940 -0.3182 -0.6467 -0.0733
 6949TIP3    H142262   5.838   6.473   3.900  0.2841  0.4845  0.2114
 6949TIP3    H242263   5.701   6.527   3.866  0.5225  0.7584 -0.3145
 6950TIP3   OH242264   6.283   1.299   0.849  0.0824 -0.2320 -0.3815
 6950TIP3    H142265   6.367   1.330   0.817  0.1666 -0.2211 -0.1526
 6950TIP3    H242266   6.295   1.205   0.861 -0.3286 -0.4427 -1.5645
 6951TIP3   OH242267   3.867   6.785   4.925  0.4406 -0.4289 -0.9947
 6951TIP3    H142268   3.925   6.804   4.851  1.7915  0.3402  0.2029
 6951TIP3    H242269   3.864   6.867   4.975 -0.5077 -0.8959 -0.2366
 6952TIP3   OH242270   0.526   5.121   1.135 -0.1771 -0.2757  0.1747
 6952TIP3    H142271   0.476   5.187   1.183 -1.4189 -0.4733 -0.7945
 6952TIP3    H242272   0.500   5.133   1.044  1.8848 -0.1157 -0.4444
 6953TIP3   OH242273   5.703   3.911   2.809  0.2968 -0.1221 -0.4799
 6953TIP3    H142274   5.627   3.965   2.785 -1.2130 -1.5209  0.8715
 6953TIP3    H242275   5.765   3.973   2.848 -0.0616  1.0726 -1.7189
 6954TIP3   OH242276   6.522   6.026  14.826 -0.2537 -0.3613  0.1916
 6954TIP3    H142277   6.452   6.062  14.880 -0.7490 -0.1463 -0.5721
 6954TIP3    H242278   6.601   6.034  14.880 -0.9424 -1.4028  1.4002
 6955TIP3   OH242279   0.778   3.317   1.693 -0.4826 -0.0136 -0.0826
 6955TIP3    H142280   0.731   3.319   1.610 -1.9797  0.1460  0.7252
 6955TIP3    H242281   0.739   3.243   1.741 -0.6045  0.7088  0.9822
 6956TIP3   OH242282   4.795   3.142  11.081 -0.3881 -0.1733 -0.9431
 6956TIP3    H142283   4.740   3.163  11.156  0.5863  0.4956 -0.3900
 6956TIP3    H242284   4.748   3.074  11.034 -2.4366  1.4156 -1.3344
 6957TIP3   OH242285   1.302   3.855  13.726  0.6751  0.0958 -0.0267
 6957TIP3    H142286   1.323   3.905  13.805  0.6868 -1.2086  0.8237
 6957TIP3    H242287   1.378   3.868  13.669  1.1253  0.2261  0.5940
 6958TIP3   OH242288   6.291   2.584   3.460  0.2248  0.3490 -0.0659
 6958TIP3    H142289   6.284   2.555   3.369 -2.9450  1.0112 -0.1468
 6958TIP3    H242290   6.200   2.598   3.487  1.2226  3.8156  2.0040
 6959TIP3   OH242291   5.512   4.834   1.316 -0.2049  0.1047 -0.6359
 6959TIP3    H142292   5.539   4.742   1.316  1.7680  0.6388 -0.7653
 6959TIP3    H242293   5.580   4.879   1.366 -1.4128  1.4400 -0.1314
 6960TIP3   OH242294   5.408   3.076  16.797 -0.5320 -0.3175  0.1970
 6960TIP3    H142295   5.399   3.156  16.849  1.2367 -1.4572  2.4317
 6960TIP3    H242296   5.318   3.049  16.779 -1.1613  1.5293  0.3699
 6961TIP3   OH242297   0.789   6.323   2.221 -0.0198  0.1642 -0.2321
 6961TIP3    H142298   0.836   6.260   2.166 -0.1607 -1.6933  1.6397
 6961TIP3    H242299   0.844   6.332   2.299 -2.1243 -1.1844  1.5118
 6962TIP3   OH242300   1.070   6.319   3.209 -0.3539  0.0240 -0.1924
 6962TIP3    H142301   1.153   6.354   3.179  0.3614 -1.9370 -0.6557
 6962TIP3    H242302   1.083   6.302   3.302 -0.5154  0.4251 -0.0922
 6963TIP3   OH242303   5.872   0.247  13.865 -0.0524  0.1124  0.0428
 6963TIP3    H142304   5.868   0.339  13.894  2.3119  0.9524 -1.9417
 6963TIP3    H242305   5.965   0.224  13.871 -0.5088 -1.9653 -0.1406
 6964TIP3   OH242306   0.548   4.146   0.574 -0.0012 -0.1419 -0.1080
 6964TIP3    H142307   0.609   4.096   0.519 -1.0229 -0.3966 -1.0310
 6964TIP3    H242308   0.485   4.183   0.513 -0.8524  0.0245  0.8412
 6965TIP3   OH242309   3.837   0.444  16.580  0.1009 -0.7786 -0.0843
 6965TIP3    H142310   3.786   0.363  16.570 -2.3794  0.6292  0.3700
 6965TIP3    H242311   3.902   0.422  16.647 -0.7946 -2.2712  0.3573
 6966TIP3   OH242312   5.546   3.857   0.583  0.3755  0.6415  0.0610
 6966TIP3    H142313   5.460   3.885   0.552  0.6845  1.3663 -0.1820
 6966TIP3    H242314   5.608   3.901   0.524  0.8998 -0.2137 -0.0348
 6967TIP3   OH242315   0.466   0.878   4.849  0.8361 -0.2854  0.3877
 6967TIP3    H142316   0.549   0.924   4.840  1.2630 -1.1931 -0.6242
 6967TIP3    H242317   0.413   0.909   4.775  0.3984  0.0267  0.8257
 6968TIP3   OH242318   4.001   3.209  11.832 -0.0211 -0.0310 -0.8042
 6968TIP3    H142319   3.906   3.218  11.838  0.1730  1.0877  1.5282
 6968TIP3    H242320   4.014   3.123  11.792 -1.9943 -0.2329 -1.1103
 6969TIP3   OH242321   3.616   1.729  13.840  0.3614 -0.0240 -0.5791
 6969TIP3    H142322   3.591   1.654  13.894  0.5002  1.0692  1.0789
 6969TIP3    H242323   3.554   1.729  13.767  1.2511 -2.5523 -1.4373
 6970TIP3   OH242324   3.086   0.006   0.445 -0.1209 -0.2496 -0.3213
 6970TIP3    H142325   2.997   0.008   0.410 -0.9458 -1.8723  1.4758
 6970TIP3    H242326   3.075   0.023   0.539  1.4694 -0.4473 -0.0706
 6971TIP3   OH242327   3.037   4.063   0.488 -0.1674 -0.4103 -0.1656
 6971TIP3    H142328   3.066   3.974   0.506  1.7431  0.0299 -0.8722
 6971TIP3    H242329   2.980   4.055   0.411 -0.6376 -1.1049  0.2485
 6972TIP3   OH242330   3.346   1.548  16.621  0.5398 -0.0826  0.4843
 6972TIP3    H142331   3.256   1.554  16.653  0.3880 -0.0523  0.0547
 6972TIP3    H242332   3.394   1.508  16.693  0.6858  2.1197  1.6838
 6973TIP3   OH242333   2.635   0.867  16.841  0.3342  0.5850  0.5348
 6973TIP3    H142334   2.666   0.881  16.930  0.6211 -1.2340  0.7547
 6973TIP3    H242335   2.540   0.860  16.850  0.1427  2.3529  0.3805
 6974TIP3   OH242336   3.362   3.883  11.349  0.3427 -0.3688  0.7757
 6974TIP3    H142337   3.317   3.805  11.381 -0.6458 -0.0966  0.0849
 6974TIP3    H242338   3.305   3.918  11.280  0.5785  1.1699  1.3143
 6975TIP3   OH242339   1.629   1.853  13.448 -0.0382  0.2986 -0.3220
 6975TIP3    H142340   1.563   1.867  13.381 -1.4167  0.4910  1.0276
 6975TIP3    H242341   1.644   1.758  13.448  0.4718  0.3604 -1.3201
 6976TIP3   OH242342   1.318   6.141  12.745  0.0434  0.2448  0.0846
 6976TIP3    H142343   1.288   6.160  12.834 -0.1596 -0.3013  0.1393
 6976TIP3    H242344   1.252   6.182  12.688  0.5014  1.1216  0.1729
 6977TIP3   OH242345   2.507   4.592  14.972 -0.1654 -0.2836  0.4014
 6977TIP3    H142346   2.432   4.533  14.966 -0.5860  0.1866  0.9209
 6977TIP3    H242347   2.471   4.673  15.009  0.6044 -0.0702  0.7029
 6978TIP3   OH242348   3.288   3.303   3.726 -0.0446  0.3976 -0.2540
 6978TIP3    H142349   3.255   3.239   3.663  0.5833 -0.5336  0.3325
 6978TIP3    H242350   3.254   3.273   3.810  1.0877  0.2376  0.1630
 6979TIP3   OH242351   6.024   2.816  16.621 -0.0495 -0.3082  0.1521
 6979TIP3    H142352   5.956   2.884  16.620 -1.8429 -1.9867  0.9839
 6979TIP3    H242353   5.976   2.734  16.611  1.7915 -1.6291  1.4648
 6980TIP3   OH242354   1.064   4.091   4.759  0.4867 -0.3217 -0.6838
 6980TIP3    H142355   0.981   4.044   4.758 -0.4957  1.1595  1.7012
 6980TIP3    H242356   1.076   4.121   4.669 -1.1402 -1.2367 -1.2499
 6981TIP3   OH242357   2.085   4.844   3.700 -0.4891  0.4251 -0.2250
 6981TIP3    H142358   2.012   4.890   3.659 -1.4261  1.0313  1.9901
 6981TIP3    H242359   2.111   4.901   3.773 -0.8792 -1.8991  1.8707
 6982TIP3   OH242360   1.928   5.312   3.556 -0.0848 -0.2600  0.4492
 6982TIP3    H142361   1.996   5.380   3.561 -1.7473  1.4353  0.8562
 6982TIP3    H242362   1.853   5.350   3.601 -1.6548 -1.6769 -0.8714
 6983TIP3   OH242363   1.369   0.026  11.437  0.3258 -0.1711  0.0713
 6983TIP3    H142364   1.281   0.016  11.402  1.0582 -0.8605 -1.7091
 6983TIP3    H242365   1.403   0.104  11.393 -0.2637  1.7348  2.7756
 6984TIP3   OH242366   1.825   0.323  13.149  0.4334  0.7363  0.3297
 6984TIP3    H142367   1.858   0.245  13.193 -0.7234 -0.2235 -0.4422
 6984TIP3    H242368   1.787   0.376  13.219  0.5196  0.2329  0.7628
 6985TIP3   OH242369   6.311   5.489  14.436 -0.3653  0.0516  0.3092
 6985TIP3    H142370   6.225   5.492  14.394  0.4338 -0.0599 -1.4203
 6985TIP3    H242371   6.368   5.449  14.371  1.4950  2.1897  0.5027
 6986TIP3   OH242372   6.096   2.602  11.315 -0.1560  0.4476  0.0691
 6986TIP3    H142373   6.129   2.614  11.404  1.5983 -2.1362 -0.1433
 6986TIP3    H242374   6.160   2.646  11.259  0.2093 -0.2227 -0.0499
 6987TIP3   OH242375   3.218   3.986  12.854 -0.3457 -0.5512 -0.2463
 6987TIP3    H142376   3.162   4.006  12.779  1.5889  2.3643 -1.0925
 6987TIP3    H242377   3.305   3.972  12.815  1.1461  2.8649  1.3687
 6988TIP3   OH242378   4.509   5.093   5.766 -0.8716  0.1400 -0.2566
 6988TIP3    H142379   4.497   5.017   5.822 -1.0262  0.1305 -0.3021
 6988TIP3    H242380   4.534   5.057   5.680  0.8586  0.1958  0.1721
 6989TIP3   OH242381   4.814   1.814  16.102 -0.2874  0.4071  0.4685
 6989TIP3    H142382   4.759   1.776  16.171  0.1968  0.7532  1.0481
 6989TIP3    H242383   4.822   1.906  16.125 -0.1696  0.5423 -0.0913
 6990TIP3   OH242384   3.586   0.555   5.331 -0.0663 -0.4196 -0.2426
 6990TIP3    H142385   3.586   0.585   5.422  1.1307 -2.0916  0.3572
 6990TIP3    H242386   3.582   0.636   5.279  0.3083  0.6146  1.2786
 6991TIP3   OH242387   5.256   0.831   5.469  0.0234 -0.2584 -0.0351
 6991TIP3    H142388   5.272   0.851   5.561  0.8491 -0.8383 -0.0378
 6991TIP3    H242389   5.164   0.851   5.455  0.0865  0.6130  0.7067
 6992TIP3   OH242390   4.240   1.850   3.153 -0.1531 -0.2399  0.9791
 6992TIP3    H142391   4.262   1.876   3.242 -1.4748 -1.1493  1.6141
 6992TIP3    H242392   4.146   1.869   3.146  0.4267  2.4297 -1.1890
 6993TIP3   OH242393   2.940   3.993   0.205 -0.1107  0.2886 -0.2304
 6993TIP3    H142394   2.929   3.976   0.112  1.0315 -0.7798 -0.1906
 6993TIP3    H242395   2.982   3.914   0.240  1.4831  1.5020  0.7675
 6994TIP3   OH242396   3.827   1.895   1.672 -0.2680 -0.0140 -0.1618
 6994TIP3    H142397   3.736   1.908   1.697 -0.4281 -0.0378 -0.7212
 6994TIP3    H242398   3.823   1.850   1.588  0.2658 -0.3880  0.0054
 6995TIP3   OH242399   4.667   1.062  14.237  0.3580  0.5036 -0.2812
 6995TIP3    H142400   4.659   1.101  14.150 -0.8648  0.6681 -0.1210
 6995TIP3    H242401   4.740   1.001  14.229  0.4563  0.7281 -1.3363
 6996TIP3   OH242402   0.371   4.231   2.456  0.9939 -0.8165  0.3651
 6996TIP3    H142403   0.374   4.172   2.532 -0.0017  0.6756  1.6183
 6996TIP3    H242404   0.459   4.268   2.450  0.5636  0.5446  2.0424
 6997TIP3   OH242405   4.964   3.500   1.680 -0.0861  0.0363  0.3812
 6997TIP3    H142406   4.922   3.424   1.720 -0.5330  0.5668  0.9360
 6997TIP3    H242407   5.058   3.485   1.692 -0.1732 -0.4298  0.4796
 6998TIP3   OH242408   0.071   4.461  12.723 -0.0778  1.1333 -0.0815
 6998TIP3    H142409   0.077   4.475  12.817 -2.0453  1.4790  0.0309
 6998TIP3    H242410   0.158   4.431  12.698 -0.1544 -1.4481  2.2518
 6999TIP3   OH242411   5.626   1.458   3.417  0.0301  0.3135 -0.0197
 6999TIP3    H142412   5.604   1.427   3.329  1.8440 -0.9113 -0.0936
 6999TIP3    H242413   5.562   1.414   3.474 -3.4055  3.6472 -0.8464
 7000TIP3   OH242414   5.429   4.456  15.084  0.5001 -0.3766 -1.2240
 7000TIP3    H142415   5.459   4.482  15.171 -1.6323 -0.2222 -0.4866
 7000TIP3    H242416   5.472   4.372  15.068 -0.0809 -1.0552  0.5509
 7001TIP3   OH242417   1.125   2.895   0.194 -0.5173 -0.1733 -0.0459
 7001TIP3    H142418   1.144   2.987   0.211  2.2165  0.0914 -3.5472
 7001TIP3    H242419   1.192   2.847   0.242 -0.3607 -0.2046 -0.2998
 7002TIP3   OH242420   3.619   5.294  15.422  0.7219  0.1201  0.0153
 7002TIP3    H142421   3.644   5.386  15.416  0.9279  0.2389  1.9509
 7002TIP3    H242422   3.525   5.296  15.438  0.5591 -0.0694 -0.8537
 7003TIP3   OH242423   3.299   5.563   5.273 -0.3245  0.1564  0.3429
 7003TIP3    H142424   3.361   5.491   5.279 -0.7840 -0.2158  0.6501
 7003TIP3    H242425   3.351   5.641   5.291 -0.1262 -0.2372  1.5539
 7004TIP3   OH242426   0.213   4.283   0.246  0.2294 -0.3212  0.3889
 7004TIP3    H142427   0.257   4.360   0.208 -0.7488  0.0057 -0.1046
 7004TIP3    H242428   0.205   4.221   0.174 -2.5578  0.7033 -0.3005
 7005TIP3   OH242429   3.065   3.032  16.850 -0.4382 -0.3100  0.1393
 7005TIP3    H142430   2.981   3.024  16.894 -2.0437  1.4561 -2.3600
 7005TIP3    H242431   3.072   3.124  16.826  0.5964 -0.9795 -2.5852
 7006TIP3   OH242432   2.471   4.975   2.784  0.6051 -0.0862  0.1994
 7006TIP3    H142433   2.432   4.952   2.869 -0.8905 -2.1836 -0.9591
 7006TIP3    H242434   2.454   5.069   2.775 -1.5982 -0.3317  1.0925
 7007TIP3   OH242435   4.230   5.077  15.320 -0.5102 -0.2388  0.5829
 7007TIP3    H142436   4.208   5.170  15.326 -1.7950 -0.4646 -0.3386
 7007TIP3    H242437   4.146   5.033  15.307  0.2771 -1.3103 -1.2417
 7008TIP3   OH242438   2.687   1.814   2.403  0.2289 -0.2649 -0.1005
 7008TIP3    H142439   2.750   1.776   2.343 -1.1124  0.9199 -2.3755
 7008TIP3    H242440   2.623   1.744   2.419  1.5623 -1.1791  1.5156
 7009TIP3   OH242441   6.421   4.617  14.740  0.3743  0.5444  0.3700
 7009TIP3    H142442   6.447   4.704  14.770 -0.2064  0.5896  0.7571
 7009TIP3    H242443   6.325   4.619  14.738  0.3639  0.0244  0.0492
 7010TIP3   OH242444   5.653   2.175   5.613  0.1173  0.0700  0.5999
 7010TIP3    H142445   5.711   2.250   5.599  1.2466 -1.0985 -1.6002
 7010TIP3    H242446   5.568   2.205   5.581  0.6055  0.3825 -0.4644
 7011TIP3   OH242447   3.186   2.114   0.543 -0.2504  0.1264 -0.2128
 7011TIP3    H142448   3.191   2.203   0.509 -0.1683 -0.6577 -2.4025
 7011TIP3    H242449   3.238   2.061   0.482  1.2513 -1.1872  2.0581
 7012TIP3   OH242450   1.963   3.560   2.922  0.4725 -0.3857  0.1704
 7012TIP3    H142451   2.026   3.605   2.866 -0.8466  0.3902 -0.7641
 7012TIP3    H242452   1.889   3.621   2.928 -1.3660 -2.3424 -1.1014
 7013TIP3   OH242453   3.368   6.094   6.034  0.2823 -0.1633  0.4238
 7013TIP3    H142454   3.396   6.085   5.942 -1.3597 -0.6031 -0.0617
 7013TIP3    H242455   3.282   6.053   6.037  0.3725 -0.2906  2.2175
 7014TIP3   OH242456   5.223   2.616   4.046 -0.3379 -0.0006  0.6879
 7014TIP3    H142457   5.159   2.619   3.975 -0.3694 -0.2673  0.7050
 7014TIP3    H242458   5.298   2.665   4.013  0.9544 -2.7559 -0.8121
 7015TIP3   OH242459   0.319   2.698  12.384 -0.2170  0.9796  0.4158
 7015TIP3    H142460   0.306   2.629  12.319  1.9263  0.8901  0.0184
 7015TIP3    H242461   0.396   2.745  12.354 -0.1413  1.9752  2.0477
 7016TIP3   OH242462   4.430   5.516  15.468 -0.6113  0.3075 -0.2257
 7016TIP3    H142463   4.446   5.530  15.562  1.2177 -3.7478  0.2678
 7016TIP3    H242464   4.500   5.563  15.424 -1.3952  2.1202  0.3823
 7017TIP3   OH242465   3.288   1.605   2.422 -0.3441  0.3184 -0.1967
 7017TIP3    H142466   3.310   1.597   2.329  1.2800  0.5679  0.1355
 7017TIP3    H242467   3.275   1.699   2.435 -0.1194  0.3317 -0.0738
 7018TIP3   OH242468   4.766   1.873  11.551  0.1942 -0.1028 -0.7013
 7018TIP3    H142469   4.799   1.788  11.522  0.3933 -0.4101  0.3795
 7018TIP3    H242470   4.841   1.917  11.591  0.1851  0.7504 -1.6009
 7019TIP3   OH242471   2.085   6.548   5.235 -0.0461 -0.1279  0.1675
 7019TIP3    H142472   2.140   6.519   5.162  0.0944  0.5237  0.0076
 7019TIP3    H242473   2.038   6.624   5.201 -0.7389 -0.4328  0.4396
 7020TIP3   OH242474   2.339   4.715  13.958 -0.1274  0.1844 -0.2226
 7020TIP3    H142475   2.427   4.743  13.984  0.1805 -0.1092 -0.9168
 7020TIP3    H242476   2.301   4.793  13.917  0.7075 -0.3548 -2.0985
 7021TIP3   OH242477   4.242   1.138   1.413 -0.3430  0.2600 -0.2080
 7021TIP3    H142478   4.156   1.134   1.371 -1.0394  1.0113  1.1209
 7021TIP3    H242479   4.242   1.219   1.463  1.6966  1.0330 -1.2984
 7022TIP3   OH242480   4.855   4.660  11.042  0.0860  0.0481 -0.1343
 7022TIP3    H142481   4.856   4.722  10.969 -0.2314  0.3839  0.1417
 7022TIP3    H242482   4.924   4.597  11.021  0.4887  0.5561 -0.3642
 7023TIP3   OH242483   3.228   3.804   4.932 -0.0966 -0.4706 -0.1654
 7023TIP3    H142484   3.193   3.869   4.871  0.0211 -0.1025  0.1580
 7023TIP3    H242485   3.265   3.855   5.003 -0.6841 -0.9021  0.4657
 7024TIP3   OH242486   0.841   0.400   1.357  0.0633  0.0307 -0.1169
 7024TIP3    H142487   0.764   0.344   1.367  0.2339 -0.4692 -1.3921
 7024TIP3    H242488   0.881   0.401   1.444 -1.4157  0.3802  0.5987
 7025TIP3   OH242489   2.843   3.526   3.670  0.0063 -0.8455 -0.2699
 7025TIP3    H142490   2.908   3.479   3.618  0.4143  0.4822 -0.9981
 7025TIP3    H242491   2.787   3.457   3.706  2.1608 -2.1129  0.9138
 7026TIP3   OH242492   3.438   2.456   0.135 -1.1226  0.0716  0.1272
 7026TIP3    H142493   3.344   2.438   0.133 -1.5200  2.0326 -0.4453
 7026TIP3    H242494   3.475   2.396   0.069 -2.0818 -0.1013 -0.2729
 7027TIP3   OH242495   5.532   3.195  15.531 -0.3411 -0.2891 -0.1328
 7027TIP3    H142496   5.583   3.116  15.550  1.5639  0.6696 -0.9951
 7027TIP3    H242497   5.444   3.175  15.563  0.5783 -1.9873  1.5581
 7028TIP3   OH242498   0.448   2.911   2.668 -0.3256  0.2199 -0.4138
 7028TIP3    H142499   0.362   2.935   2.704 -0.2408  0.7202 -0.5338
 7028TIP3    H242500   0.432   2.830   2.620 -0.6068 -0.0227  0.0748
 7029TIP3   OH242501   4.665   5.446  11.775 -1.0322  0.0185 -0.3237
 7029TIP3    H142502   4.738   5.384  11.783 -0.4154  0.7729  0.0850
 7029TIP3    H242503   4.587   5.391  11.769 -0.5137 -0.8008  0.2096
 7030TIP3   OH242504   1.608   4.408  12.362  0.0460  0.3388 -0.3687
 7030TIP3    H142505   1.569   4.481  12.409  0.5934 -1.1999  2.7301
 7030TIP3    H242506   1.612   4.437  12.270 -2.4187  2.9663  0.2402
 7031TIP3   OH242507   5.096   1.344   3.914  0.1648 -0.5283 -0.3790
 7031TIP3    H142508   5.035   1.286   3.867 -0.9198  0.2158  0.0605
 7031TIP3    H242509   5.041   1.390   3.977  1.4741 -1.0136  1.1817
 7032TIP3   OH242510   6.751   2.454  12.657  0.4968 -0.0002 -0.4132
 7032TIP3    H142511   6.759   2.505  12.737  1.5574 -0.6487 -0.0745
 7032TIP3    H242512   6.835   2.407  12.650  0.5154  0.1885 -1.9980
 7033TIP3   OH242513   2.292   5.200   3.073  0.4336  0.1967 -0.1727
 7033TIP3    H142514   2.217   5.154   3.110  0.9417 -1.8708 -1.5211
 7033TIP3    H242515   2.253   5.262   3.010 -0.1982  0.3823  0.3857
 7034TIP3   OH242516   0.672   4.147   5.099  0.0572 -0.2794 -0.3644
 7034TIP3    H142517   0.703   4.056   5.095  2.9017  0.5027  1.2987
 7034TIP3    H242518   0.692   4.183   5.013  0.2051 -0.8265 -0.5667
 7035TIP3   OH242519   1.725   2.762   2.910 -0.1089 -0.3287 -0.6116
 7035TIP3    H142520   1.813   2.725   2.907 -0.0164 -0.2661  0.7920
 7035TIP3    H242521   1.739   2.856   2.920 -0.2781 -0.5005  1.7733
 7036TIP3   OH242522   3.415   2.264   4.547 -0.6537 -0.3911  0.0593
 7036TIP3    H142523   3.349   2.239   4.611 -0.7873 -3.8120 -1.1909
 7036TIP3    H242524   3.498   2.244   4.589 -0.5153  1.0271  0.5105
 7037TIP3   OH242525   5.143   2.003  15.355  0.3816 -0.1068  0.4626
 7037TIP3    H142526   5.083   1.953  15.300 -0.8356  0.4380  1.2396
 7037TIP3    H242527   5.104   1.999  15.443  0.3582  1.9519  0.6022
 7038TIP3   OH242528   0.634   1.108   4.115  0.3203  0.3353  0.6914
 7038TIP3    H142529   0.576   1.080   4.185 -0.0248  0.5200  0.4811
 7038TIP3    H242530   0.604   1.060   4.038 -1.8447  2.9797 -0.2605
 7039TIP3   OH242531   1.098   4.184   4.165  0.3996  0.1684  0.3300
 7039TIP3    H142532   1.157   4.123   4.121 -0.5413  0.4048 -1.3290
 7039TIP3    H242533   1.150   4.263   4.176  0.8044 -0.0567  0.0868
 7040TIP3   OH242534   6.608   2.954   3.545 -0.0923  0.4564  0.2149
 7040TIP3    H142535   6.704   2.948   3.551 -0.0958  1.7475  2.7457
 7040TIP3    H242536   6.577   2.944   3.635 -2.3941 -0.1489 -0.5696
 7041TIP3   OH242537   3.648   3.770   5.682  0.9499 -0.2066 -0.2680
 7041TIP3    H142538   3.657   3.771   5.777  0.2457  0.2769 -0.1995
 7041TIP3    H242539   3.736   3.750   5.650  0.9353 -1.7421  0.5122
 7042TIP3   OH242540   1.700   5.254   2.251  0.0276 -0.2453 -0.1710
 7042TIP3    H142541   1.625   5.313   2.248 -0.5153 -0.9138  0.1295
 7042TIP3    H242542   1.723   5.239   2.160  0.2581  0.5383 -0.2467
 7043TIP3   OH242543   0.460   3.256   3.201  0.2470  0.4892 -0.5341
 7043TIP3    H142544   0.542   3.274   3.248 -0.0898 -0.2817  0.3726
 7043TIP3    H242545   0.401   3.222   3.268 -0.2192 -0.7540 -1.5402
 7044TIP3   OH242546   4.566   4.772   1.301  0.1748  0.3370  0.1585
 7044TIP3    H142547   4.634   4.710   1.327  0.4811  0.6970  0.2238
 7044TIP3    H242548   4.572   4.775   1.206 -0.2300 -0.1711  0.1135
 7045TIP3   OH242549   1.839   1.500   2.725  0.0655 -0.1760 -0.3401
 7045TIP3    H142550   1.760   1.548   2.751 -0.0311  0.0431 -1.0172
 7045TIP3    H242551   1.880   1.474   2.807 -0.5843 -0.0744  0.0186
 7046TIP3   OH242552   3.728   1.063   3.565  0.0318  0.3976 -0.4381
 7046TIP3    H142553   3.718   1.122   3.491  2.3466 -1.6278 -2.5819
 7046TIP3    H242554   3.822   1.066   3.586  0.6749 -3.5769 -1.8337
 7047TIP3   OH242555   1.876   5.324   2.458  0.3056 -0.1156  0.3735
 7047TIP3    H142556   1.959   5.337   2.413  0.0012  1.4602  0.1887
 7047TIP3    H242557   1.815   5.292   2.391 -0.0736  1.9435 -0.3344
 7048TIP3   OH242558   0.983   2.328  15.014 -0.1185  0.3596  0.2830
 7048TIP3    H142559   1.072   2.355  14.991  0.3059 -0.0105  1.4221
 7048TIP3    H242560   0.962   2.259  14.951  0.1846  0.8050 -0.3259
 7049TIP3   OH242561   6.656   2.633   1.980 -0.8622 -0.0633 -0.1996
 7049TIP3    H142562   6.651   2.729   1.979 -0.9796 -0.0374  0.8721
 7049TIP3    H242563   6.612   2.605   1.899  0.7329  0.8247 -1.4138
 7050TIP3   OH242564   4.425   5.126  16.090 -0.0973 -0.3754 -0.3627
 7050TIP3    H142565   4.381   5.063  16.147 -1.5957 -0.5388 -1.6443
 7050TIP3    H242566   4.510   5.086  16.072 -0.8833 -1.8862 -0.8612
 7051TIP3   OH242567   3.297   1.867  12.419  0.8614 -0.3334 -0.5130
 7051TIP3    H142568   3.253   1.883  12.335  0.8920 -0.8339 -0.6263
 7051TIP3    H242569   3.375   1.817  12.396  0.4063 -1.2614 -0.0981
 7052TIP3   OH242570   3.081   2.084   4.283 -0.0245  0.2061 -0.5088
 7052TIP3    H142571   3.098   2.050   4.371 -1.7975 -0.3866 -0.3552
 7052TIP3    H242572   3.091   2.179   4.292  0.3754  0.1060  0.1813
 7053TIP3   OH242573   3.069   0.563   1.636 -0.2422 -0.2163  0.6500
 7053TIP3    H142574   3.148   0.574   1.584 -0.6392  0.2741  0.1357
 7053TIP3    H242575   3.011   0.512   1.580 -0.8924  0.8095  0.3501
 7054TIP3   OH242576   3.904   6.801  15.749 -0.5736  0.1615  0.8987
 7054TIP3    H142577   3.821   6.765  15.717  1.0488 -1.1690 -2.3490
 7054TIP3    H242578   3.944   6.729  15.798 -1.9382  1.3530  3.9490
 7055TIP3   OH242579   2.023   2.081   3.580  0.1560  0.1999 -0.3025
 7055TIP3    H142580   1.986   2.046   3.661 -1.0717  1.7440 -0.1482
 7055TIP3    H242581   2.118   2.081   3.595 -0.0808  1.0835  1.4288
 7056TIP3   OH242582   1.936   6.397  15.160  0.0639 -0.4369  0.0194
 7056TIP3    H142583   2.009   6.421  15.217 -0.6730  1.9113  0.0879
 7056TIP3    H242584   1.893   6.324  15.205  0.6870  0.0453  1.4506
 7057TIP3   OH242585   3.184   2.959   4.928  0.3611 -0.4978  0.6685
 7057TIP3    H142586   3.122   3.013   4.977 -0.5498 -0.0654 -0.8915
 7057TIP3    H242587   3.269   3.000   4.943 -0.2068  0.9417  0.1657
 7058TIP3   OH242588   0.114   4.866  16.991  0.2221 -0.4217  0.2169
 7058TIP3    H142589   0.126   4.836  16.901  1.4897 -0.9299  0.5303
 7058TIP3    H242590   0.109   4.962  16.984 -0.8707 -0.5260 -0.4994
 7059TIP3   OH242591   2.116   6.795  13.034 -0.6114  0.1824  0.1665
 7059TIP3    H142592   2.116   6.711  13.081  0.8449 -1.5502 -2.6865
 7059TIP3    H242593   2.089   6.773  12.945 -1.5566  3.0373 -0.3463
 7060TIP3   OH242594   0.757   1.611   5.101 -0.3380  0.1876  0.5995
 7060TIP3    H142595   0.685   1.638   5.044  1.7901  1.2132 -1.7576
 7060TIP3    H242596   0.797   1.693   5.129  0.7820 -0.3898  0.7216
 7061TIP3   OH242597   0.433   5.376   4.521 -0.1983  0.0277 -0.2194
 7061TIP3    H142598   0.460   5.310   4.457 -1.9376  0.0106 -1.0010
 7061TIP3    H242599   0.401   5.449   4.468 -0.7184  0.4314  0.6282
 7062TIP3   OH242600   1.171   3.301   1.325  0.1979 -0.1654  0.2803
 7062TIP3    H142601   1.262   3.295   1.353  0.1634 -0.0119  0.4276
 7062TIP3    H242602   1.158   3.394   1.306 -0.1933 -0.0316  1.1675
 7063TIP3   OH242603   5.028   2.540  10.493 -0.5209 -0.6056 -0.0128
 7063TIP3    H142604   5.081   2.537  10.573 -0.6187  1.3612  0.1606
 7063TIP3    H242605   5.024   2.632  10.470  0.0583 -1.1724 -2.6994
 7064TIP3   OH242606   3.527   6.585  12.524 -0.4092 -0.0133  0.2713
 7064TIP3    H142607   3.573   6.569  12.607  0.9806  1.7962 -0.0713
 7064TIP3    H242608   3.558   6.515  12.466 -0.7741 -0.8198  1.0228
 7065TIP3   OH242609   1.281   3.575  13.728  0.2338 -0.2312 -0.1794
 7065TIP3    H142610   1.368   3.554  13.762  0.4199 -0.1500 -0.6020
 7065TIP3    H242611   1.274   3.670  13.735  0.7686 -0.0756 -1.5266
 7066TIP3   OH242612   5.603   5.415   0.643  0.0802  0.4176  0.2686
 7066TIP3    H142613   5.569   5.351   0.706  0.0689  1.0023  0.8574
 7066TIP3    H242614   5.585   5.500   0.682  1.6334  0.7646  0.2953
 7067TIP3   OH242615   3.143   0.041   2.447  0.1307 -0.0494  0.0457
 7067TIP3    H142616   3.119   0.012   2.535  1.1597  0.0463  0.3711
 7067TIP3    H242617   3.238   0.034   2.445  0.0485 -1.0783 -1.4272
 7068TIP3   OH242618   1.738   1.491  11.742 -0.3240 -0.1120 -0.5855
 7068TIP3    H142619   1.827   1.457  11.734 -0.7915 -1.8931  0.9652
 7068TIP3    H242620   1.697   1.472  11.658  0.2090 -1.0608 -0.6444
 7069TIP3   OH242621   5.548   1.073  13.838  0.8301  0.0603  0.5656
 7069TIP3    H142622   5.481   1.140  13.854 -0.9579 -1.8574  1.5069
 7069TIP3    H242623   5.550   1.020  13.917  1.7993 -1.3497 -0.3391
 7070TIP3   OH242624   4.261   1.535  12.334 -0.5276 -0.5517 -0.0668
 7070TIP3    H142625   4.274   1.531  12.239  0.2375 -0.5903  0.0300
 7070TIP3    H242626   4.225   1.623  12.350 -2.2329 -1.1190 -0.5464
 7071TIP3   OH242627   0.439   5.298   5.705 -0.3459 -0.4082  0.0670
 7071TIP3    H142628   0.523   5.287   5.660  0.6352  0.7926  1.5381
 7071TIP3    H242629   0.409   5.385   5.680 -0.8138 -0.5502  0.1219
 7072TIP3   OH242630   0.311   1.823   4.996 -0.0856  0.6259 -0.2711
 7072TIP3    H142631   0.308   1.877   5.075  0.7780  0.7265 -0.2999
 7072TIP3    H242632   0.272   1.877   4.928 -1.3992  0.3159  0.1951
 7073TIP3   OH242633   2.475   2.111  14.381 -0.5879  0.0008 -0.9373
 7073TIP3    H142634   2.498   2.133  14.291 -0.7135 -0.5460 -1.1060
 7073TIP3    H242635   2.411   2.041  14.373 -0.5588 -0.0887 -0.4193
 7074TIP3   OH242636   1.658   4.555  12.125  0.2934 -0.2756 -0.6958
 7074TIP3    H142637   1.744   4.593  12.103 -0.7098  1.2941 -2.1230
 7074TIP3    H242638   1.596   4.627  12.112 -1.5425 -1.9937 -1.9916
 7075TIP3   OH242639   0.584   6.561  16.636  0.3338 -0.1687  0.0945
 7075TIP3    H142640   0.551   6.615  16.563  2.2556  0.7874 -0.1466
 7075TIP3    H242641   0.617   6.482  16.594 -0.3639 -0.5060  0.1731
 7076TIP3   OH242642   2.131   5.206   3.823  0.8637 -0.0944  0.2696
 7076TIP3    H142643   2.095   5.149   3.890 -1.1211  2.3023  1.4019
 7076TIP3    H242644   2.085   5.180   3.743  1.3630 -1.2694  0.3452
 7077TIP3   OH242645   3.158   2.940   4.651 -0.4124 -0.0237 -0.4281
 7077TIP3    H142646   3.134   3.012   4.593  0.9973 -0.6206 -1.8435
 7077TIP3    H242647   3.222   2.977   4.711 -1.0292  0.3240  0.0222
 7078TIP3   OH242648   4.372   4.941  14.606  0.1906  0.1339 -0.2544
 7078TIP3    H142649   4.293   4.905  14.647  0.9870 -1.7826 -0.2982
 7078TIP3    H242650   4.350   4.948  14.513  0.0381 -0.2781 -0.2483
 7079TIP3   OH242651   6.497   6.731  11.717 -0.8048  0.1880 -0.2686
 7079TIP3    H142652   6.579   6.762  11.680 -0.7951  0.7745  0.2461
 7079TIP3    H242653   6.523   6.665  11.782 -0.8307 -1.0330 -1.4463
 7080TIP3   OH242654   0.785   0.946   4.976 -0.4963 -0.2284  0.2083
 7080TIP3    H142655   0.870   0.911   4.948 -0.5318  0.6190 -1.0547
 7080TIP3    H242656   0.731   0.868   4.989  0.0316 -0.7352 -0.4919
 7081TIP3   OH242657   2.925   5.797  14.235 -0.3171 -0.0038 -0.1160
 7081TIP3    H142658   2.952   5.814  14.325  0.4496  1.5167 -0.6120
 7081TIP3    H242659   2.918   5.701  14.231 -1.1980 -0.0758  1.7725
 7082TIP3   OH242660   0.341   5.073  12.305 -0.5579  0.1746  0.1091
 7082TIP3    H142661   0.250   5.102  12.299 -0.7054 -0.4580 -1.0116
 7082TIP3    H242662   0.393   5.147  12.274 -0.8336 -0.1847 -1.2553
 7083TIP3   OH242663   1.761   3.946   2.848  0.1051  0.6101  0.1429
 7083TIP3    H142664   1.781   4.034   2.814 -0.8269  0.3961 -1.0477
 7083TIP3    H242665   1.781   3.887   2.776 -1.3414  0.0684  0.1416
 7084TIP3   OH242666   6.818   3.522   1.132  0.0441 -0.0774 -0.4076
 7084TIP3    H142667   6.779   3.608   1.143 -1.2221 -0.4675 -1.5196
 7084TIP3    H242668   6.744   3.462   1.126  0.8740 -1.1355 -0.4863
 7085TIP3   OH242669   0.103   0.323   5.861  0.1243  0.2087  0.1469
 7085TIP3    H142670   0.052   0.377   5.921 -1.0353  0.1586 -0.7674
 7085TIP3    H242671   0.107   0.237   5.904 -1.3484 -0.0381 -0.1680
 7086TIP3   OH242672   4.268   4.688   4.182 -0.3218 -0.0202  0.0562
 7086TIP3    H142673   4.208   4.703   4.255 -2.0643 -0.3363 -1.2094
 7086TIP3    H242674   4.285   4.594   4.185 -0.6678 -0.0934 -0.1092
 7087TIP3   OH242675   4.350   0.179  10.731  0.1100 -0.1831  0.1738
 7087TIP3    H142676   4.393   0.182  10.645  0.8213  0.5912  0.5456
 7087TIP3    H242677   4.369   0.264  10.770 -0.5866 -0.3640  0.9262
 7088TIP3   OH242678   1.515   4.933   4.208  0.2339 -0.6335 -0.8620
 7088TIP3    H142679   1.542   4.841   4.199 -0.8881 -1.0292 -0.3621
 7088TIP3    H242680   1.474   4.937   4.294  1.4097  0.6483 -0.3130
 7089TIP3   OH242681   2.867   2.766  13.013  0.3774  0.7278  0.1295
 7089TIP3    H142682   2.848   2.761  13.107  0.4419 -1.8657  0.0601
 7089TIP3    H242683   2.961   2.784  13.009  0.6364 -0.4559  0.5896
 7090TIP3   OH242684   3.131   4.261   4.080  0.0490 -0.3451 -0.8618
 7090TIP3    H142685   3.203   4.264   4.018 -0.3694  0.0485 -1.3360
 7090TIP3    H242686   3.055   4.291   4.031 -0.2849  0.0108 -0.1518
 7091TIP3   OH242687   4.196   2.044  15.975  0.1438  0.0495 -0.0730
 7091TIP3    H142688   4.208   1.952  15.950  1.3437  0.2345 -0.2366
 7091TIP3    H242689   4.243   2.093  15.908  0.9341  0.6993  0.9345
 7092TIP3   OH242690   3.762   3.291  12.890 -0.1182  0.2529 -0.2484
 7092TIP3    H142691   3.669   3.272  12.877 -0.3543  1.7232 -0.8487
 7092TIP3    H242692   3.801   3.283  12.802 -0.3254  2.9049 -0.6415
 7093TIP3   OH242693   6.199   6.418   5.082  0.3059 -0.4620 -0.0405
 7093TIP3    H142694   6.120   6.384   5.039  0.3300  1.4599 -1.7970
 7093TIP3    H242695   6.245   6.465   5.012  1.1610  1.5218  1.7582
 7094TIP3   OH242696   0.485   0.072  16.090  0.0611  0.2231 -0.0167
 7094TIP3    H142697   0.562   0.073  16.034 -0.2659 -0.7985 -0.4928
 7094TIP3    H242698   0.518   0.100  16.176  0.7001  1.0608 -0.5211
 7095TIP3   OH242699   1.529   6.203  10.790 -0.0371 -0.9354 -0.4092
 7095TIP3    H142700   1.617   6.171  10.810 -0.3140 -0.7250  1.2409
 7095TIP3    H242701   1.470   6.144  10.836 -0.7316 -0.5588 -0.7913
 7096TIP3   OH242702   4.112   5.216   3.985  0.4795  0.1828 -0.3328
 7096TIP3    H142703   4.086   5.137   4.034  2.5834 -0.8978 -0.8541
 7096TIP3    H242704   4.090   5.288   4.044 -0.2027 -0.8626  0.7509
 7097TIP3   OH242705   4.896   4.109  16.809  0.1586  0.6020 -0.3316
 7097TIP3    H142706   4.881   4.027  16.856  2.0844  0.2564 -0.2475
 7097TIP3    H242707   4.809   4.149  16.802 -0.7387 -1.1698  0.1123
 7098TIP3   OH242708   1.544   3.723   1.736 -0.2292 -0.5550  0.3445
 7098TIP3    H142709   1.568   3.687   1.651 -0.5126  0.3576 -0.1347
 7098TIP3    H242710   1.575   3.657   1.799  0.4821 -0.9848 -0.4225
 7099TIP3   OH242711   1.365   5.551   6.336 -0.0556 -0.2331  0.2816
 7099TIP3    H142712   1.272   5.543   6.317 -0.3571 -1.5995  2.0482
 7099TIP3    H242713   1.409   5.525   6.255 -1.1408  1.7018 -1.0120
 7100TIP3   OH242714   4.258   3.920  10.878  0.3873 -0.1952 -0.0661
 7100TIP3    H142715   4.224   3.989  10.819 -1.7841 -0.2127  1.0517
 7100TIP3    H242716   4.236   3.952  10.966 -1.0935 -2.4783  0.4653
 7101TIP3   OH242717   0.421   1.160   4.300  0.7077 -0.1487  0.3443
 7101TIP3    H142718   0.447   1.238   4.252 -0.2941 -0.2479 -0.3951
 7101TIP3    H242719   0.358   1.191   4.366 -3.3733 -0.7133 -2.8447
 7102TIP3   OH242720   5.696   1.888  12.539  0.2262 -0.2414 -0.0280
 7102TIP3    H142721   5.759   1.940  12.488  1.5913 -1.8082 -0.0225
 7102TIP3    H242722   5.688   1.935  12.622 -0.1581  1.0404 -0.7594
 7103TIP3   OH242723   5.450   2.544   3.745 -0.0373 -0.2815  0.3842
 7103TIP3    H142724   5.474   2.573   3.657 -0.0167  0.6905  0.6968
 7103TIP3    H242725   5.357   2.521   3.739 -1.0212  2.9564  0.7988
 7104TIP3   OH242726   2.995   4.325  13.313 -0.2368  0.0162  0.4102
 7104TIP3    H142727   2.939   4.397  13.339 -0.9137 -0.3874  0.0866
 7104TIP3    H242728   2.947   4.246  13.338  0.5302 -0.3318  0.8440
 7105TIP3   OH242729   3.383   2.613  16.097  0.5541  0.1786 -0.7172
 7105TIP3    H142730   3.339   2.593  16.014  0.7462 -1.6135 -0.4271
 7105TIP3    H242731   3.441   2.539  16.112  1.6918  1.2278  0.2611
 7106TIP3   OH242732   2.782   5.740  16.641 -0.4956 -0.6415 -0.1096
 7106TIP3    H142733   2.837   5.664  16.623 -0.0664 -0.7183  1.4306
 7106TIP3    H242734   2.742   5.761  16.556  2.0030 -0.4894 -1.3547
 7107TIP3   OH242735   2.254   5.176   4.973 -0.1503 -0.4972  0.4563
 7107TIP3    H142736   2.344   5.205   4.961 -0.1358 -0.3541  0.8820
 7107TIP3    H242737   2.257   5.121   5.051 -0.5031 -0.1507  0.7170
 7108TIP3   OH242738   5.489   0.083  16.192 -0.3644  0.3484  0.4348
 7108TIP3    H142739   5.546   0.140  16.141 -1.3093  0.9940  0.0743
 7108TIP3    H242740   5.549   0.035  16.251  0.6029  0.4874 -0.4110
 7109TIP3   OH242741   0.492   1.657   5.483  0.4011  0.2342  0.2214
 7109TIP3    H142742   0.413   1.615   5.448  0.5309  1.5406 -1.8239
 7109TIP3    H242743   0.461   1.709   5.557 -0.4205 -0.3256  0.2800
 7110TIP3   OH242744   6.273   2.513  15.280 -0.0267 -0.3711  0.0077
 7110TIP3    H142745   6.183   2.546  15.284  0.3246  0.5290  2.2687
 7110TIP3    H242746   6.326   2.592  15.268  0.5117 -0.8229 -0.6200
 7111TIP3   OH242747   0.066   1.687   0.855 -0.0705 -0.4188  0.2926
 7111TIP3    H142748   0.110   1.735   0.785 -0.7803  0.4511  0.4332
 7111TIP3    H242749   0.067   1.596   0.825  1.1628 -0.3110 -0.0375
 7112TIP3   OH242750   3.223   6.129   4.594 -0.4851  0.1590  0.3889
 7112TIP3    H142751   3.257   6.214   4.566 -0.6249 -0.4356 -1.6975
 7112TIP3    H242752   3.299   6.083   4.629 -0.3224  0.9426  1.1252
 7113TIP3   OH242753   1.680   1.802  12.356  0.1654 -0.5025 -0.8616
 7113TIP3    H142754   1.650   1.893  12.343  2.0204  0.2951  0.1050
 7113TIP3    H242755   1.730   1.782  12.277  0.6905 -0.2687 -0.5927
 7114TIP3   OH242756   1.335   3.817   2.284 -0.0825  0.0776 -0.1318
 7114TIP3    H142757   1.426   3.794   2.266 -0.2674 -1.4580  0.7386
 7114TIP3    H242758   1.287   3.785   2.207 -0.1575 -1.2478  0.4443
 7115TIP3   OH242759   1.792   4.297   1.640 -0.3403 -0.0113  0.1634
 7115TIP3    H142760   1.765   4.236   1.572  0.3888 -1.7078  1.3106
 7115TIP3    H242761   1.734   4.277   1.714  0.0353  0.5347  0.6167
 7116TIP3   OH242762   4.448   1.668   2.544  0.2783 -0.0008  0.0403
 7116TIP3    H142763   4.378   1.643   2.483 -1.2649  0.3719  1.5788
 7116TIP3    H242764   4.515   1.601   2.533  0.4715  0.5297 -2.6845
 7117TIP3   OH242765   5.193   5.902   0.488 -0.3133  0.3847 -0.1900
 7117TIP3    H142766   5.159   5.907   0.399 -1.5446  0.4413  0.2722
 7117TIP3    H242767   5.222   5.991   0.508  1.1767  0.1078 -0.9750
 7118TIP3   OH242768   2.147   0.681  13.990  0.1592  0.2313 -0.5408
 7118TIP3    H142769   2.185   0.742  13.927  0.7265  0.8469  0.3843
 7118TIP3    H242770   2.068   0.725  14.022 -0.1591 -0.1055 -0.8477
 7119TIP3   OH242771   3.350   4.989   6.341 -0.5181 -0.2747 -0.1023
 7119TIP3    H142772   3.314   4.937   6.270  0.0958 -1.6694  0.5620
 7119TIP3    H242773   3.445   4.989   6.325 -0.5019  0.6490 -0.0801
 7120TIP3   OH242774   2.811   3.883  15.155 -0.6134 -0.0441 -0.0364
 7120TIP3    H142775   2.898   3.852  15.130 -0.4256 -0.0006  0.5400
 7120TIP3    H242776   2.798   3.963  15.104 -1.2053 -1.1628 -1.7235
 7121TIP3   OH242777   2.573   6.122   4.575  0.0563  0.2623  0.3579
 7121TIP3    H142778   2.619   6.095   4.655  0.9904 -1.9863 -0.8439
 7121TIP3    H242779   2.522   6.045   4.550 -0.3648  0.9875 -1.1072
 7122TIP3   OH242780   6.796   2.626  11.323 -0.0387 -0.1819 -0.4731
 7122TIP3    H142781   6.822   2.708  11.364  1.7177 -0.9856  0.1226
 7122TIP3    H242782   6.839   2.627  11.237  0.7225 -0.8293 -0.1151
 7123TIP3   OH242783   0.629   2.747  14.129 -0.4807 -0.2168 -0.1173
 7123TIP3    H142784   0.692   2.686  14.167  0.0051  0.7772  0.7044
 7123TIP3    H242785   0.547   2.697  14.125 -0.6031 -0.3374  2.3964
 7124TIP3   OH242786   5.174   1.007   2.431 -0.0411  0.0079 -0.1893
 7124TIP3    H142787   5.212   1.094   2.436 -1.2706  0.5106  1.3447
 7124TIP3    H242788   5.113   1.011   2.357  0.3483  0.2688 -0.4952
 7125TIP3   OH242789   1.340   6.112  16.364 -0.5748 -0.1255  0.0511
 7125TIP3    H142790   1.347   6.181  16.299  0.0867 -1.5642 -1.4793
 7125TIP3    H242791   1.430   6.094  16.391 -0.8684  0.7929  1.8009
 7126TIP3   OH242792   2.891   6.579   2.354  0.2113 -0.5160 -0.3301
 7126TIP3    H142793   2.970   6.620   2.318  0.8601 -0.5880  0.9466
 7126TIP3    H242794   2.869   6.510   2.291  0.6224  0.1147 -1.1756
 7127TIP3   OH242795   6.665   4.289  12.788 -0.8786  0.4254  0.9417
 7127TIP3    H142796   6.750   4.324  12.760  1.5702 -3.3711  2.8399
 7127TIP3    H242797   6.627   4.254  12.707 -0.0183  0.9660  0.2750
 7128TIP3   OH242798   3.720   2.694  12.685  0.3247 -0.5467 -0.1997
 7128TIP3    H142799   3.717   2.631  12.757 -1.5227 -1.0781 -0.6910
 7128TIP3    H242800   3.736   2.778  12.727 -0.1992 -0.9261  0.7757
 7129TIP3   OH242801   0.777   4.588   0.596 -0.1237  0.2353 -0.1462
 7129TIP3    H142802   0.684   4.585   0.616  0.3094  0.2399  2.1209
 7129TIP3    H242803   0.801   4.497   0.578 -0.6547  0.3176 -1.3908
 7130TIP3   OH242804   2.189   1.547  14.206 -0.2771  0.5361 -0.7177
 7130TIP3    H142805   2.124   1.526  14.273  1.3381  0.7564  0.9890
 7130TIP3    H242806   2.254   1.601  14.252 -1.1601  4.3340 -3.4073
 7131TIP3   OH242807   0.253   3.567  15.075 -0.3567  0.0440 -0.1617
 7131TIP3    H142808   0.322   3.576  15.009 -0.2526 -2.0120 -0.4205
 7131TIP3    H242809   0.277   3.487  15.122 -2.0859 -0.2132  0.3272
 7132TIP3   OH242810   0.828   0.292  16.587  0.2454 -1.3964  0.2557
 7132TIP3    H142811   0.854   0.213  16.539  0.4326 -0.9217 -0.4470
 7132TIP3    H242812   0.908   0.344  16.592 -0.0034 -1.0067  0.2233
 7133TIP3   OH242813   0.040   1.346  16.089  0.0061  0.2258 -0.2308
 7133TIP3    H142814  -0.055   1.351  16.093  0.0964  1.0294  1.4896
 7133TIP3    H242815   0.060   1.253  16.105 -0.3929  0.6930  4.0558
 7134TIP3   OH242816   3.899   4.483  14.750  0.2580  0.0727  0.2893
 7134TIP3    H142817   3.952   4.424  14.696 -0.2023 -0.9923  0.9648
 7134TIP3    H242818   3.868   4.428  14.822 -0.6800  1.0054  0.6217
 7135TIP3   OH242819   6.156   5.630  12.100  0.2921 -0.6243  0.3341
 7135TIP3    H142820   6.132   5.602  12.012 -0.5558  0.4173  0.2148
 7135TIP3    H242821   6.228   5.691  12.087  0.7858 -1.1806  0.4382
 7136TIP3   OH242822   5.637   6.493  14.749  0.2353  0.4910  0.1900
 7136TIP3    H142823   5.547   6.490  14.717  1.1658  0.4453 -2.7013
 7136TIP3    H242824   5.676   6.412  14.717  1.4906  0.8406  0.8000
 7137TIP3   OH242825   2.882   6.399  13.620  0.1192 -0.1683  0.0460
 7137TIP3    H142826   2.904   6.403  13.713 -0.7105  0.1036  0.2431
 7137TIP3    H242827   2.918   6.316  13.590 -1.4522 -1.2898  1.1207
 7138TIP3   OH242828   0.431   4.535   5.036 -0.2024  0.3220  0.6242
 7138TIP3    H142829   0.424   4.629   5.049 -2.0238  0.4075 -0.5400
 7138TIP3    H242830   0.342   4.502   5.051  0.4499 -1.2709  1.2830
 7139TIP3   OH242831   4.580   5.292   2.083 -0.0985  0.6198  0.0340
 7139TIP3    H142832   4.572   5.379   2.121 -1.4812  1.1110 -1.3090
 7139TIP3    H242833   4.662   5.294   2.034 -0.2463  1.2464 -0.1892
 7140TIP3   OH242834   2.549   4.389   4.430  0.1498  0.2275  0.5105
 7140TIP3    H142835   2.482   4.362   4.492 -1.1279  2.2855  0.1325
 7140TIP3    H242836   2.507   4.382   4.344  0.8011  0.4277  0.1637
 7141TIP3   OH242837   6.257   0.677  12.091  0.7905 -0.6790 -0.0408
 7141TIP3    H142838   6.183   0.684  12.151 -0.0407  1.1756 -1.1891
 7141TIP3    H242839   6.219   0.644  12.009  1.9318 -3.3366  0.4045
 7142TIP3   OH242840   1.032   0.782   1.035 -0.3502  0.0200 -1.1912
 7142TIP3    H142841   1.031   0.700   1.085  1.4940  0.6671  0.0318
 7142TIP3    H242842   1.088   0.764   0.960  2.2594  0.7919  0.4423
 7143TIP3   OH242843   2.499   1.163   4.012 -0.1392  0.1166  0.1403
 7143TIP3    H142844   2.420   1.212   4.038 -0.6187 -0.0929 -0.9022
 7143TIP3    H242845   2.488   1.077   4.053 -0.1878  0.2615  0.4382
 7144TIP3   OH242846   2.130   3.879   4.486 -0.2903  0.2899  0.6008
 7144TIP3    H142847   2.223   3.886   4.462 -0.0307 -0.6101  1.2771
 7144TIP3    H242848   2.083   3.904   4.407  0.5356  0.1856  0.0622
 7145TIP3   OH242849   1.433   4.708  16.460  0.2687 -0.4789 -0.1617
 7145TIP3    H142850   1.396   4.776  16.517  1.4175 -0.9010  1.1433
 7145TIP3    H242851   1.524   4.733  16.449  0.7141 -1.7916  0.3506
 7146TIP3   OH242852   0.003   3.166  15.876  0.3402 -0.9295  0.1142
 7146TIP3    H142853   0.088   3.188  15.914  0.4247 -0.1594 -0.4908
 7146TIP3    H242854  -0.060   3.186  15.945  0.4220  1.2077 -0.3563
 7147TIP3   OH242855   1.269   0.260  12.906 -0.5710 -0.2441 -0.1602
 7147TIP3    H142856   1.339   0.309  12.864  0.5455 -2.5510 -1.1652
 7147TIP3    H242857   1.281   0.275  13.000  0.0597  0.9266 -0.4178
 7148TIP3   OH242858   6.475   2.131   2.681  0.2065  0.9291 -0.3214
 7148TIP3    H142859   6.438   2.044   2.694  0.1380  1.1009  0.7620
 7148TIP3    H242860   6.561   2.115   2.642  0.2503  0.3627 -0.0037
 7149TIP3   OH242861   4.355   2.283   3.618  0.1286 -0.1627 -0.3386
 7149TIP3    H142862   4.372   2.323   3.704  0.4895  0.0439 -0.5056
 7149TIP3    H242863   4.406   2.335   3.557  1.0876 -1.2418 -0.4843
 7150TIP3   OH242864   0.863   1.765   0.888  0.2975 -0.0599  0.0886
 7150TIP3    H142865   0.949   1.783   0.851  0.1512 -1.9062 -1.3278
 7150TIP3    H242866   0.859   1.669   0.894 -1.4737  0.0001  0.5560
 7151TIP3   OH242867   0.298   2.049   3.991  0.2320 -0.3047  0.2190
 7151TIP3    H142868   0.351   2.105   3.934  1.8573 -0.8720  1.1171
 7151TIP3    H242869   0.329   1.961   3.973  0.1061 -0.5778  1.2896
 7152TIP3   OH242870   5.787   2.705   1.022 -0.0187 -0.6271 -0.0930
 7152TIP3    H142871   5.772   2.666   0.936  0.3049 -1.7136  0.3406
 7152TIP3    H242872   5.877   2.682   1.044  0.5614  1.2377 -0.2629
 7153TIP3   OH242873   2.918   5.602   4.707 -0.0721 -0.7415  0.5139
 7153TIP3    H142874   2.965   5.680   4.735 -0.0958 -1.0324  1.3838
 7153TIP3    H242875   2.983   5.550   4.660  0.5969 -1.3324  2.0642
 7154TIP3   OH242876   5.953   1.740  11.400  0.2473 -1.0825  0.0316
 7154TIP3    H142877   5.868   1.756  11.440 -0.1994 -0.2276 -1.2084
 7154TIP3    H242878   6.013   1.798  11.446 -0.2498 -0.1401 -0.4866
 7155TIP3   OH242879   1.474   4.832   3.027 -0.1046 -0.4149 -0.1658
 7155TIP3    H142880   1.526   4.858   3.103 -0.4616  0.1283 -0.1051
 7155TIP3    H242881   1.538   4.826   2.956  0.2874 -1.2722  0.2446
 7156TIP3   OH242882   4.524   3.140  13.976  0.9847 -0.2671  0.0384
 7156TIP3    H142883   4.594   3.195  13.940  0.5041 -0.8297 -1.8581
 7156TIP3    H242884   4.561   3.104  14.057  1.4226  2.5347  1.2094
 7157TIP3   OH242885   3.643   5.547   5.411  0.7196  0.1476  0.0417
 7157TIP3    H142886   3.723   5.569   5.363 -0.1248  2.2966 -0.4819
 7157TIP3    H242887   3.674   5.522   5.498  2.0535 -0.7119 -0.6482
 7158TIP3   OH242888   6.684   4.178   2.787  0.3872 -1.0459 -0.3764
 7158TIP3    H142889   6.612   4.118   2.805  0.3225 -0.8482  0.0253
 7158TIP3    H242890   6.752   4.154   2.850  0.6569 -1.1989 -0.7202
 7159TIP3   OH242891   6.735   4.531  11.639 -0.2394  0.4161  0.2301
 7159TIP3    H142892   6.784   4.570  11.567 -0.3837 -0.2535 -0.2288
 7159TIP3    H242893   6.774   4.445  11.653 -0.7062  0.2294  0.4426
 7160TIP3   OH242894   2.452   1.327  12.106  0.2464  0.2378 -0.1188
 7160TIP3    H142895   2.488   1.314  12.194  1.7525  2.0365 -0.3975
 7160TIP3    H242896   2.497   1.405  12.073 -2.5614  1.5366 -1.2685
 7161TIP3   OH242897   6.012   5.248  13.541  0.0368 -0.2780 -0.5215
 7161TIP3    H142898   6.099   5.250  13.500 -0.3795  1.0607 -1.3874
 7161TIP3    H242899   5.992   5.340  13.558 -0.6345 -0.6782  0.9582
 7162TIP3   OH242900   0.122   6.635   1.690 -0.7634 -0.6247  0.0796
 7162TIP3    H142901   0.177   6.564   1.659  0.1031 -0.7146  1.7283
 7162TIP3    H242902   0.126   6.701   1.620  0.9577 -0.8857 -0.1126
 7163TIP3   OH242903   2.197   0.577   4.187  0.4370  0.9094 -0.1424
 7163TIP3    H142904   2.113   0.545   4.153 -0.9517  3.3507  0.7454
 7163TIP3    H242905   2.215   0.522   4.263 -0.0027 -0.0397 -0.6976
 7164TIP3   OH242906   5.547   0.038   0.690 -0.3285 -0.1981  0.1453
 7164TIP3    H142907   5.572   0.115   0.640  2.7153 -0.9734  0.2616
 7164TIP3    H242908   5.619   0.025   0.752 -2.7777 -0.7080  3.1223
 7165TIP3   OH242909   1.308   5.881   2.986  0.1166 -0.3767  0.1852
 7165TIP3    H142910   1.334   5.938   3.058  0.9003  0.1420 -0.4914
 7165TIP3    H242911   1.347   5.796   3.006  1.9085  0.2242 -0.4997
 7166TIP3   OH242912   4.390   1.955  14.939  0.0804  0.3842  0.2767
 7166TIP3    H142913   4.418   1.863  14.937 -0.4353  0.1479  1.9828
 7166TIP3    H242914   4.322   1.958  15.006 -0.3657  1.9113 -0.1957
 7167TIP3   OH242915   6.663   6.062  13.396  0.7916  0.1251  0.5940
 7167TIP3    H142916   6.581   6.020  13.372  2.3217 -1.6008 -2.2698
 7167TIP3    H242917   6.669   6.051  13.491 -1.5217 -1.0823  0.6750
 7168TIP3   OH242918   6.084   2.310   3.540  0.5605  0.0519  0.3862
 7168TIP3    H142919   6.015   2.244   3.544 -0.2623  0.7912 -0.8814
 7168TIP3    H242920   6.075   2.359   3.621  0.6134 -0.8379  0.9361
 7169TIP3   OH242921   2.001   2.557   5.956  0.3539  0.2927 -0.5523
 7169TIP3    H142922   1.946   2.596   6.024 -1.0424 -0.3536 -1.2746
 7169TIP3    H242923   1.996   2.619   5.884 -0.3291 -0.2880 -1.0134
 7170TIP3   OH242924   3.694   0.641  15.135 -0.1363 -0.5636  0.5415
 7170TIP3    H142925   3.710   0.678  15.221  1.8101  1.9860 -0.7856
 7170TIP3    H242926   3.605   0.669  15.113  0.5873  1.7898  0.3878
 7171TIP3   OH242927   3.800   0.442   0.713 -0.6565 -0.1519  1.0474
 7171TIP3    H142928   3.812   0.531   0.680  2.2122 -1.3229 -1.4262
 7171TIP3    H242929   3.883   0.421   0.756 -0.0428 -2.6561 -1.1865
 7172TIP3   OH242930   5.593   1.173   3.580  0.7365 -0.1593  0.5093
 7172TIP3    H142931   5.659   1.181   3.650  0.0858 -1.0215  1.2356
 7172TIP3    H242932   5.509   1.180   3.626  0.2290  3.0233 -0.6194
 7173TIP3   OH242933   2.942   4.656  17.076  0.3391  0.5642  0.0685
 7173TIP3    H142934   2.922   4.562  17.081  1.1318  0.4510  2.1759
 7173TIP3    H242935   3.034   4.659  17.051  0.4592  0.7576  0.5286
 7174TIP3   OH242936   0.373   5.258   0.155 -0.3728  0.1518  0.2241
 7174TIP3    H142937   0.388   5.280   0.063  2.5303  0.5227  0.6823
 7174TIP3    H242938   0.424   5.323   0.203 -0.8067 -0.8164  2.0504
 7175TIP3   OH242939   4.438   4.934  15.801  0.0198  0.0582  0.1473
 7175TIP3    H142940   4.506   5.000  15.812  1.2417 -1.1721  0.2495
 7175TIP3    H242941   4.403   4.950  15.713 -0.9926  1.9475  0.8280
 7176TIP3   OH242942   3.609   4.081  11.447  0.5779 -0.5337  0.3843
 7176TIP3    H142943   3.637   3.989  11.452 -0.2930 -0.7621  1.2753
 7176TIP3    H242944   3.585   4.093  11.355  0.6609 -1.2042  0.2673
 7177TIP3   OH242945   0.302   3.296  12.649 -0.0026 -0.2004 -0.5113
 7177TIP3    H142946   0.244   3.268  12.579  1.2397  1.0509 -2.1118
 7177TIP3    H242947   0.355   3.219  12.669 -1.6326 -1.1392  0.4653
 7178TIP3   OH242948   2.766   2.954  12.873  0.2476  0.3559  0.2034
 7178TIP3    H142949   2.809   2.906  12.944 -1.6146 -0.2062  1.0188
 7178TIP3    H242950   2.684   2.986  12.911 -0.6001  0.4386 -1.5662
 7179TIP3   OH242951   6.192   1.814  16.953 -0.7268 -0.4538  0.2193
 7179TIP3    H142952   6.141   1.846  17.028  0.2015 -0.2590  0.7850
 7179TIP3    H242953   6.242   1.891  16.924  1.7603 -1.3572  1.7807
 7180TIP3   OH242954   5.075   5.088  14.918  0.1422  0.2192  0.2266
 7180TIP3    H142955   5.009   5.020  14.929  1.5357 -0.8863  3.0972
 7180TIP3    H242956   5.033   5.168  14.950 -0.3666 -0.1028  0.3805
 7181TIP3   OH242957   0.793   5.408  12.710 -0.5418  0.2378  0.0023
 7181TIP3    H142958   0.825   5.447  12.792 -1.4876  1.6150 -0.2540
 7181TIP3    H242959   0.755   5.325  12.737  2.7804 -1.3079  0.3788
 7182TIP3   OH242960   3.183   0.869   1.665  0.0425  0.4571 -0.1038
 7182TIP3    H142961   3.248   0.845   1.599 -0.3649  0.6809 -0.5920
 7182TIP3    H242962   3.157   0.958   1.642 -0.7907  0.1953 -0.2035
 7183TIP3   OH242963   5.869   1.423   0.545 -0.0017  0.1816 -0.1014
 7183TIP3    H142964   5.920   1.442   0.624 -1.3349  1.1747  0.5464
 7183TIP3    H242965   5.935   1.402   0.479  1.1474 -0.7296  1.2646
 7184TIP3   OH242966   3.509   0.744   3.211 -0.2205  0.4736  0.1128
 7184TIP3    H142967   3.596   0.727   3.246 -0.3733 -0.2171  0.1710
 7184TIP3    H242968   3.505   0.692   3.130 -0.6007  0.4398  0.1504
 7185TIP3   OH242969   6.426   6.664   2.960 -0.0401 -0.2255 -0.0266
 7185TIP3    H142970   6.409   6.710   2.877 -0.4644 -0.0695  0.1417
 7185TIP3    H242971   6.517   6.684   2.980 -0.1832  0.4414 -0.0237
 7186TIP3   OH242972   1.678   4.189   4.016 -0.1762 -0.3967  0.1174
 7186TIP3    H142973   1.760   4.224   4.052  0.5840 -2.1383  0.2012
 7186TIP3    H242974   1.695   4.180   3.922  0.4160 -2.3622  0.3609
 7187TIP3   OH242975   5.150   1.577  11.697  0.0681 -0.1713  0.1214
 7187TIP3    H142976   5.116   1.488  11.689 -0.0139 -0.0286 -1.3095
 7187TIP3    H242977   5.093   1.618  11.763  0.8846 -1.5132  1.7383
 7188TIP3   OH242978   3.458   6.719  15.037  0.0723  0.1058  0.4050
 7188TIP3    H142979   3.485   6.744  15.125  1.1892  0.6525 -0.0719
 7188TIP3    H242980   3.539   6.694  14.993 -0.2844  0.9942 -0.8258
 7189TIP3   OH242981   6.162   4.492  15.716  0.5053  0.4700  0.2464
 7189TIP3    H142982   6.246   4.475  15.673  0.9589  0.2434  1.1912
 7189TIP3    H242983   6.168   4.444  15.798 -2.0224 -2.6924 -1.2166
 7190TIP3   OH242984   4.211   0.697   5.814  0.5312 -0.9286  0.1546
 7190TIP3    H142985   4.217   0.605   5.840  0.3569 -1.0665 -0.2830
 7190TIP3    H242986   4.143   0.699   5.746  2.1311 -0.8544 -1.5410
 7191TIP3   OH242987   1.313   3.126  12.324  0.6161  0.6328  0.0611
 7191TIP3    H142988   1.376   3.063  12.291  0.1389  0.3887 -0.3900
 7191TIP3    H242989   1.367   3.199  12.355  1.1438  0.2023  0.1763
 7192TIP3   OH242990   0.972   3.237  14.132 -0.5633  0.5946 -0.2237
 7192TIP3    H142991   0.930   3.185  14.063 -3.5200  1.3395  0.8686
 7192TIP3    H242992   1.023   3.173  14.182 -0.7293 -0.4788 -1.3748
 7193TIP3   OH242993   3.193   1.301   2.739 -0.7864 -0.1745 -0.1701
 7193TIP3    H142994   3.148   1.343   2.665  1.4730  0.4747 -1.2542
 7193TIP3    H242995   3.241   1.372   2.781 -0.2510 -0.9503  0.5556
 7194TIP3   OH242996   4.994   3.388  15.522 -0.0015 -0.3209 -0.2132
 7194TIP3    H142997   4.905   3.401  15.492  0.1752 -1.3323 -1.2641
 7194TIP3    H242998   5.007   3.454  15.590 -1.4532 -0.0008 -0.2200
 7195TIP3   OH242999   3.643   5.916  11.139  0.2299  0.4591 -0.8142
 7195TIP3    H143000   3.723   5.948  11.181  0.0955  2.8185 -2.1871
 7195TIP3    H243001   3.672   5.878  11.057 -0.0019  1.2005 -1.2550
 7196TIP3   OH243002   4.298   6.614   4.338 -0.3603  0.2660  0.0287
 7196TIP3    H143003   4.277   6.590   4.428 -0.1589 -1.3311 -0.3147
 7196TIP3    H243004   4.389   6.586   4.327 -0.3316  0.5981 -0.6187
 7197TIP3   OH243005   1.520   1.105   4.161 -1.2005 -0.4558  0.4649
 7197TIP3    H143006   1.459   1.087   4.090 -2.1911  0.8952  0.9540
 7197TIP3    H243007   1.600   1.135   4.117 -1.6195 -0.1582 -0.0976
 7198TIP3   OH243008   4.287   0.821  13.904  0.5834  0.4814 -0.1934
 7198TIP3    H143009   4.208   0.820  13.850 -0.8582  0.4472  1.8073
 7198TIP3    H243010   4.270   0.756  13.972  1.3328  2.0922  1.6202
 7199TIP3   OH243011   2.485   0.441   3.217 -0.4132  0.0692 -1.1343
 7199TIP3    H143012   2.546   0.461   3.288 -1.0975 -0.1253 -0.4758
 7199TIP3    H243013   2.515   0.495   3.144 -0.4511  1.2670 -0.3015
 7200TIP3   OH243014   5.173   5.166   1.773 -0.3639 -0.5027 -0.9219
 7200TIP3    H143015   5.222   5.175   1.855 -1.6714  0.2851 -0.1875
 7200TIP3    H243016   5.216   5.094   1.727  1.6364  0.3161 -0.4589
 7201TIP3   OH243017   0.390   4.656   3.168  0.2887 -0.3024 -0.6173
 7201TIP3    H143018   0.394   4.567   3.136 -0.0759  0.2421 -2.2689
 7201TIP3    H243019   0.461   4.662   3.233 -0.9788 -2.3310  1.0815
 7202TIP3   OH243020   2.581   0.113  15.673  0.3010  0.4065 -0.0488
 7202TIP3    H143021   2.676   0.114  15.676  0.2678  1.0014  1.2590
 7202TIP3    H243022   2.557   0.021  15.681  0.7758  0.1150 -1.6853
 7203TIP3   OH243023   5.326   2.041   4.363 -0.2114 -0.0168 -0.0162
 7203TIP3    H143024   5.245   2.090   4.372 -0.0320 -0.0417  2.4190
 7203TIP3    H243025   5.348   2.014   4.452  4.0038  2.5121 -0.0033
 7204TIP3   OH243026   0.538   1.863  16.147 -0.5204  0.4157  0.0486
 7204TIP3    H143027   0.521   1.775  16.183 -1.3527 -0.2763 -1.9249
 7204TIP3    H243028   0.459   1.913  16.167 -1.3527 -0.2270 -1.5092
 7205TIP3   OH243029   0.569   6.788   5.971 -0.4893  0.2971 -0.1763
 7205TIP3    H143030   0.553   6.707   6.020 -0.5232  0.7139  0.5283
 7205TIP3    H243031   0.659   6.811   5.993 -0.5341  0.5315 -0.2374
 7206TIP3   OH243032   3.476   3.673   3.636  0.2180  0.2659  0.7033
 7206TIP3    H143033   3.524   3.630   3.565 -0.3262  0.4007  0.2474
 7206TIP3    H243034   3.538   3.673   3.709  1.1208  0.9257 -0.0236
 7207TIP3   OH243035   2.659   3.495   6.826  0.0260  0.3244 -0.3603
 7207TIP3    H143036   2.625   3.557   6.761  0.1516  0.1801 -0.5632
 7207TIP3    H243037   2.671   3.413   6.778 -1.9141 -0.4190  0.3201
 7208TIP3   OH243038   3.544   6.201   2.069  0.0067 -0.0061 -0.6203
 7208TIP3    H143039   3.556   6.295   2.077  0.4891 -0.1788  1.2523
 7208TIP3    H243040   3.633   6.165   2.071 -0.2330 -0.6064  1.0495
 7209TIP3   OH243041   3.319   6.137  11.496  0.0207 -0.2695 -0.4605
 7209TIP3    H143042   3.373   6.069  11.455 -0.5570 -0.0249 -1.6832
 7209TIP3    H243043   3.311   6.205  11.429 -0.0623  0.6524  0.4683
 7210TIP3   OH243044   6.674   6.205   1.924 -0.1682  0.2215 -0.1441
 7210TIP3    H143045   6.601   6.158   1.883 -0.6854  0.6778  0.2330
 7210TIP3    H243046   6.720   6.246   1.851 -0.7901  0.6192 -0.3278
 7211TIP3   OH243047   0.838   1.610  16.894 -0.0975  0.4845 -0.5970
 7211TIP3    H143048   0.755   1.610  16.846  0.1293 -2.4969 -1.1976
 7211TIP3    H243049   0.825   1.548  16.966  0.8382  1.9134  0.8789
 7212TIP3   OH243050   2.305   4.573   2.476  0.7186 -0.2030 -0.2578
 7212TIP3    H143051   2.276   4.576   2.567 -0.3778 -0.9446 -0.5646
 7212TIP3    H243052   2.397   4.601   2.479 -0.2022  3.1287  0.6447
 7213TIP3   OH243053   6.121   0.585   0.479  0.2209  0.1925  0.0214
 7213TIP3    H143054   6.130   0.585   0.384 -3.3544 -1.2683 -0.4679
 7213TIP3    H243055   6.082   0.671   0.499 -1.1133 -0.3359 -0.1870
 7214TIP3   OH243056   5.637   6.185  16.897  0.7377  0.3527 -0.2086
 7214TIP3    H143057   5.643   6.220  16.986  2.9644  1.4556 -0.7092
 7214TIP3    H243058   5.610   6.260  16.844  0.0198 -0.1452 -0.5643
 7215TIP3   OH243059   2.078   3.409   6.103 -0.2541  0.1560  0.3681
 7215TIP3    H143060   2.064   3.332   6.048 -0.4908  1.3227 -1.2810
 7215TIP3    H243061   2.034   3.389   6.185 -2.0244 -0.6940 -0.7381
 7216TIP3   OH243062   3.095   2.369  16.769  0.3896  0.5295 -0.5923
 7216TIP3    H143063   3.076   2.445  16.714  0.6108  0.2249 -1.0949
 7216TIP3    H243064   3.105   2.405  16.857  0.9717  1.1624 -0.9066
 7217TIP3   OH243065   0.277   3.945   4.627 -0.6861  0.1155 -0.0712
 7217TIP3    H143066   0.293   3.898   4.709 -1.0403  1.0835  0.5575
 7217TIP3    H243067   0.217   4.015   4.650  0.2031  1.1908 -0.8867
 7218TIP3   OH243068   1.031   1.135   0.885  0.4058  0.3534  0.0450
 7218TIP3    H143069   1.048   1.223   0.851  2.0201  0.4224  0.9340
 7218TIP3    H243070   1.076   1.076   0.825 -0.7010  0.1008 -0.5682
 7219TIP3   OH243071   1.264   3.324   0.485 -0.3165  0.3070 -0.8796
 7219TIP3    H143072   1.273   3.418   0.473 -0.8614  0.2050 -2.2803
 7219TIP3    H243073   1.293   3.308   0.575 -2.0883  2.0658  0.0819
 7220TIP3   OH243074   6.654   4.803   5.787  0.6422  0.1572 -0.2638
 7220TIP3    H143075   6.604   4.821   5.867  0.3929  1.9760 -0.7792
 7220TIP3    H243076   6.677   4.890   5.754  1.8068 -0.5947 -1.5177
 7221TIP3   OH243077   6.566   5.931  11.135 -0.0552 -0.4896  0.1267
 7221TIP3    H143078   6.662   5.936  11.138 -0.0885  0.9550 -0.2169
 7221TIP3    H243079   6.547   5.885  11.053  0.3476 -0.2657 -0.0975
 7222TIP3   OH243080   6.654   5.058  16.820 -0.1760 -0.5943  0.3364
 7222TIP3    H143081   6.599   5.064  16.897 -0.6476 -0.3012 -0.0180
 7222TIP3    H243082   6.692   5.145  16.811 -0.6148 -0.4430 -0.1172
 7223TIP3   OH243083   3.755   2.136  16.916 -0.0823  0.4509  0.4484
 7223TIP3    H143084   3.728   2.072  16.850  0.9851 -0.5931  0.9648
 7223TIP3    H243085   3.849   2.149  16.899  0.0251  0.7710  1.2526
 7224TIP3   OH243086   2.574   1.326  12.381 -0.5042  0.3216  0.5040
 7224TIP3    H143087   2.581   1.416  12.349  0.9637 -0.0044 -0.2123
 7224TIP3    H243088   2.611   1.329  12.469 -0.9175  0.5012  0.6748
 7225TIP3   OH243089   3.950   5.889   0.901  0.4394 -0.9495 -0.6842
 7225TIP3    H143090   4.023   5.862   0.958  0.1648 -1.1212 -0.4116
 7225TIP3    H243091   3.958   5.834   0.824  1.3431 -0.1159 -1.2179
 7226TIP3   OH243092   0.089   6.351   5.097  0.0379  0.3920 -0.5591
 7226TIP3    H143093   0.041   6.401   5.163  1.0749 -0.8843  1.2443
 7226TIP3    H243094   0.022   6.296   5.055 -0.6783  1.4171 -0.8011
 7227TIP3   OH243095   5.855   6.581  15.959  0.7477  0.3077  0.0019
 7227TIP3    H143096   5.841   6.496  16.002  0.2709  0.4025  0.0406
 7227TIP3    H243097   5.934   6.615  15.999 -0.4010  1.0120  1.8180
 7228TIP3   OH243098   1.818   3.767   0.962 -0.1675 -0.6865 -0.0381
 7228TIP3    H143099   1.882   3.751   0.892 -0.1910  0.4092 -0.3397
 7228TIP3    H243100   1.850   3.845   1.007 -1.7918  0.5302 -0.8530
 7229TIP3   OH243101   1.533   2.737  14.884 -0.0685  0.6578 -0.1657
 7229TIP3    H143102   1.550   2.679  14.959  1.5273  1.8071  0.3945
 7229TIP3    H243103   1.450   2.705  14.848  0.0243 -1.0323  1.0177
 7230TIP3   OH243104   3.074   0.993  14.128 -0.1357 -0.3194  0.3004
 7230TIP3    H143105   3.067   0.915  14.073 -3.2816 -1.1646  1.6705
 7230TIP3    H243106   3.077   1.066  14.067  1.2212 -1.3984 -1.0002
 7231TIP3   OH243107   2.269   4.334  13.148  0.1580 -0.0204  0.0155
 7231TIP3    H143108   2.230   4.251  13.174  1.6436 -0.7626 -0.0393
 7231TIP3    H243109   2.277   4.384  13.230 -0.0333 -0.2294  0.1628
 7232TIP3   OH243110   6.150   6.716   3.781 -0.2029 -0.0688  0.0829
 7232TIP3    H143111   6.152   6.807   3.810  0.5933 -0.3133  0.8468
 7232TIP3    H243112   6.236   6.681   3.806 -0.3386 -0.9148 -0.5787
 7233TIP3   OH243113   1.300   1.466  14.616  0.0585 -0.0897  0.3271
 7233TIP3    H143114   1.273   1.375  14.629  1.3852 -0.2123  2.6024
 7233TIP3    H243115   1.309   1.474  14.521 -0.9190 -2.0600  0.0052
 7234TIP3   OH243116   0.875   6.378   5.056  0.1241  0.6973 -0.2284
 7234TIP3    H143117   0.783   6.404   5.053 -0.2959 -0.7478 -0.6426
 7234TIP3    H243118   0.883   6.328   5.137  0.1148 -0.6073 -0.9978
 7235TIP3   OH243119   4.668   4.935   2.628 -0.3519 -0.0388  0.2036
 7235TIP3    H143120   4.638   5.023   2.602  1.9546  1.0737  1.0238
 7235TIP3    H243121   4.647   4.929   2.721  3.6136  1.7071  1.4250
 7236TIP3   OH243122   6.508   1.521  15.766 -0.9080 -0.5128  0.1929
 7236TIP3    H143123   6.431   1.564  15.731  0.4920  1.0615 -1.1332
 7236TIP3    H243124   6.486   1.503  15.858 -2.2212  1.4309  0.3145
 7237TIP3   OH243125   4.739   1.028   3.665 -0.4005  0.0407  0.5341
 7237TIP3    H143126   4.744   1.116   3.702 -0.5343  0.1553  0.2818
 7237TIP3    H243127   4.669   1.033   3.601 -1.2651 -0.5836  1.4029
 7238TIP3   OH243128   6.133   1.412   1.775 -0.2994 -0.0992  0.0576
 7238TIP3    H143129   6.086   1.432   1.694  2.3237 -0.1758 -1.5852
 7238TIP3    H243130   6.141   1.497   1.819  1.9708  0.8630 -1.9523
 7239TIP3   OH243131   1.570   2.848   0.335 -0.2111 -0.1825  0.0029
 7239TIP3    H143132   1.598   2.924   0.284 -2.3483  1.7517  1.4730
 7239TIP3    H243133   1.518   2.886   0.407 -2.6148 -3.1113 -0.0026
 7240TIP3   OH243134   1.427   2.214  13.945  0.2718  0.0793  0.2318
 7240TIP3    H143135   1.388   2.284  13.998 -0.6477 -0.6922  0.5899
 7240TIP3    H243136   1.447   2.145  14.008 -1.7915 -1.2778 -0.5315
 7241TIP3   OH243137   1.045   1.235   3.721 -0.2834 -0.2564 -0.1521
 7241TIP3    H143138   1.119   1.271   3.769 -0.8223 -0.7935  1.1570
 7241TIP3    H243139   1.075   1.149   3.691 -0.2294 -0.2853 -0.0141
 7242TIP3   OH243140   2.831   0.707  14.885 -0.3620  0.0294 -0.2195
 7242TIP3    H143141   2.872   0.790  14.863  0.1113  0.0877  0.8104
 7242TIP3    H243142   2.783   0.724  14.966  0.3013 -0.8513  0.3873
 7243TIP3   OH243143   2.342   5.394  11.336  0.5279 -0.6291 -0.1520
 7243TIP3    H143144   2.395   5.363  11.409 -0.4960 -0.7955  0.5446
 7243TIP3    H243145   2.394   5.374  11.258  2.4839  1.2103  0.5648
 7244TIP3   OH243146   3.382   6.247   2.702 -0.0566 -0.3545  0.2635
 7244TIP3    H143147   3.340   6.284   2.624  1.1420  0.1796 -0.1410
 7244TIP3    H243148   3.469   6.220   2.673 -0.1528 -1.6032  1.0574
 7245TIP3   OH243149   0.152   0.567  14.714  0.3965  0.0612 -0.5032
 7245TIP3    H143150   0.150   0.477  14.745 -0.1942  0.1183 -0.3797
 7245TIP3    H243151   0.191   0.561  14.627 -1.9622 -0.6453 -1.5850
 7246TIP3   OH243152   5.495   3.800  16.426 -0.3743 -0.4693  0.1105
 7246TIP3    H143153   5.542   3.878  16.454  0.9896 -1.1650 -0.1838
 7246TIP3    H243154   5.454   3.826  16.343 -1.6070  0.5239  0.9823
 7247TIP3   OH243155   5.236   3.097  13.128  0.0247 -0.0990  0.0109
 7247TIP3    H143156   5.316   3.114  13.079  0.4154 -1.3479  0.1820
 7247TIP3    H243157   5.188   3.180  13.125  0.4737  0.1340 -1.6505
 7248TIP3   OH243158   6.456   5.696   2.933 -0.2704 -0.1626  0.2307
 7248TIP3    H143159   6.409   5.745   3.001  2.0820 -0.0972  1.9341
 7248TIP3    H243160   6.402   5.619   2.917 -1.2943  0.2378  1.6017
 7249TIP3   OH243161   5.182   0.402  12.503  0.3066  0.2139  0.0785
 7249TIP3    H143162   5.194   0.478  12.445 -1.4047  0.9295  0.6160
 7249TIP3    H243163   5.115   0.349  12.459  1.3877 -0.9639 -0.2247
 7250TIP3   OH243164   5.721   0.470   5.976  0.3593 -0.2051  0.0526
 7250TIP3    H143165   5.696   0.388   6.019  1.3811  0.0903  1.2775
 7250TIP3    H243166   5.646   0.529   5.991  0.2365 -0.4589  0.4550
 7251TIP3   OH243167   1.024   5.657   0.071  0.1361  0.1752 -0.1465
 7251TIP3    H143168   1.001   5.585   0.129 -2.4017  0.8452 -0.2106
 7251TIP3    H243169   1.078   5.715   0.124 -0.7731 -0.0266  1.0312
 7252TIP3   OH243170   1.583   1.628   2.749 -0.1200  0.1064 -0.2163
 7252TIP3    H143171   1.499   1.584   2.762  0.7788 -1.7091 -0.1485
 7252TIP3    H243172   1.563   1.721   2.756 -2.1521 -0.2629 -0.4316
 7253TIP3   OH243173   0.648   0.149   2.668  0.8088 -0.1300 -0.6640
 7253TIP3    H143174   0.600   0.205   2.608 -0.9617 -1.6062 -0.7016
 7253TIP3    H243175   0.716   0.108   2.614  2.6544  2.4354 -0.4793
 7254TIP3   OH243176   1.510   2.615  11.081 -0.2571  0.5079 -0.0136
 7254TIP3    H143177   1.471   2.661  11.155  0.0311 -0.9817  1.1114
 7254TIP3    H243178   1.540   2.684  11.022  0.4557  1.7706  1.7560
 7255TIP3   OH243179   2.122   6.604   0.495  0.1278 -0.4832  0.0839
 7255TIP3    H143180   2.101   6.514   0.470  1.8359 -0.9563  0.2390
 7255TIP3    H243181   2.209   6.619   0.458  0.3552  0.7062  1.0554
 7256TIP3   OH243182   6.528   3.979  14.865 -0.3631 -0.0766 -0.6212
 7256TIP3    H143183   6.603   4.012  14.815  1.0773 -0.7890  0.9814
 7256TIP3    H243184   6.531   4.029  14.946  0.0787 -2.0244  0.6098
 7257TIP3   OH243185   4.451   0.044   6.454 -0.3449 -0.0780 -0.0931
 7257TIP3    H143186   4.392   0.119   6.443  0.3244  0.3208 -1.0907
 7257TIP3    H243187   4.399  -0.031   6.424 -1.6433 -0.3435  2.5394
 7258TIP3   OH243188   1.329   2.527  15.257 -0.0422 -0.1290  0.4616
 7258TIP3    H143189   1.275   2.537  15.179  0.1641  0.9555  0.4450
 7258TIP3    H243190   1.415   2.503  15.224 -0.1082 -0.2781  0.3957
 7259TIP3   OH243191   6.671   0.729   6.154  0.5343  0.1158 -0.3780
 7259TIP3    H143192   6.587   0.775   6.152  1.0905  1.1676 -1.5336
 7259TIP3    H243193   6.653   0.647   6.200 -0.6583  1.1766  1.1472
 7260TIP3   OH243194   2.728   5.659  11.964  0.5079  0.1525  0.5292
 7260TIP3    H143195   2.670   5.645  12.039  0.1295 -1.7386 -0.0457
 7260TIP3    H243196   2.723   5.753  11.946 -0.2945  0.4449  2.1376
 7261TIP3   OH243197   1.590   1.421  16.289 -0.1894  0.6953  0.2105
 7261TIP3    H143198   1.513   1.421  16.231  0.5699  0.0853 -0.8370
 7261TIP3    H243199   1.561   1.375  16.367 -0.6586 -0.2806 -0.5157
 7262TIP3   OH243200   2.783   1.702  14.201 -0.6224  0.5777  0.3587
 7262TIP3    H143201   2.827   1.635  14.252 -1.4170  1.3256  2.0949
 7262TIP3    H243202   2.729   1.653  14.138 -0.7107 -0.3978  1.1790
 7263TIP3   OH243203   0.710   6.544   2.495  0.0461  0.4694  0.1749
 7263TIP3    H143204   0.714   6.469   2.554 -0.5762  0.1219 -0.2089
 7263TIP3    H243205   0.630   6.591   2.521 -1.2767 -0.6888 -1.5188
 7264TIP3   OH243206   4.561   4.650  12.739 -0.1559 -0.3061 -0.3785
 7264TIP3    H143207   4.593   4.573  12.786  0.5523 -0.4677 -1.0985
 7264TIP3    H243208   4.640   4.690  12.702 -0.1644  2.2393  2.0699
 7265TIP3   OH243209   5.916   3.459  12.675  0.0897  0.6079 -0.0285
 7265TIP3    H143210   5.889   3.379  12.630  2.4062  1.6704 -3.6839
 7265TIP3    H243211   5.836   3.512  12.677 -0.9258 -0.8447  0.4113
 7266TIP3   OH243212   5.576   5.102   5.827  0.1668  0.3564  0.4533
 7266TIP3    H143213   5.544   5.013   5.838  1.5833  0.0676  3.1184
 7266TIP3    H243214   5.553   5.125   5.737 -3.1321 -1.4571  0.6815
 7267TIP3   OH243215   0.489   3.905   4.426 -0.2067 -0.2800  0.0609
 7267TIP3    H143216   0.423   3.903   4.495 -0.7781 -1.9932 -0.4815
 7267TIP3    H243217   0.571   3.924   4.472 -0.8094  0.1686  0.9773
 7268TIP3   OH243218   2.276   0.099  10.820 -0.3158 -0.4512 -0.1151
 7268TIP3    H143219   2.230   0.039  10.762 -3.4165  1.2692  0.2799
 7268TIP3    H243220   2.259   0.186  10.783 -2.0693  0.6890  2.9166
 7269TIP3   OH243221   4.218   3.085   0.281  0.2159  0.0007 -0.0132
 7269TIP3    H143222   4.222   3.079   0.377 -0.6927  0.0332  0.0432
 7269TIP3    H243223   4.237   2.997   0.251 -2.0995 -0.7052  0.3390
 7270TIP3   OH243224   2.764   0.945   4.157  0.1474 -0.3428 -0.3876
 7270TIP3    H143225   2.796   0.855   4.155 -0.1621 -0.4468 -1.7265
 7270TIP3    H243226   2.672   0.938   4.131  0.0437  0.3255 -0.2103
 7271TIP3   OH243227   4.056   6.025  12.236  0.2183  0.6035  0.0718
 7271TIP3    H143228   4.117   5.986  12.299  0.5595 -0.3091 -0.8061
 7271TIP3    H243229   4.111   6.055  12.164 -0.3647 -0.2231 -0.7267
 7272TIP3   OH243230   4.955   2.264  16.356 -0.4418  0.3758  1.0845
 7272TIP3    H143231   4.883   2.289  16.413 -1.2627  1.5277 -0.4010
 7272TIP3    H243232   4.922   2.275  16.268  1.6088  1.1215  0.3384
 7273TIP3   OH243233   2.874   1.972   4.141 -0.4939 -0.4215 -0.2645
 7273TIP3    H143234   2.824   1.947   4.218 -0.4908  0.4944  0.0466
 7273TIP3    H243235   2.950   2.018   4.175 -0.7735  0.4874 -0.8154
 7274TIP3   OH243236   6.810   4.859   4.696  0.1199 -0.4569 -0.4286
 7274TIP3    H143237   6.779   4.899   4.615 -0.5497  1.1771  0.5745
 7274TIP3    H243238   6.855   4.930   4.741  0.6836 -1.3996  0.5335
 7275TIP3   OH243239   5.351   0.318   0.369  0.0513 -0.4684  0.6232
 7275TIP3    H143240   5.355   0.400   0.418 -0.3636 -0.7139  1.0738
 7275TIP3    H243241   5.439   0.281   0.378  0.8894  0.8876 -1.2974
 7276TIP3   OH243242   5.887   2.541   5.074  0.4139 -0.0606  0.0333
 7276TIP3    H143243   5.936   2.620   5.048  0.2481  0.7117  1.9157
 7276TIP3    H243244   5.847   2.564   5.157 -1.5852 -1.3508 -0.4894
 7277TIP3   OH243245   4.217   1.389   5.015 -0.1672 -0.0454  0.1101
 7277TIP3    H143246   4.261   1.472   5.000  0.2513  0.0003  1.4953
 7277TIP3    H243247   4.158   1.405   5.088  0.3667 -1.0949  0.8116
 7278TIP3   OH243248   2.159   1.647   0.708  0.1714  0.3386  0.1845
 7278TIP3    H143249   2.221   1.621   0.640 -0.8081  2.3328 -1.5910
 7278TIP3    H243250   2.195   1.728   0.744 -0.5684  0.6426  0.2674
 7279TIP3   OH243251   6.658   6.166  14.606  0.2939  0.3003 -0.0388
 7279TIP3    H143252   6.656   6.134  14.696 -0.3508 -0.8173 -0.4228
 7279TIP3    H243253   6.751   6.172  14.585  0.4587  0.9706  0.8303
 7280TIP3   OH243254   1.316   2.909  14.915 -0.0913 -0.3610 -0.1043
 7280TIP3    H143255   1.410   2.895  14.924  0.0533  1.2934  1.7628
 7280TIP3    H243256   1.276   2.854  14.982 -0.3379 -0.0505  0.0106
 7281TIP3   OH243257   1.359   0.079   1.543  0.4627 -0.1198  0.1658
 7281TIP3    H143258   1.348   0.041   1.631  0.2917  0.0018  0.1980
 7281TIP3    H243259   1.444   0.122   1.546 -0.2902  1.4125  0.8484
 7282TIP3   OH243260   5.950   5.643   3.655  0.2014 -0.1684  0.3435
 7282TIP3    H143261   5.922   5.553   3.638  0.7631 -0.3787  0.5095
 7282TIP3    H243262   5.870   5.687   3.686 -0.3688 -0.2717 -0.9378
 7283TIP3   OH243263   6.551   5.746  15.354 -0.1493  0.0564 -0.3334
 7283TIP3    H143264   6.568   5.652  15.351 -0.8501 -0.1494  1.2029
 7283TIP3    H243265   6.605   5.782  15.283 -0.5048 -1.5700 -1.4853
 7284TIP3   OH243266   2.022   1.392   5.966 -0.4032  0.3742 -0.3550
 7284TIP3    H143267   1.972   1.466   5.931 -1.4056  0.1234  0.5371
 7284TIP3    H243268   1.970   1.315   5.945  0.0407  0.0237 -0.1944
 7285TIP3   OH243269   5.970   4.109   4.404 -0.1101 -0.3092 -0.1517
 7285TIP3    H143270   6.047   4.104   4.347  0.0164  1.7264 -0.2216
 7285TIP3    H243271   5.967   4.024   4.448  0.9405 -1.1987 -1.7078
 7286TIP3   OH243272   4.274   0.925   3.137  0.2553 -0.3143  0.2587
 7286TIP3    H143273   4.370   0.926   3.135  0.2538  0.0495  0.1464
 7286TIP3    H243274   4.250   1.017   3.152 -0.1079 -0.0845 -1.5223
 7287TIP3   OH243275   2.164   0.146   5.697 -0.4058 -0.8389 -0.1023
 7287TIP3    H143276   2.177   0.160   5.791  0.3096 -1.1291 -0.1522
 7287TIP3    H243277   2.097   0.210   5.673  1.5418  1.3725  0.0116
 7288TIP3   OH243278   5.718   1.036  10.732  0.4903 -0.5760 -0.3761
 7288TIP3    H143279   5.685   1.057  10.819  0.6709 -0.0723 -0.4284
 7288TIP3    H243280   5.681   1.104  10.675 -0.7003 -1.6332 -0.9329
 7289TIP3   OH243281   0.237   0.505  11.366 -0.0143 -0.1927 -0.0100
 7289TIP3    H143282   0.292   0.494  11.444 -2.3917 -0.6900  1.6912
 7289TIP3    H243283   0.227   0.599  11.356 -0.6397 -0.1322  1.0372
 7290TIP3   OH243284   1.828   4.790  13.933  0.5464  0.2528  0.5703
 7290TIP3    H143285   1.859   4.714  13.982  0.7318  0.8435  1.4102
 7290TIP3    H243286   1.875   4.787  13.850  0.8693 -0.3187  0.7717
 7291TIP3   OH243287   2.465   5.771  12.870  0.1450 -0.2023  0.2064
 7291TIP3    H143288   2.414   5.789  12.949  0.8321  0.7757  0.4404
 7291TIP3    H243289   2.537   5.715  12.901  0.0963 -0.2873  0.1654
 7292TIP3   OH243290   2.287   3.596  15.451 -0.1546 -0.3085  0.1992
 7292TIP3    H143291   2.238   3.639  15.381  1.0308  1.0400  0.1447
 7292TIP3    H243292   2.249   3.630  15.532  0.7721  0.9077  0.1562
 7293TIP3   OH243293   3.684   5.842   0.933 -0.4064 -0.6535  0.3816
 7293TIP3    H143294   3.658   5.799   0.851 -1.2520  1.9377 -0.7968
 7293TIP3    H243295   3.777   5.861   0.922  0.0384 -2.2760  1.0148
 7294TIP3   OH243296   1.865   0.700  12.854  0.5610  0.8677 -0.5911
 7294TIP3    H143297   1.787   0.752  12.834 -1.1169 -1.4199 -0.4165
 7294TIP3    H243298   1.885   0.655  12.773  2.0683  1.7864 -0.7716
 7295TIP3   OH243299   4.976   4.053  12.712  1.0583 -0.6313 -0.4030
 7295TIP3    H143300   4.976   3.958  12.697  0.6214 -0.5202 -1.1651
 7295TIP3    H243301   4.929   4.089  12.637  1.2570  0.1974 -0.1405
 7296TIP3   OH243302   4.993   3.445   6.276 -0.1768  0.5838 -0.3434
 7296TIP3    H143303   5.086   3.470   6.269 -0.1972  0.4887 -1.0394
 7296TIP3    H243304   4.946   3.528   6.269 -0.1477  0.6484  0.1468
 7297TIP3   OH243305   3.572   2.868   4.395 -0.9171 -0.1944  0.3025
 7297TIP3    H143306   3.520   2.807   4.448  0.3101 -0.8102  0.8556
 7297TIP3    H243307   3.573   2.949   4.445  0.5919 -0.8969  1.5194
 7298TIP3   OH243308   1.894   2.085   4.292  0.1143 -0.3586  0.1440
 7298TIP3    H143309   1.928   2.016   4.349 -0.2313  1.2184  2.3753
 7298TIP3    H243310   1.969   2.142   4.276  0.4017 -1.1650 -1.7023
 7299TIP3   OH243311   4.007   3.562   3.292  0.6159  0.2150  0.2719
 7299TIP3    H143312   3.982   3.584   3.381 -2.0024  0.7948 -0.5197
 7299TIP3    H243313   4.103   3.559   3.293  0.6504  0.3529  3.0236
 7300TIP3   OH243314   6.154   3.723   1.847 -0.2242 -0.4632 -0.1014
 7300TIP3    H143315   6.248   3.726   1.866  0.1049 -0.9088 -1.5012
 7300TIP3    H243316   6.118   3.800   1.891  1.1730  0.9759 -1.3289
 7301TIP3   OH243317   4.370   4.832  12.840  0.0701 -0.1914  0.0430
 7301TIP3    H143318   4.439   4.895  12.861 -0.0639 -0.1259  0.2834
 7301TIP3    H243319   4.417   4.758  12.802  0.3795 -0.5564  1.1062
 7302TIP3   OH243320   1.833   2.188  16.973  0.0632  0.3923 -0.3914
 7302TIP3    H143321   1.746   2.226  16.987 -0.0542 -0.2185  0.7161
 7302TIP3    H243322   1.823   2.096  16.998  1.1051  0.3867  0.0810
 7303TIP3   OH243323   2.850   3.241   4.297  0.4432  0.0859  0.4541
 7303TIP3    H143324   2.756   3.239   4.278  0.3103 -1.1871  1.1550
 7303TIP3    H243325   2.887   3.294   4.227 -0.6895 -0.1122 -0.3230
 7304TIP3   OH243326   6.749   2.205   6.547 -0.1824 -0.1619  0.2876
 7304TIP3    H143327   6.714   2.258   6.476 -1.5137  1.6482  2.1622
 7304TIP3    H243328   6.705   2.120   6.537 -1.5402  0.5535 -0.1825
 7305TIP3   OH243329   1.470   3.142   4.057  0.2282  0.3652 -0.0378
 7305TIP3    H143330   1.439   3.140   4.148  0.1841 -1.0367 -0.0650
 7305TIP3    H243331   1.391   3.155   4.005  0.2378  1.0463  0.1059
 7306TIP3   OH243332   5.080   6.193   3.367 -0.4270 -0.0053  0.4218
 7306TIP3    H143333   5.173   6.198   3.343 -0.3685 -0.8383  0.4365
 7306TIP3    H243334   5.034   6.191   3.284 -0.2795 -1.9163  0.3329
 7307TIP3   OH243335   3.342   4.467  11.770  0.9014  0.0285  0.6277
 7307TIP3    H143336   3.410   4.406  11.739  1.5018  1.1886 -0.4124
 7307TIP3    H243337   3.277   4.467  11.699  1.1611  0.9834  0.3867
 7308TIP3   OH243338   3.470   0.433   5.962  0.1890  0.4190  0.5232
 7308TIP3    H143339   3.436   0.488   6.033 -0.0006  1.4550 -0.3510
 7308TIP3    H243340   3.531   0.374   6.006  1.3307  2.1235  1.3706
 7309TIP3   OH243341   2.507   0.851   0.346  0.1852  0.2096 -0.5750
 7309TIP3    H143342   2.603   0.852   0.350  0.2102 -0.3714 -0.9350
 7309TIP3    H243343   2.484   0.935   0.306  0.6046 -0.1066 -1.4985
 7310TIP3   OH243344   4.411   3.018  17.030 -0.7207 -0.5422  0.0471
 7310TIP3    H143345   4.328   3.032  17.076 -0.5908 -0.1507  0.1638
 7310TIP3    H243346   4.436   2.928  17.052 -0.3144 -0.1442  1.3036
 7311TIP3   OH243347   6.146   1.103   0.657  0.3921 -0.1435  0.3623
 7311TIP3    H143348   6.133   1.124   0.749 -0.4095 -0.1657  0.2576
 7311TIP3    H243349   6.211   1.167   0.627  0.4137  0.0696  0.8578
 7312TIP3   OH243350   3.729   5.685   4.841 -0.3409  0.4831  0.0888
 7312TIP3    H143351   3.757   5.765   4.885  0.1712 -0.2369  1.1174
 7312TIP3    H243352   3.804   5.660   4.788 -0.7737  1.0753 -0.8215
 7313TIP3   OH243353   1.072   6.400  11.307 -0.1987 -0.3886  0.4423
 7313TIP3    H143354   1.059   6.423  11.215 -0.1699 -3.4679 -0.4255
 7313TIP3    H243355   0.984   6.403  11.345 -0.5379 -1.1541 -0.2529
 7314TIP3   OH243356   1.986   1.068  16.008 -0.0302  0.3391  0.2310
 7314TIP3    H143357   1.971   0.975  16.025 -0.0393  0.8773  4.1428
 7314TIP3    H243358   2.055   1.069  15.941  0.5462 -2.5072  0.6451
 7315TIP3   OH243359   4.487   6.820  15.904  0.1328  0.3889  0.2410
 7315TIP3    H143360   4.484   6.873  15.825 -1.1099 -0.9800 -0.6749
 7315TIP3    H243361   4.531   6.876  15.969  0.4440  1.8373 -1.1621
 7316TIP3   OH243362   1.777   3.796  12.804 -0.1602 -0.2983  0.7827
 7316TIP3    H143363   1.782   3.702  12.820  0.3736 -0.0835  1.9984
 7316TIP3    H243364   1.720   3.830  12.873  1.6436  0.5780  1.9283
 7317TIP3   OH243365   4.016   1.145   4.482 -0.3635  0.7895  0.6886
 7317TIP3    H143366   3.987   1.099   4.561 -1.1500  0.4258  0.2011
 7317TIP3    H243367   4.081   1.087   4.443 -0.0187  0.9407  1.0306
 7318TIP3   OH243368   1.235   6.509  14.381  0.0201 -0.4332  0.3444
 7318TIP3    H143369   1.246   6.600  14.353  0.3855 -0.5391  0.1291
 7318TIP3    H243370   1.143   6.503  14.406 -1.0225 -0.8929 -3.0009
 7319TIP3   OH243371   2.128   4.862   2.864  0.4420 -0.0630  0.0630
 7319TIP3    H143372   2.196   4.875   2.930 -0.2800 -3.4888  1.7060
 7319TIP3    H243373   2.174   4.822   2.790  0.4788 -1.1892  0.6708
 7320TIP3   OH243374   6.714   5.621   3.605 -0.0202 -0.3875 -0.3383
 7320TIP3    H143375   6.627   5.653   3.630  0.2344 -0.7177  1.0296
 7320TIP3    H243376   6.774   5.671   3.660  0.5932 -0.8135 -0.6183
 7321TIP3   OH243377   3.610   4.682   0.020 -0.0088  0.4745 -0.0101
 7321TIP3    H143378   3.532   4.735   0.031 -0.0957  0.6290 -1.2164
 7321TIP3    H243379   3.593   4.629  -0.059  1.6541  1.5820 -1.1974
 7322TIP3   OH243380   6.017   3.213  16.331 -0.4268 -0.1770 -0.1739
 7322TIP3    H143381   5.923   3.197  16.329 -1.6095  4.8700  1.1512
 7322TIP3    H243382   6.046   3.200  16.241 -3.2764  1.6433 -1.4894
 7323TIP3   OH243383   2.418   5.305  16.772  0.7167 -0.1232 -0.1520
 7323TIP3    H143384   2.469   5.368  16.720  0.2321  1.0041  0.6866
 7323TIP3    H243385   2.327   5.328  16.754  0.4423  2.2253  3.2402
 7324TIP3   OH243386   6.265   3.532   3.481 -0.0302 -0.0147 -0.2450
 7324TIP3    H143387   6.341   3.477   3.502  0.1867  0.1089 -0.6821
 7324TIP3    H243388   6.239   3.503   3.393 -0.6150 -0.1910 -0.0178
 7325TIP3   OH243389   6.492   2.560  11.105  0.0717  0.6572 -0.3175
 7325TIP3    H143390   6.497   2.639  11.160  0.8277  0.0935  0.4484
 7325TIP3    H243391   6.418   2.511  11.139  0.1382  0.6221 -0.2235
 7326TIP3   OH243392   4.927   0.376   5.618  0.4077  0.3096 -0.2750
 7326TIP3    H143393   4.837   0.385   5.587 -0.1061  0.5096  1.1891
 7326TIP3    H243394   4.951   0.464   5.646  1.7383  0.6547 -2.3437
 7327TIP3   OH243395   3.401   2.401   4.278 -0.0278 -0.0435  0.8411
 7327TIP3    H143396   3.344   2.476   4.288 -0.2405  0.0767 -0.9292
 7327TIP3    H243397   3.435   2.384   4.366 -0.2316  1.8977  1.3296
 7328TIP3   OH243398   2.528   0.699   4.503  0.7473 -0.1583 -0.7373
 7328TIP3    H143399   2.492   0.670   4.587 -0.2958  0.8707 -0.7956
 7328TIP3    H243400   2.588   0.770   4.526  1.9204 -1.1153 -0.7370
 7329TIP3   OH243401   0.201   1.239  11.113 -0.3738 -0.3018  0.0656
 7329TIP3    H143402   0.267   1.297  11.153 -1.8386  1.4926 -0.0150
 7329TIP3    H243403   0.237   1.218  11.027  0.0528  0.7362 -0.0231
 7330TIP3   OH243404   4.723   0.202   3.763  0.1275 -0.3335 -0.2679
 7330TIP3    H143405   4.665   0.186   3.837  0.5654 -1.4277 -0.1361
 7330TIP3    H243406   4.769   0.118   3.750  0.0093 -0.1847 -1.8170
 7331TIP3   OH243407   0.673   3.431  15.423 -0.4138 -0.2232  0.4126
 7331TIP3    H143408   0.694   3.495  15.491 -0.2029  0.1666 -0.0177
 7331TIP3    H243409   0.742   3.365  15.430  0.7740  0.8411 -0.7262
 7332TIP3   OH243410   2.567   1.741  13.139  0.9115  0.1086 -0.6151
 7332TIP3    H143411   2.528   1.783  13.215 -1.8235 -2.5488 -0.3398
 7332TIP3    H243412   2.644   1.793  13.119  0.5675  2.1381  2.6626
 7333TIP3   OH243413   0.477   2.911  12.259 -0.6172  0.0316  0.4072
 7333TIP3    H143414   0.505   2.983  12.316  1.1231  1.6377 -2.2544
 7333TIP3    H243415   0.405   2.948  12.208  1.0526  0.4471 -1.8162
 7334TIP3   OH243416   3.313   6.352  15.719 -0.4556 -0.4209  0.2458
 7334TIP3    H143417   3.408   6.342  15.714 -0.3473  0.9346 -1.6814
 7334TIP3    H243418   3.278   6.267  15.692  0.2345 -0.4852 -0.4756
 7335TIP3   OH243419   6.522   6.172  15.712  0.1433  0.7787 -0.2416
 7335TIP3    H143420   6.561   6.199  15.795  0.5548 -0.6759  0.0554
 7335TIP3    H243421   6.592   6.126  15.666 -0.0819  1.5587 -1.4104
 7336TIP3   OH243422   3.713   5.328  12.980  0.0386 -0.1412 -0.0251
 7336TIP3    H143423   3.751   5.294  12.899  1.1859 -1.7645  1.1437
 7336TIP3    H243424   3.648   5.263  13.006 -0.7510  0.6637  0.0747
 7337TIP3   OH243425   5.911   3.397   2.658 -0.0814 -0.0482 -0.3403
 7337TIP3    H143426   5.891   3.490   2.669 -2.0164 -0.3400 -0.9707
 7337TIP3    H243427   5.950   3.371   2.742  1.4221  1.5054 -0.4949
 7338TIP3   OH243428   3.785   1.365   1.597  0.5724  0.5800 -0.1929
 7338TIP3    H143429   3.798   1.426   1.669  0.1151  0.6122 -0.1338
 7338TIP3    H243430   3.718   1.406   1.542  0.6600  0.3891 -0.4452
 7339TIP3   OH243431   2.748   2.613  13.510  0.0274  0.0884  0.4719
 7339TIP3    H143432   2.788   2.537  13.552 -1.5724 -3.0931 -3.1483
 7339TIP3    H243433   2.677   2.639  13.569 -0.8755 -2.8342  0.8082
 7340TIP3   OH243434   6.578   4.204   5.136  0.2143 -0.3348 -0.2153
 7340TIP3    H143435   6.491   4.225   5.170  0.5185  2.3495 -0.9018
 7340TIP3    H243436   6.561   4.157   5.055 -0.5611 -0.8259  0.2150
 7341TIP3   OH243437   4.762   1.957   3.130 -0.2034 -0.3253  0.1290
 7341TIP3    H143438   4.818   1.880   3.137 -1.0987 -1.2970 -2.2344
 7341TIP3    H243439   4.676   1.926   3.157 -0.5156 -0.1200 -0.5968
 7342TIP3   OH243440   1.691   0.930  14.757 -0.3233 -0.5119 -0.0310
 7342TIP3    H143441   1.699   0.904  14.665 -0.2779 -0.2785 -0.0936
 7342TIP3    H243442   1.715   0.851  14.807 -2.6810 -1.4274 -0.2026
 7343TIP3   OH243443   6.618   1.515   3.233  0.4949  0.2406  0.4241
 7343TIP3    H143444   6.713   1.529   3.231  0.6552 -0.8278 -1.2071
 7343TIP3    H243445   6.607   1.423   3.209 -0.9449  0.2250  1.0809
 7344TIP3   OH243446   6.689   0.666  15.844 -0.7074 -0.6680  0.3675
 7344TIP3    H143447   6.775   0.708  15.842 -0.8901 -0.3033  0.0587
 7344TIP3    H243448   6.669   0.648  15.752 -1.2184 -0.2123  0.3787
 7345TIP3   OH243449   0.382   6.307  11.852  0.4146  0.2907 -0.6086
 7345TIP3    H143450   0.428   6.237  11.898 -1.6455 -0.5808  0.2454
 7345TIP3    H243451   0.352   6.266  11.771 -1.7178 -0.2467  0.3645
 7346TIP3   OH243452   5.151   1.564   2.843  0.0757 -0.1141  0.6077
 7346TIP3    H143453   5.076   1.505   2.841  0.2356 -0.3039 -0.4594
 7346TIP3    H243454   5.120   1.641   2.891 -1.4209  0.6096 -1.3794
 7347TIP3   OH243455   1.329   4.408  11.035  0.2883 -0.6914  0.3242
 7347TIP3    H143456   1.262   4.463  10.993 -0.8309 -1.4231  1.0751
 7347TIP3    H243457   1.300   4.401  11.126  0.7471 -2.0061  0.3831
 7348TIP3   OH243458   0.788   6.046   5.032 -0.0513 -0.1925  0.5727
 7348TIP3    H143459   0.798   6.118   5.093  1.9560  0.8106 -0.8364
 7348TIP3    H243460   0.700   6.058   4.996  0.7660  2.5965 -0.7950
 7349TIP3   OH243461   2.754   0.697   2.173  0.1321 -0.6325  0.6370
 7349TIP3    H143462   2.685   0.643   2.136  0.3268 -0.6150  0.2382
 7349TIP3    H243463   2.725   0.787   2.158 -0.3638 -0.6180  1.6269
 7350TIP3   OH243464   4.189   2.214  11.512 -0.0825  0.0745 -0.2118
 7350TIP3    H143465   4.282   2.232  11.502 -0.0673  0.3198  0.3146
 7350TIP3    H243466   4.147   2.259  11.439  0.1285  0.7579  0.0812
 7351TIP3   OH243467   2.748   6.304   1.789 -0.2321  0.4606 -0.3332
 7351TIP3    H143468   2.786   6.249   1.857  1.2079  0.9856 -0.6872
 7351TIP3    H243469   2.655   6.309   1.811 -0.1990 -1.2167  0.3097
 7352TIP3   OH243470   0.603   5.807  11.237  0.2013  0.1569  0.2575
 7352TIP3    H143471   0.686   5.762  11.253 -0.6273 -2.0329 -1.2128
 7352TIP3    H243472   0.542   5.769  11.300 -0.2502  0.0501 -0.2395
 7353TIP3   OH243473   3.588   6.795  16.437  0.2493  0.3319 -0.5544
 7353TIP3    H143474   3.668   6.816  16.389  0.8217  1.0817  0.6757
 7353TIP3    H243475   3.521   6.851  16.397  0.6783  0.8160 -0.6112
 7354TIP3   OH243476   3.408   0.043  11.696  0.3816  0.3352 -0.1889
 7354TIP3    H143477   3.400  -0.030  11.758  2.1400  0.1259 -0.1390
 7354TIP3    H243478   3.455   0.005  11.621 -0.5469  0.9152 -1.0825
 7355TIP3   OH243479   5.500   5.743  12.608 -0.3283 -0.2005  0.8528
 7355TIP3    H143480   5.506   5.800  12.531  0.9838  0.6093  1.5075
 7355TIP3    H243481   5.586   5.753  12.651 -0.8714 -0.9816  2.1654
 7356TIP3   OH243482   6.600   0.316  15.777  0.0210  0.3396 -0.4692
 7356TIP3    H143483   6.646   0.292  15.858  0.3846  0.4218 -0.6483
 7356TIP3    H243484   6.624   0.408  15.762 -0.6984  0.5695 -0.2325
 7357TIP3   OH243485   4.395   0.653  16.183  0.2711 -0.2935  0.1519
 7357TIP3    H143486   4.374   0.649  16.089  0.5120  1.7549 -0.0197
 7357TIP3    H243487   4.489   0.635  16.186  0.0272 -1.7529  0.1833
 7358TIP3   OH243488   6.524   3.594  11.881 -0.4566 -0.1633 -0.5240
 7358TIP3    H143489   6.441   3.641  11.873  0.5560  1.5994 -1.3593
 7358TIP3    H243490   6.579   3.632  11.813  0.6895 -2.0917 -0.7460
 7359TIP3   OH243491   3.130   2.012  15.991 -0.4270  0.4009  0.3769
 7359TIP3    H143492   3.060   2.015  16.057 -1.3323 -2.2705 -0.2993
 7359TIP3    H243493   3.117   1.927  15.948  3.3281 -0.2751  0.2806
 7360TIP3   OH243494   6.546   5.618  13.110 -0.3245 -0.0289  0.1341
 7360TIP3    H143495   6.527   5.669  13.189 -1.2750  1.3331 -0.9215
 7360TIP3    H243496   6.460   5.588  13.081 -0.2225  0.9923 -1.3281
 7361TIP3   OH243497   3.025   6.193   0.019 -0.3194 -0.1737  0.0618
 7361TIP3    H143498   3.105   6.159   0.059  0.6833 -0.4853 -2.1163
 7361TIP3    H243499   2.976   6.230   0.093  1.9494  0.3099  1.4256
 7362TIP3   OH243500   4.144   2.716  14.721 -0.4115  0.5639  0.3189
 7362TIP3    H143501   4.130   2.781  14.652 -1.3034  1.0310  0.9151
 7362TIP3    H243502   4.100   2.637  14.689 -2.8141  1.4136  1.2587
 7363TIP3   OH243503   1.096   1.322   2.830 -0.1643 -0.2444  0.4898
 7363TIP3    H143504   1.060   1.261   2.893 -0.0700 -0.2024  0.5847
 7363TIP3    H243505   1.075   1.284   2.745 -2.3034  0.8123  0.4709
 7364TIP3   OH243506   0.552   3.018   4.380 -0.5154 -0.3468 -0.1966
 7364TIP3    H143507   0.632   2.970   4.360 -0.2193  0.9888 -2.7374
 7364TIP3    H243508   0.492   2.995   4.308 -1.6654  0.2685  0.5292
 7365TIP3   OH243509   2.713   1.807  11.392  1.3737 -0.3291 -0.2436
 7365TIP3    H143510   2.773   1.766  11.330  1.2193 -1.4829  0.3299
 7365TIP3    H243511   2.633   1.754  11.385  0.9353  0.2927  0.0416
 7366TIP3   OH243512   1.491   0.044   4.208 -0.4506 -0.3768 -0.1835
 7366TIP3    H143513   1.425   0.110   4.231 -1.0920 -0.1273 -2.5255
 7366TIP3    H243514   1.441  -0.032   4.179  0.3052 -1.3938  1.0702
 7367TIP3   OH243515   6.552   6.324   1.010  0.5558 -0.1302  0.3116
 7367TIP3    H143516   6.636   6.297   0.973  0.5810  0.8846 -0.4118
 7367TIP3    H243517   6.523   6.397   0.955 -0.2829  0.2409  1.1986
 7368TIP3   OH243518   5.264   1.770   0.160  0.4332 -0.2431 -0.1362
 7368TIP3    H143519   5.298   1.848   0.204 -0.3649  0.2735 -0.4190
 7368TIP3    H243520   5.198   1.735   0.221  2.1990 -1.9132  0.9603
 7369TIP3   OH243521   4.270   2.833   1.886 -0.6255 -0.1759 -0.2261
 7369TIP3    H143522   4.362   2.809   1.875 -1.0429 -2.3603  0.6093
 7369TIP3    H243523   4.273   2.922   1.923  1.1081 -0.0218 -0.6537
 7370TIP3   OH243524   0.496   5.904  10.904  0.5376  0.0609 -0.4442
 7370TIP3    H143525   0.455   5.873  10.985  0.3192  2.1310  0.2997
 7370TIP3    H243526   0.590   5.894  10.920  0.5813  1.8711  0.7542
 7371TIP3   OH243527   3.620   3.429   5.717  0.6959  0.3290 -0.1067
 7371TIP3    H143528   3.678   3.390   5.781  1.2475 -0.8494 -1.2735
 7371TIP3    H243529   3.678   3.459   5.647  0.1546  2.0429  0.1342
 7372TIP3   OH243530   0.392   6.036  13.681  0.6273 -0.7888 -0.2321
 7372TIP3    H143531   0.338   6.083  13.617 -0.6911  1.6920  2.4675
 7372TIP3    H243532   0.370   5.943  13.667  2.0193 -0.6883 -4.6202
 7373TIP3   OH243533   0.950   4.472  15.373  0.2055 -0.0479 -0.1165
 7373TIP3    H143534   0.942   4.381  15.345  0.3219 -0.0523 -0.1386
 7373TIP3    H243535   0.881   4.484  15.438 -0.6593  0.2164 -1.0651
 7374TIP3   OH243536   0.382   2.913  11.618  0.2491  0.0698 -0.4741
 7374TIP3    H143537   0.391   3.007  11.602  1.6791 -0.1841 -1.3780
 7374TIP3    H243538   0.374   2.905  11.713  2.8246  0.9494 -0.1183
 7375TIP3   OH243539   2.327   5.822  16.143  0.2805 -0.6823  0.1348
 7375TIP3    H143540   2.306   5.900  16.195  2.4570  1.4812 -1.9730
 7375TIP3    H243541   2.253   5.813  16.083  0.7564  0.8876 -0.7407
 7376TIP3   OH243542   5.786   1.784  14.858  0.2250 -0.1889  0.0199
 7376TIP3    H143543   5.831   1.800  14.941 -0.5062 -0.8503  0.5547
 7376TIP3    H243544   5.846   1.727  14.809  0.6740  0.2337  0.0723
 7377TIP3   OH243545   5.034   2.052   4.161 -0.0586  0.4018  0.1325
 7377TIP3    H143546   5.058   2.034   4.251  0.3550 -0.2905 -0.1091
 7377TIP3    H243547   4.938   2.048   4.160 -0.0753  0.7449  0.6060
 7378TIP3   OH243548   1.644   6.251   0.895  0.1927  0.4268 -0.5611
 7378TIP3    H143549   1.670   6.257   0.987 -0.5723  1.1244 -0.3757
 7378TIP3    H243550   1.559   6.208   0.897  1.0900 -1.5275 -1.1370
 7379TIP3   OH243551   1.578   4.983  15.350  0.2268 -0.2593  0.1949
 7379TIP3    H143552   1.530   5.057  15.388 -0.3553 -0.3205 -0.4033
 7379TIP3    H243553   1.666   4.991  15.387  1.0017  2.3306 -1.8689
 7380TIP3   OH243554   2.352   2.403  12.168  0.0594  0.4890  0.1498
 7380TIP3    H143555   2.314   2.321  12.137  1.2132  0.6957 -2.0282
 7380TIP3    H243556   2.297   2.472  12.130  1.1886  0.7411 -1.1117
 7381TIP3   OH243557   2.593   0.225   2.885 -0.0449  0.0019 -0.3046
 7381TIP3    H143558   2.631   0.170   2.953 -0.1825 -1.2220 -1.1852
 7381TIP3    H243559   2.538   0.288   2.933  2.9854  1.8554  1.0045
 7382TIP3   OH243560   1.834   6.361  12.994  0.7929 -0.0386 -0.9228
 7382TIP3    H143561   1.790   6.301  12.935  0.3622  0.2900 -0.9414
 7382TIP3    H243562   1.814   6.329  13.082 -0.2903  0.6576 -0.9034
 7383TIP3   OH243563   5.556   5.706  11.534 -0.5977 -0.6599 -0.1935
 7383TIP3    H143564   5.483   5.766  11.525 -0.5732 -0.8403 -2.0118
 7383TIP3    H243565   5.593   5.700  11.446  1.7702 -0.3910  0.7092
 7384TIP3   OH243566   1.419   0.174  16.593 -0.2873  0.0925  0.5061
 7384TIP3    H143567   1.372   0.094  16.571  1.3389 -0.5329 -0.9084
 7384TIP3    H243568   1.403   0.187  16.686 -4.0972  0.5345 -0.0484
 7385TIP3   OH243569   6.251   4.975  16.643  0.1971  0.0100  0.2873
 7385TIP3    H143570   6.265   4.882  16.662 -0.5868 -0.0216  0.7447
 7385TIP3    H243571   6.190   5.004  16.711 -0.3027  0.6255 -0.4121
 7386TIP3   OH243572   6.073   5.023  15.211 -0.4270  0.6402 -0.4344
 7386TIP3    H143573   5.995   5.030  15.155 -1.0895 -0.0535  0.3599
 7386TIP3    H243574   6.144   5.001  15.151 -1.5063 -2.2611 -0.7955
 7387TIP3   OH243575   3.779   4.548   0.589 -0.2842  0.1768 -0.2026
 7387TIP3    H143576   3.823   4.606   0.527 -0.2855  0.8633  0.4282
 7387TIP3    H243577   3.686   4.561   0.572 -0.3461  1.6542  1.0612
 7388TIP3   OH243578   5.092   2.486  13.645 -0.0077 -0.3238  0.4947
 7388TIP3    H143579   5.044   2.428  13.705  0.6774 -0.5856  0.8005
 7388TIP3    H243580   5.174   2.440  13.628  1.1637  1.1580  1.8205
 7389TIP3   OH243581   4.226   0.387   0.793 -0.8743 -0.2553 -0.0194
 7389TIP3    H143582   4.243   0.370   0.700  0.4881 -0.5604  0.2675
 7389TIP3    H243583   4.179   0.470   0.794  1.5125  1.1857 -0.8491
 7390TIP3   OH243584   3.901   3.807   3.176  0.6583  0.2088 -0.2737
 7390TIP3    H143585   3.954   3.881   3.205  0.3459  0.2122  0.3065
 7390TIP3    H243586   3.894   3.751   3.253  1.4602 -0.7724 -0.8890
 7391TIP3   OH243587   0.541   2.708  11.547 -0.2750 -0.4662 -0.4093
 7391TIP3    H143588   0.465   2.764  11.529  0.1000  0.1289 -0.1830
 7391TIP3    H243589   0.582   2.748  11.624  1.7601  0.8132 -2.0489
 7392TIP3   OH243590   5.173   5.945  13.034  0.3214  0.7168  0.3060
 7392TIP3    H143591   5.244   5.904  12.985  1.2024  1.7139  0.7119
 7392TIP3    H243592   5.124   5.993  12.968  0.0307  0.0564  0.0303
 7393TIP3   OH243593   2.631   5.889  13.289  0.0300  0.2511  0.1829
 7393TIP3    H143594   2.580   5.895  13.370 -0.2315  0.7675 -0.0138
 7393TIP3    H243595   2.572   5.922  13.222  0.6075  0.8015 -0.0603
 7394TIP3   OH243596   6.339   3.020   3.971  0.3959  0.2361 -0.3044
 7394TIP3    H143597   6.247   3.008   3.947  1.0511 -1.6049 -2.1838
 7394TIP3    H243598   6.346   3.113   3.993 -1.7660  0.5453 -0.7129
 7395TIP3   OH243599   1.926   0.946   5.555  0.5850  0.3194 -0.0745
 7395TIP3    H143600   1.905   0.915   5.643 -0.7348  0.1801 -0.4170
 7395TIP3    H243601   1.970   1.030   5.570  2.3938 -0.7332  0.7760
 7396TIP3   OH243602   5.140   0.733   2.537  0.0059  0.2233  0.1714
 7396TIP3    H143603   5.154   0.743   2.631  1.6005  0.3744 -0.0412
 7396TIP3    H243604   5.147   0.822   2.503 -0.1012  0.1151 -0.1311
 7397TIP3   OH243605   5.791   1.780   6.602  0.3391 -0.1199 -0.2691
 7397TIP3    H143606   5.827   1.758   6.516 -0.9449 -0.6729 -0.6939
 7397TIP3    H243607   5.742   1.861   6.588 -0.3499 -0.5149 -0.2120
 7398TIP3   OH243608   4.518   2.755   3.798 -0.1311  0.2118  0.2423
 7398TIP3    H143609   4.562   2.676   3.828  0.4080  0.6969  0.7869
 7398TIP3    H243610   4.582   2.825   3.815 -0.6517  0.7763 -0.0837
 7399TIP3   OH243611   2.979   2.298  11.593 -0.0674  0.1109 -0.1069
 7399TIP3    H143612   2.999   2.245  11.671  0.5924  0.2100 -0.2056
 7399TIP3    H243613   2.969   2.387  11.627 -1.2193 -0.0754  0.0652
 7400TIP3   OH243614   3.753   0.568   2.155  0.1390 -0.3679  0.7020
 7400TIP3    H143615   3.661   0.543   2.158 -0.0092  0.0445 -0.1368
 7400TIP3    H243616   3.787   0.527   2.075  0.2161  1.0023  0.0077
 7401TIP3   OH243617   5.234   0.554   3.606 -0.4374 -0.6767 -0.6499
 7401TIP3    H143618   5.325   0.525   3.600 -0.7800 -2.1770  0.5793
 7401TIP3    H243619   5.212   0.585   3.518  0.4112 -2.9415 -1.7236
 7402TIP3   OH243620   3.880   3.392  12.477 -0.2677 -0.4351  0.1245
 7402TIP3    H143621   3.856   3.446  12.402 -0.1347  1.5860  1.4660
 7402TIP3    H243622   3.974   3.405  12.487 -0.3162 -0.5205  0.7481
 7403TIP3   OH243623   3.443   0.305  11.056 -0.1528  0.3398 -0.2575
 7403TIP3    H143624   3.419   0.219  11.022 -0.0350  0.1538  0.1205
 7403TIP3    H243625   3.411   0.367  10.991 -0.6223  0.0318 -0.3255
 7404TIP3   OH243626   0.791   3.736  11.304  0.3676 -0.2396  0.3806
 7404TIP3    H143627   0.816   3.645  11.318 -0.0054 -0.5978 -1.1572
 7404TIP3    H243628   0.697   3.738  11.319  0.2935 -0.2165 -0.0799
 7405TIP3   OH243629   4.869   6.166  10.879  0.0714  0.4540  0.7582
 7405TIP3    H143630   4.866   6.261  10.883  0.1479  0.5255 -0.4893
 7405TIP3    H243631   4.809   6.143  10.807  0.9174 -0.3552  0.2891
 7406TIP3   OH243632   5.312   3.212   5.208 -0.4428  0.1063 -0.2852
 7406TIP3    H143633   5.326   3.271   5.282  0.6324 -1.0388  0.4480
 7406TIP3    H243634   5.389   3.225   5.152 -1.2000  0.8966 -1.1938
 7407TIP3   OH243635   1.731   5.330  12.197  0.9150 -0.1888  0.2385
 7407TIP3    H143636   1.758   5.275  12.271  1.6255  0.9587  0.8669
 7407TIP3    H243637   1.641   5.303  12.178  0.8369 -0.7356  1.3079
 7408TIP3   OH243638   2.403   1.723   2.750 -0.3379  0.4511  0.1154
 7408TIP3    H143639   2.388   1.628   2.744 -1.0866  0.3608  2.6322
 7408TIP3    H243640   2.343   1.760   2.685 -0.3461 -0.7510 -0.6074
 7409TIP3   OH243641   4.967   5.230  16.262 -0.0735 -0.3302  0.1138
 7409TIP3    H143642   5.005   5.145  16.239 -0.5137 -1.1463  2.2294
 7409TIP3    H243643   5.030   5.269  16.323 -0.2419  0.5421 -0.2494
 7410TIP3   OH243644   1.161   3.309  15.480  1.0955 -0.2430 -0.0663
 7410TIP3    H143645   1.193   3.313  15.390 -0.6930 -2.8666 -0.9557
 7410TIP3    H243646   1.215   3.241  15.521  1.9603  1.0022  0.9175
 7411TIP3   OH243647   5.926   3.098  15.640 -0.0289 -0.3971  0.3529
 7411TIP3    H143648   5.884   3.132  15.719  1.0700  1.2047  0.2921
 7411TIP3    H243649   6.018   3.091  15.663  0.2800 -0.0645 -0.7296
 7412TIP3   OH243650   3.995   5.144   5.059 -0.1047 -0.0371  0.1976
 7412TIP3    H143651   3.978   5.236   5.082  0.8791  0.0545  0.6267
 7412TIP3    H243652   4.032   5.148   4.971 -0.6670 -0.0809 -0.0414
 7413TIP3   OH243653   3.636   4.775  15.613  0.2500  0.0495  0.0224
 7413TIP3    H143654   3.596   4.697  15.650 -0.7917  0.1391 -0.8556
 7413TIP3    H243655   3.635   4.839  15.684 -1.4556  0.1346 -0.0367
 7414TIP3   OH243656   4.981   4.699  14.173 -0.0849  0.3835 -0.3679
 7414TIP3    H143657   4.943   4.627  14.124 -1.1968 -2.0133  3.5314
 7414TIP3    H243658   5.074   4.697  14.152 -0.6871  0.5532 -3.3968
 7415TIP3   OH243659   0.784   5.731   1.626  0.3212  0.1744  0.3330
 7415TIP3    H143660   0.795   5.648   1.672 -1.9217 -1.1418 -1.2837
 7415TIP3    H243661   0.856   5.733   1.563  0.5065 -0.4622  0.5169
 7416TIP3   OH243662   1.021   2.192  11.545 -0.1662 -0.3116 -0.8564
 7416TIP3    H143663   1.103   2.239  11.562 -0.9349  0.8745 -0.2721
 7416TIP3    H243664   1.002   2.208  11.452  0.8390 -1.5706 -1.3049
 7417TIP3   OH243665   2.470   5.144  11.345 -0.3917 -0.6763  0.3180
 7417TIP3    H143666   2.462   5.180  11.257  1.5444  1.2598  0.8374
 7417TIP3    H243667   2.538   5.076  11.337  2.7453  2.1436  0.8661
 7418TIP3   OH243668   5.602   1.707   0.610  0.0655 -0.0507 -0.1018
 7418TIP3    H143669   5.552   1.677   0.534 -1.6046 -1.2724  1.4084
 7418TIP3    H243670   5.605   1.631   0.668  2.4188  0.4736  0.5313
 7419TIP3   OH243671   5.772   0.832  11.371 -0.3005 -0.3038 -0.1485
 7419TIP3    H143672   5.737   0.832  11.460 -0.0361  0.5481 -0.0392
 7419TIP3    H243673   5.810   0.919  11.360 -0.3851 -0.3814 -1.1198
 7420TIP3   OH243674   6.768   0.386  11.203 -0.5816  0.2141 -0.6072
 7420TIP3    H143675   6.848   0.437  11.193 -1.1237  1.1331 -0.3190
 7420TIP3    H243676   6.779   0.313  11.142 -0.1706  1.1302 -1.6540
 7421TIP3   OH243677   4.808   3.492   2.009 -0.2576  0.1403  0.2788
 7421TIP3    H143678   4.859   3.515   2.087 -0.7056  1.2515  0.2606
 7421TIP3    H243679   4.812   3.570   1.954  0.4882 -0.8214 -1.0630
 7422TIP3   OH243680   2.656   2.459   2.560 -0.0788  0.7531 -0.1480
 7422TIP3    H143681   2.643   2.440   2.653  1.5531 -0.5392 -0.1333
 7422TIP3    H243682   2.643   2.553   2.552  0.8705  1.0724  1.6082
 7423TIP3   OH243683   6.212   5.314  10.966  0.2177 -0.1342 -0.1835
 7423TIP3    H143684   6.171   5.304  11.053  0.2640 -0.6057 -0.2108
 7423TIP3    H243685   6.230   5.224  10.939  1.6915  0.0842  0.0232
 7424TIP3   OH243686   3.257   1.051  11.176  0.0741 -0.6597 -0.0173
 7424TIP3    H143687   3.241   1.131  11.125  1.2881 -0.9507 -0.9215
 7424TIP3    H243688   3.236   0.980  11.116 -1.4429 -1.0636  0.9331
 7425TIP3   OH243689   2.662   0.587  11.623 -0.9417  0.1031  0.1442
 7425TIP3    H143690   2.685   0.661  11.681  1.0223 -1.1153  1.0219
 7425TIP3    H243691   2.602   0.535  11.675  0.0454 -0.4676  0.7492
 7426TIP3   OH243692   6.042   5.156   0.930 -0.1367  0.1864  0.3870
 7426TIP3    H143693   6.039   5.206   1.012  1.1828  0.9316  0.0182
 7426TIP3    H243694   6.126   5.180   0.890  0.8576 -2.7744  0.4450
 7427TIP3   OH243695   4.823   0.374  16.151 -0.5889 -0.1853 -0.1796
 7427TIP3    H143696   4.890   0.340  16.091 -0.2872  0.0454  0.0285
 7427TIP3    H243697   4.848   0.340  16.237 -1.0282 -0.5222 -0.1769
 7428TIP3   OH243698   4.733   3.216   0.144 -0.8180 -0.7973  0.4408
 7428TIP3    H143699   4.659   3.258   0.100 -0.4325 -1.7350 -1.1853
 7428TIP3    H243700   4.775   3.164   0.076 -0.3450 -2.5594  1.9789
 7429TIP3   OH243701   1.065   5.259   4.801  0.0927 -0.3316 -0.2929
 7429TIP3    H143702   1.107   5.177   4.775 -2.1353 -1.3542 -0.9297
 7429TIP3    H243703   1.067   5.257   4.897  1.8590 -0.0829 -0.2822
 7430TIP3   OH243704   5.693   4.595   0.122  0.0576  0.2240 -0.4326
 7430TIP3    H143705   5.624   4.658   0.100  0.3246 -0.1522 -2.4910
 7430TIP3    H243706   5.690   4.591   0.218 -2.9261  0.0509 -0.4111
 7431TIP3   OH243707   6.383   6.086  14.543  0.4326 -0.3971  0.1451
 7431TIP3    H143708   6.327   6.163  14.551  1.5972  0.3982  1.1074
 7431TIP3    H243709   6.463   6.109  14.591  0.8078 -2.2250  0.4988
 7432TIP3   OH243710   2.513   1.908  15.919 -0.2004 -0.3759  0.6623
 7432TIP3    H143711   2.599   1.871  15.939  0.3438  0.1519 -0.5871
 7432TIP3    H243712   2.505   1.900  15.824 -1.3884 -0.0974  0.7256
 7433TIP3   OH243713   1.086   5.931  12.623  0.3252  0.9927 -0.1929
 7433TIP3    H143714   1.084   6.026  12.636 -2.0561  1.1474 -1.2251
 7433TIP3    H243715   1.067   5.895  12.709 -0.4356  1.5079 -0.1380
 7434TIP3   OH243716   6.183   2.857  14.928 -0.0729 -0.3778 -0.7312
 7434TIP3    H143717   6.227   2.935  14.894 -3.3550  2.2873  0.5060
 7434TIP3    H243718   6.240   2.827  14.998  1.1092  1.2466 -0.9328
 7435TIP3   OH243719   4.944   2.778  15.711 -0.1142 -0.1254  0.3009
 7435TIP3    H143720   4.943   2.871  15.690  3.2023  0.1367  0.7141
 7435TIP3    H243721   5.007   2.770  15.783 -0.4201 -2.6667  0.4042
 7436TIP3   OH243722   5.001   2.706  16.205  0.0749  0.3372 -0.0057
 7436TIP3    H143723   5.051   2.628  16.228  0.8368  0.5223 -0.9572
 7436TIP3    H243724   4.933   2.712  16.272 -0.0003 -1.1384  0.0755
 7437TIP3   OH243725   6.266   5.133  11.613  0.2685 -0.0641 -0.2846
 7437TIP3    H143726   6.333   5.186  11.568 -1.9807  1.6035 -1.9176
 7437TIP3    H243727   6.314   5.087  11.681  2.9477  1.6246 -0.8634
 7438TIP3   OH243728   4.377   6.211  14.383  0.0833  0.1874 -0.4133
 7438TIP3    H143729   4.460   6.171  14.411  0.4158  1.2221  0.1321
 7438TIP3    H243730   4.390   6.230  14.290  0.4577  0.3245 -0.3348
 7439TIP3   OH243731   5.822   4.532  11.630  0.1547 -0.7282  0.1803
 7439TIP3    H143732   5.774   4.533  11.712 -0.4305 -0.3289 -0.1622
 7439TIP3    H243733   5.911   4.560  11.654 -0.1487 -0.1051  0.5987
 7440TIP3   OH243734   1.171   5.684   1.210  0.0891  0.4160 -0.4926
 7440TIP3    H143735   1.208   5.745   1.147 -1.0791  1.1801 -0.4682
 7440TIP3    H243736   1.119   5.623   1.157  0.7041 -0.1587 -0.4487
 7441TIP3   OH243737   0.876   1.650  13.234  0.1871 -0.1524 -0.1421
 7441TIP3    H143738   0.967   1.650  13.204  0.2630  0.8212  0.0558
 7441TIP3    H243739   0.831   1.594  13.172  0.8897 -0.4991 -0.3536
 7442TIP3   OH243740   2.248   6.491   4.823  0.0969 -0.0567 -0.0807
 7442TIP3    H143741   2.178   6.556   4.825 -2.6078 -2.6509 -1.3223
 7442TIP3    H243742   2.269   6.476   4.915 -3.1633 -1.1565  0.6239
 7443TIP3   OH243743   5.307   3.254  12.652 -0.3200  0.3351 -0.7051
 7443TIP3    H143744   5.288   3.346  12.631 -0.7894  0.0663 -1.4704
 7443TIP3    H243745   5.389   3.235  12.606  1.0063  0.9866  1.2198
 7444TIP3   OH243746   0.771   5.316   2.180 -0.9402  0.6961  0.9833
 7444TIP3    H143747   0.778   5.361   2.265 -1.9127 -0.6119  1.7997
 7444TIP3    H243748   0.861   5.297   2.156 -0.6155  1.5892  1.4426
 7445TIP3   OH243749   2.996   6.167  12.094  0.7897  0.4456  0.0782
 7445TIP3    H143750   3.018   6.241  12.150 -1.6379  1.4941 -0.2241
 7445TIP3    H243751   3.006   6.201  12.005  0.2454  0.2581 -0.0623
 7446TIP3   OH243752   0.739   4.388   1.336 -0.2094  0.2939 -0.4114
 7446TIP3    H143753   0.675   4.317   1.327  0.6631 -0.4891 -0.5581
 7446TIP3    H243754   0.695   4.464   1.298 -1.4528  0.0266  0.4100
 7447TIP3   OH243755   4.359   4.251  13.671 -0.4828  0.6581 -0.8702
 7447TIP3    H143756   4.275   4.293  13.653 -0.9159  0.6183  0.9180
 7447TIP3    H243757   4.400   4.242  13.585 -1.7551  1.8246 -1.6387
 7448TIP3   OH243758   5.815   6.801   1.350 -0.0196  0.4087  0.8775
 7448TIP3    H143759   5.788   6.760   1.432 -1.1681 -1.1383 -0.2274
 7448TIP3    H243760   5.736   6.805   1.297  0.7175  1.2716 -0.2175
 7449TIP3   OH243761   4.752   4.420  16.090 -0.9873 -0.1160 -0.2288
 7449TIP3    H143762   4.763   4.389  16.000  2.0771  1.2413 -0.4475
 7449TIP3    H243763   4.804   4.359  16.143  0.3918  1.2508  0.0660
 7450TIP3   OH243764   0.811   1.412   4.852 -0.1875  0.3280  0.1175
 7450TIP3    H143765   0.787   1.450   4.767  1.5054  0.5004 -0.3158
 7450TIP3    H243766   0.793   1.481   4.915 -1.1647  0.3102 -0.1218
 7451TIP3   OH243767   5.577   3.456  12.504 -0.4440 -0.5031 -0.2137
 7451TIP3    H143768   5.521   3.514  12.453  0.4382 -1.3201 -2.2232
 7451TIP3    H243769   5.616   3.512  12.572  1.3877  1.6528 -2.8270
 7452TIP3   OH243770   3.381   6.641   1.783  0.6011  0.1358 -0.1971
 7452TIP3    H143771   3.431   6.633   1.702  0.7694  1.1031 -0.1961
 7452TIP3    H243772   3.293   6.667   1.755  0.9146  1.4216 -0.0207
 7453TIP3   OH243773   1.737   4.055   4.416 -0.0235 -0.2528 -0.3819
 7453TIP3    H143774   1.701   4.144   4.424 -1.6831 -0.8274 -1.0338
 7453TIP3    H243775   1.771   4.035   4.503 -1.6738  0.2032  0.4060
 7454TIP3   OH243776   5.905   3.570  11.467  0.4557 -0.1678 -0.3222
 7454TIP3    H143777   5.834   3.622  11.504 -2.7858 -2.9572 -2.0694
 7454TIP3    H243778   5.966   3.635  11.432 -1.4588  2.4091  0.8136
 7455TIP3   OH243779   4.008   2.329  11.353 -0.2540 -0.2006 -0.6075
 7455TIP3    H143780   4.024   2.414  11.311 -2.4900  0.1897 -0.7940
 7455TIP3    H243781   4.049   2.265  11.294 -0.9285  0.5539 -1.9356
 7456TIP3   OH243782   0.054   4.650   1.202  0.1753 -0.2034 -0.0569
 7456TIP3    H143783  -0.003   4.709   1.152 -1.3603  0.8902  2.7475
 7456TIP3    H243784   0.069   4.696   1.285  2.0547 -2.1681  0.7809
 7457TIP3   OH243785   5.278   4.944  10.899 -0.1404  0.5215 -0.1074
 7457TIP3    H143786   5.196   4.917  10.856 -0.8637  1.2035  0.8033
 7457TIP3    H243787   5.261   4.932  10.992  1.0121  0.1523  0.0757
 7458TIP3   OH243788   6.742   0.234  16.172  0.0785 -0.1198  0.5363
 7458TIP3    H143789   6.775   0.146  16.189  1.8439  0.3018 -0.4383
 7458TIP3    H243790   6.681   0.252  16.244  2.4288 -0.7517  2.8048
 7459TIP3   OH243791   4.685   3.569  11.323 -0.1613 -0.2230 -0.5853
 7459TIP3    H143792   4.766   3.574  11.373  0.1936 -1.1502 -1.0531
 7459TIP3    H243793   4.617   3.598  11.385  0.5138  0.5318 -0.1910
 7460TIP3   OH243794   5.281   0.924   1.406  0.4500  0.2831  0.5342
 7460TIP3    H143795   5.325   0.841   1.428  1.1167  0.2568 -0.8013
 7460TIP3    H243796   5.340   0.966   1.344 -1.4849  0.1364 -1.5418
 7461TIP3   OH243797   4.417   5.070   2.098  0.2986 -0.0869  0.0498
 7461TIP3    H143798   4.386   5.097   2.185  1.1952 -0.8330  0.6083
 7461TIP3    H243799   4.457   5.149   2.061 -0.4901  0.3558  0.1150
 7462TIP3   OH243800   2.891   0.783   2.797  0.0928  0.5201 -0.0611
 7462TIP3    H143801   2.935   0.791   2.713 -0.3435 -0.0254 -0.3484
 7462TIP3    H243802   2.940   0.715   2.844 -0.3334  0.0230 -0.3207
 7463TIP3   OH243803   2.621   3.431  11.580 -0.6067 -0.3273 -0.3345
 7463TIP3    H143804   2.691   3.455  11.640 -1.3169 -0.8691  0.7426
 7463TIP3    H243805   2.551   3.495  11.598 -1.4478 -1.4720  0.6005
 7464TIP3   OH243806   3.639   6.427   0.454  0.1937  0.6889  0.3154
 7464TIP3    H143807   3.568   6.491   0.448  0.5722  1.2440  1.3682
 7464TIP3    H243808   3.713   6.469   0.410  0.0766  0.4163 -0.1452
 7465TIP3   OH243809   4.007   3.222   2.989  0.3871  0.2526  0.4920
 7465TIP3    H143810   3.949   3.147   3.007  0.0936 -0.0277 -1.3994
 7465TIP3    H243811   3.948   3.295   2.973  0.4427 -0.1354 -1.8938
 7466TIP3   OH243812   1.245   2.124  11.074  0.9654  0.0705 -0.0935
 7466TIP3    H143813   1.309   2.078  11.128  0.7213 -0.0221  0.1161
 7466TIP3    H243814   1.160   2.086  11.098  0.6945  1.0304  0.5040
 7467TIP3   OH243815   2.297   4.744  17.038 -0.1315 -0.3720  0.0466
 7467TIP3    H143816   2.343   4.675  16.991  1.6354  0.6031  0.2476
 7467TIP3    H243817   2.366   4.803  17.068 -1.5277  1.1916  0.3588
 7468TIP3   OH243818   0.770   4.237  12.747 -0.1478  0.1989  0.0102
 7468TIP3    H143819   0.798   4.207  12.834 -0.9006  0.2221  0.2684
 7468TIP3    H243820   0.708   4.308  12.766  0.6313  1.0579 -0.5670
 7469TIP3   OH243821   3.701   4.650  16.061  0.0596  0.1586 -0.4437
 7469TIP3    H143822   3.630   4.636  16.124  2.5574 -1.9735  2.1671
 7469TIP3    H243823   3.730   4.740  16.077 -1.8089  0.9966 -1.4248
 7470TIP3   OH243824   3.941   5.678  15.644  0.3700 -0.2940 -0.3152
 7470TIP3    H143825   3.935   5.706  15.552 -2.1397  0.5081  0.0143
 7470TIP3    H243826   3.875   5.609  15.652 -0.9111  1.0277  1.2757
 7471TIP3   OH243827   5.761   1.333   1.320 -0.3681 -0.1909  0.4232
 7471TIP3    H143828   5.733   1.424   1.330 -1.1724 -0.4851  0.9021
 7471TIP3    H243829   5.853   1.339   1.295 -0.3862  0.7515  0.5498
 7472TIP3   OH243830   6.435   2.388   0.761 -0.3256 -0.2138 -0.2244
 7472TIP3    H143831   6.509   2.357   0.710  1.3733  0.0357  1.9578
 7472TIP3    H243832   6.389   2.308   0.787 -0.8711 -0.3682 -1.5756
 7473TIP3   OH243833   2.348   1.810   1.015  0.6311 -0.2573  0.5580
 7473TIP3    H143834   2.310   1.848   0.935  0.8576 -0.1995  0.4788
 7473TIP3    H243835   2.397   1.881   1.055  2.3887 -0.8489 -0.4168
 7474TIP3   OH243836   0.317   6.107   6.449  0.3501 -0.5697  0.2475
 7474TIP3    H143837   0.238   6.091   6.398  0.6440 -2.7476  0.3528
 7474TIP3    H243838   0.358   6.183   6.408 -0.6132 -0.8259 -1.2683
 7475TIP3   OH243839   1.202   0.517  15.442 -0.5168 -0.3066 -0.3458
 7475TIP3    H143840   1.213   0.428  15.473  1.3396 -0.5187 -1.4752
 7475TIP3    H243841   1.244   0.572  15.508  0.9461 -0.5406 -1.0360
 7476TIP3   OH243842   3.198   1.743  15.006 -0.1296 -0.4643  0.4379
 7476TIP3    H143843   3.199   1.802  15.082  0.5803 -1.1858  1.0118
 7476TIP3    H243844   3.162   1.796  14.935 -1.8222 -0.0688  1.5108
 7477TIP3   OH243845   3.207   6.552   4.902 -0.6742 -0.7142  0.4200
 7477TIP3    H143846   3.234   6.608   4.829 -1.7612 -1.0449 -0.2607
 7477TIP3    H243847   3.140   6.494   4.865 -2.6475  0.3424  2.0951
 7478TIP3   OH243848   1.535   3.556  13.839  0.0267  0.3058 -0.6404
 7478TIP3    H143849   1.507   3.482  13.892 -0.7680  2.1907  1.7521
 7478TIP3    H243850   1.610   3.523  13.789 -1.3487 -2.5292 -0.9953
 7479TIP3   OH243851   6.235   1.040   0.928 -0.2999 -0.3364  0.0117
 7479TIP3    H143852   6.278   0.955   0.919  0.1377 -0.4570  2.5558
 7479TIP3    H243853   6.165   1.025   0.991 -0.2470  1.1935  0.4688
 7480TIP3   OH243854   6.075   0.276  16.418 -0.2522 -0.0840 -0.7779
 7480TIP3    H143855   6.013   0.348  16.407  0.3469  0.7596  0.9701
 7480TIP3    H243856   6.121   0.297  16.499  1.2781 -1.4650 -1.2436
 7481TIP3   OH243857   4.565   4.413  15.774 -0.2337 -0.4298  0.4118
 7481TIP3    H143858   4.558   4.506  15.752 -0.3098 -0.7880 -1.1943
 7481TIP3    H243859   4.609   4.373  15.699 -0.1896 -1.6970  1.0784
 7482TIP3   OH243860   0.279   5.387  16.949 -0.0554 -0.0898 -0.2307
 7482TIP3    H143861   0.373   5.397  16.965 -0.5029  1.0182  2.1379
 7482TIP3    H243862   0.250   5.475  16.925 -0.6408 -0.2463 -0.0943
 7483TIP3   OH243863   5.052   1.290  13.549 -0.4748  0.1755  0.2397
 7483TIP3    H143864   5.082   1.246  13.469  0.2072 -1.6314  1.4355
 7483TIP3    H243865   5.131   1.306  13.600 -0.9560  0.8563  0.8094
 7484TIP3   OH243866   2.268   0.664  16.371 -0.4147 -0.2460  0.4429
 7484TIP3    H143867   2.193   0.657  16.311 -0.1646  2.9216 -0.4126
 7484TIP3    H243868   2.344   0.640  16.317 -0.4516 -0.0147  0.2884
 7485TIP3   OH243869   0.921   5.532  11.430 -0.0830  0.0994  0.0274
 7485TIP3    H143870   0.955   5.474  11.361  1.4212  1.8415 -0.7830
 7485TIP3    H243871   0.984   5.523  11.502 -0.2956  0.1136  0.2134
 7486TIP3   OH243872   3.475   4.119  10.632  0.0849 -0.2182  0.2940
 7486TIP3    H143873   3.443   4.029  10.626 -0.2672 -0.2274  1.9125
 7486TIP3    H243874   3.409   4.164  10.686  1.1897  0.5441  1.0389
 7487TIP3   OH243875   2.466   1.058  12.989 -0.4555 -0.6869 -0.0603
 7487TIP3    H143876   2.429   1.141  13.020  0.4927 -0.2768  0.0219
 7487TIP3    H243877   2.427   0.991  13.045 -2.1333 -0.4448 -0.8795
 7488TIP3   OH243878   4.846   1.674  11.392  0.0715 -1.1440  0.2507
 7488TIP3    H143879   4.894   1.708  11.317 -0.4768  0.9999  0.8052
 7488TIP3    H243880   4.859   1.579  11.388 -0.7540 -1.2192 -3.0785
 7489TIP3   OH243881   4.229   6.097  15.509  0.0154 -0.1175  0.3465
 7489TIP3    H143882   4.217   6.037  15.436  0.3179 -0.7928  0.8409
 7489TIP3    H243883   4.319   6.127  15.500 -0.1100  0.2079  0.1481
 7490TIP3   OH243884   6.113   0.248  13.300  0.0794 -0.1238 -0.3256
 7490TIP3    H143885   6.157   0.242  13.215  0.8531  0.1038  0.0547
 7490TIP3    H243886   6.181   0.274  13.361 -0.9217  2.0493 -0.0332
 7491TIP3   OH243887   1.331   5.614   1.418  0.0292 -0.3024 -0.2456
 7491TIP3    H143888   1.294   5.605   1.330  0.7146  0.4374 -0.6178
 7491TIP3    H243889   1.420   5.582   1.410  0.6362  1.2899 -0.2333
 7492TIP3   OH243890   3.790   5.657   2.478 -0.3834  0.2384 -0.2508
 7492TIP3    H143891   3.839   5.662   2.396 -0.4615  2.5355 -0.2040
 7492TIP3    H243892   3.855   5.628   2.542 -0.0675 -0.5388 -0.9018
 7493TIP3   OH243893   4.742   6.612  12.444  0.2478  0.2537  0.1696
 7493TIP3    H143894   4.748   6.696  12.490 -1.0018  0.3245  0.2388
 7493TIP3    H243895   4.828   6.572  12.457  0.3033  0.7666  1.6112
 7494TIP3   OH243896   2.580   0.465  16.863  0.1111 -0.4247 -0.3197
 7494TIP3    H143897   2.525   0.403  16.912  2.1855 -1.3055  1.0529
 7494TIP3    H243898   2.525   0.543  16.853 -1.9110 -1.7814 -0.4059
 7495TIP3   OH243899   4.960   4.785   0.055  0.0616 -0.1037  0.3998
 7495TIP3    H143900   4.902   4.789  -0.021 -0.4294 -1.6460  0.6452
 7495TIP3    H243901   5.040   4.743   0.022 -0.6698 -2.0642  0.9728
 7496TIP3   OH243902   2.863   6.733   5.326 -0.0726  0.0870 -0.1221
 7496TIP3    H143903   2.847   6.712   5.234 -1.2152 -0.4634  0.1781
 7496TIP3    H243904   2.783   6.704   5.371  0.0630  1.2433  0.9113
 7497TIP3   OH243905   6.615   0.297  10.942 -0.1881 -0.7430  0.5834
 7497TIP3    H143906   6.681   0.324  10.878 -0.3392 -2.8364 -0.5286
 7497TIP3    H243907   6.655   0.225  10.990 -0.7301 -0.3390  1.6860
 7498TIP3   OH243908   3.640   2.092  14.690 -0.1140  0.3163 -0.2792
 7498TIP3    H143909   3.658   2.031  14.762  1.6445  1.6778  0.4842
 7498TIP3    H243910   3.546   2.083  14.675 -0.2003 -1.3513  0.9294
 7499TIP3   OH243911   0.414   0.097  13.006  0.2993 -0.5863 -0.1106
 7499TIP3    H143912   0.487   0.056  12.959 -0.0914  0.6069 -1.8434
 7499TIP3    H243913   0.431   0.191  13.001 -1.0428 -0.3144 -0.0567
 7500TIP3   OH243914   2.804   1.774   0.092  0.0422 -0.0449  0.1959
 7500TIP3    H143915   2.868   1.719   0.136  2.3069  2.5556  0.4087
 7500TIP3    H243916   2.753   1.815   0.162  0.8914  0.9390  0.2656
 7501TIP3   OH243917   0.760   0.791  16.009 -0.3497  0.1478 -0.2350
 7501TIP3    H143918   0.682   0.807  15.956  0.6455  0.9962 -1.5287
 7501TIP3    H243919   0.784   0.877  16.043  0.1645 -0.0553 -0.0738
 7502TIP3   OH243920   1.720   6.357   6.129 -0.2553 -0.3745  0.3673
 7502TIP3    H143921   1.678   6.442   6.114 -0.9927 -0.3319  2.3825
 7502TIP3    H243922   1.814   6.378   6.134 -0.2727  0.0456 -0.8480
 7503TIP3   OH243923   2.898   1.000  13.050 -0.4616 -0.3607  0.3688
 7503TIP3    H143924   2.990   1.022  13.064  0.2362 -1.8539 -1.4005
 7503TIP3    H243925   2.851   1.081  13.072  1.5625  1.6373 -1.9671
 7504TIP3   OH243926   2.191   4.709   5.702 -0.5035  0.1854  0.1241
 7504TIP3    H143927   2.221   4.767   5.772  0.4353 -0.6601  0.4573
 7504TIP3    H243928   2.271   4.666   5.670 -1.1190 -0.6695 -0.3182
 7505TIP3   OH243929   5.438   2.613  16.146 -0.2170 -0.1750  0.1591
 7505TIP3    H143930   5.452   2.563  16.226  0.5180 -0.9230 -0.4261
 7505TIP3    H243931   5.522   2.654  16.128 -0.5536  0.5083  0.1067
 7506TIP3   OH243932   2.693   1.538   3.472  0.4055  0.2011  0.1453
 7506TIP3    H143933   2.626   1.538   3.404 -0.5528 -0.7674  1.0555
 7506TIP3    H243934   2.672   1.615   3.525 -1.3491 -1.2082  1.6530
 7507TIP3   OH243935   2.321   5.769   0.185 -0.1318 -0.2345  0.1726
 7507TIP3    H143936   2.230   5.756   0.210  0.1808 -0.3210  1.3304
 7507TIP3    H243937   2.363   5.800   0.265  0.9362 -0.5682 -0.2484
 7508TIP3   OH243938   1.005   2.876  14.234  0.4709  0.0746  0.3075
 7508TIP3    H143939   0.969   2.855  14.320  0.9215  0.8059  0.6967
 7508TIP3    H243940   0.993   2.797  14.182 -1.1817  0.1238  0.5748
 7509TIP3   OH243941   3.903   2.113  12.152  0.2124  0.5726  0.3399
 7509TIP3    H143942   3.928   2.165  12.075 -0.7541 -0.2707 -0.5816
 7509TIP3    H243943   3.886   2.178  12.221  1.4289  1.3251 -0.0511
 7510TIP3   OH243944   4.872   6.210  13.043 -0.1816  0.9067 -0.0094
 7510TIP3    H143945   4.777   6.206  13.036 -0.0989 -0.2942 -0.7201
 7510TIP3    H243946   4.901   6.119  13.032  0.8793  0.7167  3.2618
 7511TIP3   OH243947   1.235   4.155  15.155  0.2026  0.2435  0.6589
 7511TIP3    H143948   1.288   4.077  15.140 -1.2249 -0.3303 -2.1454
 7511TIP3    H243949   1.276   4.223  15.102  0.5701  1.0174  1.8981
 7512TIP3   OH243950   2.926   5.999   4.386  0.3081 -0.4288 -0.1847
 7512TIP3    H143951   3.016   6.006   4.352  1.0399 -0.5951  1.5703
 7512TIP3    H243952   2.875   6.057   4.330  1.0463 -1.9073 -2.5690
 7513TIP3   OH243953   4.700   6.588  12.163  0.4691  0.3142 -0.6515
 7513TIP3    H143954   4.707   6.668  12.110 -0.4620 -0.1190 -1.4645
 7513TIP3    H243955   4.740   6.611  12.247  0.7259  1.4589 -1.0696
 7514TIP3   OH243956   2.173   4.213   4.152 -0.8860  0.2328  0.3372
 7514TIP3    H143957   2.248   4.229   4.210  0.8108  0.4800 -1.7879
 7514TIP3    H243958   2.210   4.163   4.079 -2.3034  2.1640 -1.8165
 7515TIP3   OH243959   5.988   5.536   2.208  0.1560  0.0257 -0.5451
 7515TIP3    H143960   6.016   5.627   2.209  1.7600 -0.4349 -1.6189
 7515TIP3    H243961   5.942   5.525   2.125  0.1276 -0.2099 -0.5006
 7516TIP3   OH243962   4.638   0.533   4.352 -0.2067 -0.6531 -0.1637
 7516TIP3    H143963   4.689   0.614   4.358  0.3876 -1.0762  0.5788
 7516TIP3    H243964   4.661   0.495   4.268  0.1233 -0.4565 -0.1613
 7517TIP3   OH243965   3.132   6.642   1.953  0.0459  0.0458 -0.0121
 7517TIP3    H143966   3.226   6.634   1.941 -0.0426 -1.4036  0.1075
 7517TIP3    H243967   3.122   6.676   2.041  0.4553 -0.9205  0.4265
 7518TIP3   OH243968   3.926   4.460  15.868 -0.3583  0.0288 -0.1992
 7518TIP3    H143969   3.895   4.371  15.883  0.0686  0.3338  3.1023
 7518TIP3    H243970   3.850   4.515  15.885 -0.4957  0.3761 -1.7765
 7519TIP3   OH243971   1.545   0.795   4.573 -0.0707  0.5318 -0.4637
 7519TIP3    H143972   1.467   0.844   4.597  0.5395  1.0760  0.4751
 7519TIP3    H243973   1.569   0.746   4.652 -0.4373 -1.0071 -1.2601
 7520TIP3   OH243974   5.867   1.869   2.541  0.2696 -0.0093 -0.2990
 7520TIP3    H143975   5.867   1.910   2.454 -2.8031 -0.8975 -0.8271
 7520TIP3    H243976   5.858   1.941   2.602  0.1964  0.4804 -0.8735
 7521TIP3   OH243977   4.570   6.685   3.317  0.2096  0.2235 -0.3909
 7521TIP3    H143978   4.612   6.609   3.356  0.7128  0.4110 -0.5663
 7521TIP3    H243979   4.483   6.687   3.357  0.5830  0.1882  0.4302
 7522TIP3   OH243980   4.714   1.537  14.686  0.1101 -0.0033  0.2739
 7522TIP3    H143981   4.658   1.523  14.609  0.9234 -0.5712 -0.2203
 7522TIP3    H243982   4.653   1.533  14.760 -0.5555 -0.2887 -0.2734
 7523TIP3   OH243983   3.983   4.298  11.046  0.4038  0.2905 -0.7415
 7523TIP3    H143984   4.049   4.319  10.980  0.3209  2.5236 -0.1820
 7523TIP3    H243985   4.022   4.327  11.129  0.3833 -2.1747  0.2209
 7524TIP3   OH243986   0.341   1.176   0.300 -0.3658  0.8561 -0.0566
 7524TIP3    H143987   0.405   1.115   0.262 -0.8115 -1.2884  2.3464
 7524TIP3    H243988   0.384   1.261   0.297  0.0938  0.6583 -4.0374
 7525TIP3   OH243989   3.585   4.237   0.621 -0.0785 -0.1064  0.3602
 7525TIP3    H143990   3.649   4.298   0.658 -0.4410  0.5109 -0.0037
 7525TIP3    H243991   3.560   4.181   0.695 -1.5142  1.7132  1.3552
 7526TIP3   OH243992   4.601   4.943   0.500 -0.8946  0.3025 -0.4748
 7526TIP3    H143993   4.615   4.935   0.405  0.2379 -0.1241 -0.2826
 7526TIP3    H243994   4.638   5.029   0.522  0.2307 -0.2398 -0.1876
 7527TIP3   OH243995   2.802   6.114   5.707 -0.0480  0.2364  0.2514
 7527TIP3    H143996   2.789   6.030   5.751 -1.3213 -0.4358 -1.2954
 7527TIP3    H243997   2.812   6.091   5.614  3.7616  1.4616  0.1773
 7528TIP3   OH243998   6.001   2.422  14.492 -0.4887  0.2864 -0.0709
 7528TIP3    H143999   6.059   2.358  14.452 -1.4642 -0.6378 -0.0397
 7528TIP3    H244000   6.037   2.435  14.580  0.4700  0.7895 -0.5217
 7529TIP3   OH244001   3.531   6.684   0.260  0.1182 -0.1025  0.2566
 7529TIP3    H144002   3.551   6.766   0.306  2.1087 -1.0391  1.2063
 7529TIP3    H244003   3.436   6.686   0.248 -0.3643  0.8464  3.2462
 7530TIP3   OH244004   2.360   4.160   2.654  0.3990  0.2390 -0.4303
 7530TIP3    H144005   2.322   4.107   2.724  0.6263 -0.6762 -0.9814
 7530TIP3    H244006   2.418   4.222   2.699  1.4891 -1.1269  0.1380
 7531TIP3   OH244007   5.383   3.199  14.258 -0.0634  0.5645 -0.1889
 7531TIP3    H144008   5.436   3.143  14.315 -0.5688 -0.1808 -0.4465
 7531TIP3    H244009   5.433   3.205  14.176 -0.7986 -0.9149 -0.7756
 7532TIP3   OH244010   5.100   2.765   0.802  0.4350  0.3008 -0.3813
 7532TIP3    H144011   5.181   2.727   0.768  0.3423  0.5400 -0.8671
 7532TIP3    H244012   5.032   2.700   0.782  0.1933  0.9291 -1.6503
 7533TIP3   OH244013   5.061   5.411  10.630 -0.1576  0.8223  0.2053
 7533TIP3    H144014   5.076   5.402  10.536  0.1014 -1.1647  0.4122
 7533TIP3    H244015   4.978   5.460  10.636  0.0570  1.3789 -1.0301
 7534TIP3   OH244016   1.772   2.403  15.856 -0.0994 -0.1947 -0.2077
 7534TIP3    H144017   1.774   2.315  15.893 -1.3414 -0.2709 -0.2985
 7534TIP3    H244018   1.679   2.425  15.849  0.1678  1.7455  1.3079
 7535TIP3   OH244019   5.624   2.144  13.513  0.1982 -0.1628  0.0548
 7535TIP3    H144020   5.576   2.128  13.432 -0.4655  0.9159  0.2279
 7535TIP3    H244021   5.658   2.233  13.504  1.4875 -0.6084  0.2882
 7536TIP3   OH244022   5.176   1.384   4.788  0.4649 -0.5033 -0.3100
 7536TIP3    H144023   5.240   1.455   4.788  0.3207 -0.3728 -0.2585
 7536TIP3    H244024   5.121   1.401   4.864  0.7362 -0.9503 -0.0028
 7537TIP3   OH244025   6.271   1.996  10.805  0.2757 -0.3259 -0.0979
 7537TIP3    H144026   6.217   2.048  10.865  0.7654  0.9297 -0.7207
 7537TIP3    H244027   6.218   1.917  10.788 -0.2333 -0.3135  1.3046
 7538TIP3   OH244028   4.547   3.569  13.052  0.1739 -0.1838 -0.6607
 7538TIP3    H144029   4.529   3.629  13.124  2.9670 -0.1872  0.1616
 7538TIP3    H244030   4.565   3.626  12.977  2.5292  0.1109  0.0477
 7539TIP3   OH244031   0.059   1.846  14.549  0.5461 -0.0607 -0.4803
 7539TIP3    H144032  -0.036   1.843  14.560  0.7583 -0.8764  1.3409
 7539TIP3    H244033   0.086   1.922  14.601  0.9792 -0.4009 -0.2051
 7540TIP3   OH244034   4.726   1.409  11.470  0.7976 -0.0315 -0.9326
 7540TIP3    H144035   4.653   1.348  11.463  0.8818 -0.1253 -0.9962
 7540TIP3    H244036   4.803   1.356  11.449  1.0130 -0.2176  0.2651
 7541TIP3   OH244037   2.746   5.650   4.223 -0.4550  0.1561  0.1928
 7541TIP3    H144038   2.686   5.722   4.204  2.4783  2.4604 -1.1463
 7541TIP3    H244039   2.795   5.678   4.300 -1.3114 -1.9207  1.6013
 7542TIP3   OH244040   3.763   0.425  16.955  0.6805  0.1511 -0.1356
 7542TIP3    H144041   3.804   0.505  16.922 -0.1414  0.9375  0.6691
 7542TIP3    H244042   3.689   0.456  17.008  1.0382 -1.0882  1.1731
 7543TIP3   OH244043   3.496   5.870  11.883 -0.4852  0.1763 -0.0449
 7543TIP3    H144044   3.457   5.834  11.803 -0.4475  1.9749 -0.9316
 7543TIP3    H244045   3.493   5.965  11.870  1.3088  0.4503  1.2572
 7544TIP3   OH244046   3.929   4.668  11.798 -0.5049 -0.5236  0.1363
 7544TIP3    H144047   3.996   4.601  11.785 -0.4003 -0.8693  2.1274
 7544TIP3    H244048   3.977   4.745  11.829 -0.8156 -0.0707 -0.4721
 7545TIP3   OH244049   2.463   0.064  10.471  0.0319 -0.6189 -0.1923
 7545TIP3    H144050   2.497   0.050  10.383  0.5658 -2.1570  0.2077
 7545TIP3    H244051   2.466   0.158  10.484  3.2423 -0.5305 -0.5913
 7546TIP3   OH244052   5.670   1.821  16.692 -0.5027 -0.0098  0.1866
 7546TIP3    H144053   5.757   1.856  16.711 -0.0891 -0.9672  0.0964
 7546TIP3    H244054   5.649   1.857  16.605  2.0975 -3.8186 -2.3221
 7547TIP3   OH244055   1.800   2.273   1.484  0.2934 -0.4074 -0.0087
 7547TIP3    H144056   1.894   2.290   1.489  0.4235 -1.3276  1.0384
 7547TIP3    H244057   1.782   2.217   1.559 -0.8098 -1.5236 -1.0677
 7548TIP3   OH244058   3.881   5.470  16.009 -0.6546 -0.7976 -0.2257
 7548TIP3    H144059   3.814   5.536  16.026  0.4596  0.3859 -0.2684
 7548TIP3    H244060   3.925   5.500  15.929  1.0828 -0.5778  0.7704
 7549TIP3   OH244061   2.709   3.801  10.594  0.6517 -0.0696  0.2984
 7549TIP3    H144062   2.632   3.843  10.631 -0.4210 -2.8834  1.4278
 7549TIP3    H244063   2.783   3.843  10.640 -0.3369  0.7233  1.2187
 7550TIP3   OH244064   0.473   1.955   4.438  0.0422 -0.1010 -0.0371
 7550TIP3    H144065   0.556   2.002   4.441  0.4913 -0.5374 -2.9529
 7550TIP3    H244066   0.414   2.011   4.387 -0.0947 -1.6212 -1.6434
 7551TIP3   OH244067   5.398   5.281   5.920 -0.0214 -0.0185  0.3623
 7551TIP3    H144068   5.426   5.299   6.010 -1.8048 -1.0998  1.1945
 7551TIP3    H244069   5.463   5.221   5.885  0.6577  0.3682  0.9397
 7552TIP3   OH244070   3.144   0.526  15.989 -0.5400  0.0801  0.2781
 7552TIP3    H144071   3.197   0.543  15.911  0.0772 -2.2146  0.1181
 7552TIP3    H244072   3.085   0.601  15.995 -0.0783  0.6934 -1.9377
 7553TIP3   OH244073   5.599   1.536   3.775 -0.0843  0.0135  0.2258
 7553TIP3    H144074   5.504   1.546   3.771 -0.0600  0.7273  1.0141
 7553TIP3    H244075   5.616   1.511   3.866  0.4828 -0.1819  0.0712
 7554TIP3   OH244076   5.865   0.751  16.415 -0.5118  0.4215  0.3200
 7554TIP3    H144077   5.812   0.756  16.336  0.3235 -0.2035 -0.2953
 7554TIP3    H244078   5.946   0.796  16.393 -0.1371 -0.0536  0.6972
 7555TIP3   OH244079   5.414   3.460   4.159 -0.8708 -0.0029  0.4129
 7555TIP3    H144080   5.434   3.371   4.188  1.0292  1.1615  3.1646
 7555TIP3    H244081   5.371   3.449   4.074  2.8900 -3.3862 -1.3823
 7556TIP3   OH244082   0.726   1.844  10.767 -0.5323  0.4703  0.5667
 7556TIP3    H144083   0.765   1.931  10.767  0.1210  0.2080  1.6318
 7556TIP3    H244084   0.788   1.790  10.718 -0.7234  0.5224  0.2689
 7557TIP3   OH244085   5.562   6.798   1.286  0.4481 -0.1922 -0.0991
 7557TIP3    H144086   5.503   6.723   1.286  1.9851 -1.5100  1.9047
 7557TIP3    H244087   5.524   6.859   1.222 -2.9302 -1.0156  0.9363
 7558TIP3   OH244088   2.683   6.107   0.727  0.0027  0.4515  0.5311
 7558TIP3    H144089   2.715   6.019   0.707 -0.5715  0.5329 -0.8515
 7558TIP3    H244090   2.655   6.102   0.818  0.0202 -0.7826  0.4886
 7559TIP3   OH244091   2.349   2.597  12.582  0.6305  0.2021 -0.0708
 7559TIP3    H144092   2.432   2.630  12.616  0.7609  0.7077 -0.8690
 7559TIP3    H244093   2.346   2.627  12.491  1.2109 -2.7690 -1.2078
 7560TIP3   OH244094   5.840   1.849  12.939 -0.6254  0.3772  0.2197
 7560TIP3    H144095   5.853   1.769  12.888 -0.3265  0.4747  0.1398
 7560TIP3    H244096   5.882   1.830  13.023  1.5406  1.2677 -0.5885
 7561TIP3   OH244097   2.930   0.545   3.498  0.0677  0.2658 -0.0614
 7561TIP3    H144098   2.851   0.555   3.444 -0.3646 -2.7610 -0.1296
 7561TIP3    H244099   2.978   0.473   3.458  2.0835  0.9408  0.9859
 7562TIP3   OH244100   2.420   4.116  12.583 -0.4155  0.2562 -0.0151
 7562TIP3    H144101   2.332   4.125  12.546 -0.4516 -0.8490 -0.2349
 7562TIP3    H244102   2.406   4.100  12.676 -0.4707 -0.2251 -0.1017
 7563TIP3   OH244103   1.656   6.156  11.973  0.7718 -0.4428  0.1702
 7563TIP3    H144104   1.665   6.238  11.925  0.3997 -0.9964 -0.8947
 7563TIP3    H244105   1.574   6.118  11.940  0.0931 -0.4952  1.8228
 7564TIP3   OH244106   6.085   2.266   5.746 -0.2173 -0.5613 -0.4040
 7564TIP3    H144107   6.122   2.292   5.830  0.2026 -0.4141 -0.6331
 7564TIP3    H244108   5.998   2.306   5.745 -1.7215 -3.4323  1.4672
 7565TIP3   OH244109   1.678   4.678   2.085  0.1279  0.3120 -0.2576
 7565TIP3    H144110   1.624   4.748   2.122  0.6893  1.6884 -1.8769
 7565TIP3    H244111   1.765   4.693   2.123 -0.0783 -0.4638  0.5508
 7566TIP3   OH244112   5.502   5.597   3.144  0.1131  0.6339  0.0066
 7566TIP3    H144113   5.593   5.581   3.170 -0.6955 -0.9718  2.1683
 7566TIP3    H244114   5.489   5.543   3.066  1.2362  1.6770 -0.9574
 7567TIP3   OH244115   4.273   5.210  12.827 -0.2267  0.3341 -0.0300
 7567TIP3    H144116   4.262   5.162  12.744 -1.8492 -0.1053  0.4096
 7567TIP3    H244117   4.368   5.214  12.839  0.0937  1.2088 -2.3605
 7568TIP3   OH244118   0.745   6.335  14.413 -0.1269 -0.2789 -0.1862
 7568TIP3    H144119   0.676   6.370  14.469  0.6354  1.9823 -0.5520
 7568TIP3    H244120   0.711   6.344  14.324 -0.5296 -1.9930 -0.2429
 7569TIP3   OH244121   1.620   3.675  13.018 -0.0419 -0.2077 -0.1699
 7569TIP3    H144122   1.546   3.620  12.991 -0.5452 -0.4274  1.5119
 7569TIP3    H244123   1.580   3.761  13.036  0.2957 -0.0230 -0.2940
 7570TIP3   OH244124   1.405   4.476  10.501 -0.1741  0.9339  0.1394
 7570TIP3    H144125   1.405   4.565  10.536 -1.0372  0.5956  1.0345
 7570TIP3    H244126   1.381   4.420  10.575 -0.7999  0.0705 -0.6815
 7571TIP3   OH244127   4.547   6.518   4.272 -0.1245 -0.2438  0.0194
 7571TIP3    H144128   4.585   6.575   4.205  0.3391  0.4595  0.8660
 7571TIP3    H244129   4.534   6.434   4.227 -0.2610  0.3468 -1.0744
 7572TIP3   OH244130   2.255   4.446  14.992 -0.4880  0.2759  0.0921
 7572TIP3    H144131   2.178   4.499  14.972 -0.8791  0.1887  1.3236
 7572TIP3    H244132   2.223   4.356  14.989 -1.2439  0.2937  3.5410
 7573TIP3   OH244133   4.349   5.262  16.884  0.4655 -0.0961  0.3643
 7573TIP3    H144134   4.264   5.288  16.918  1.6420  0.8621  2.8628
 7573TIP3    H244135   4.330   5.205  16.809 -2.3066  1.4436 -0.2133
 7574TIP3   OH244136   2.142   2.154   1.285  0.2206 -0.3230 -0.3001
 7574TIP3    H144137   2.207   2.099   1.329 -0.7089 -1.2603 -0.0776
 7574TIP3    H244138   2.124   2.224   1.348  0.8492 -0.1804 -0.2743
 7575TIP3   OH244139   6.088   5.157  10.691 -0.2526 -0.1595 -0.0095
 7575TIP3    H144140   6.029   5.082  10.697  0.6617 -1.0478 -1.4204
 7575TIP3    H244141   6.137   5.156  10.773 -1.6101  0.1140  0.8365
 7576TIP3   OH244142   3.113   5.141  14.814  0.0261 -0.1985 -0.1958
 7576TIP3    H144143   3.176   5.110  14.749  0.5314 -0.3611  0.3565
 7576TIP3    H244144   3.156   5.126  14.898 -0.3272  0.6570  0.1520
 7577TIP3   OH244145   2.164   4.097  13.254 -0.2874  1.0106 -0.0949
 7577TIP3    H144146   2.104   4.048  13.311  0.0154 -0.4276 -0.9550
 7577TIP3    H244147   2.173   4.042  13.176  1.7739  1.4104 -0.1895
 7578TIP3   OH244148   6.564   4.000   2.495  0.0943 -0.1937 -0.0765
 7578TIP3    H144149   6.547   3.959   2.580  0.7283  0.6321  0.4622
 7578TIP3    H244150   6.528   4.088   2.504  1.4905  0.4038 -0.1296
 7579TIP3   OH244151   5.260   0.125   1.447  0.0000  0.3112 -0.0389
 7579TIP3    H144152   5.266   0.061   1.377 -1.4607  0.0551  0.0374
 7579TIP3    H244153   5.339   0.178   1.437  0.4617 -0.5176 -1.0655
 7580TIP3   OH244154   2.182   4.872   0.898 -0.2184 -0.1344  0.2363
 7580TIP3    H144155   2.087   4.860   0.896  0.0386 -2.8566  0.1053
 7580TIP3    H244156   2.202   4.884   0.991 -0.5862 -1.0707  0.4513
 7581TIP3   OH244157   5.052   2.397  11.209 -0.0902  0.0016  0.2137
 7581TIP3    H144158   5.041   2.457  11.282 -2.7195  0.3006 -0.3149
 7581TIP3    H244159   5.066   2.312  11.249 -0.3717  0.3361  1.0455
 7582TIP3   OH244160   3.182   0.504  15.594 -0.4397  0.0198 -0.0390
 7582TIP3    H144161   3.245   0.563  15.634 -0.2924  0.1375 -0.4377
 7582TIP3    H244162   3.100   0.521  15.641 -0.5245  0.9130 -0.4880
 7583TIP3   OH244163   1.129   1.786   3.473  0.6849  0.0456 -0.3957
 7583TIP3    H144164   1.045   1.743   3.456  0.0455  1.0814  0.0375
 7583TIP3    H244165   1.159   1.749   3.555  0.5085 -0.1173 -0.4041
 7584TIP3   OH244166   1.198   1.983  16.390  0.2410  0.1103 -0.0682
 7584TIP3    H144167   1.124   1.932  16.357  0.0632  0.3764 -0.0751
 7584TIP3    H244168   1.194   2.066  16.343 -1.3380  1.4107  2.1831
 7585TIP3   OH244169   6.436   2.194   5.276 -0.4316  0.3710  1.0223
 7585TIP3    H144170   6.346   2.161   5.274 -0.3408  0.0175  2.2397
 7585TIP3    H244171   6.428   2.283   5.242 -1.0857  0.0414  0.2396
 7586TIP3   OH244172   0.697   2.686   4.986 -0.4767  0.1391  0.1081
 7586TIP3    H144173   0.643   2.765   4.986  3.1024  2.8723 -1.1238
 7586TIP3    H244174   0.719   2.673   4.893  1.5071 -0.3345  0.5991
 7587TIP3   OH244175   0.416   2.642   5.842  0.5401  0.2084 -0.7210
 7587TIP3    H144176   0.349   2.709   5.830  0.5985  0.3892 -0.0571
 7587TIP3    H244177   0.493   2.689   5.875  0.8158 -0.0767 -0.9459
 7588TIP3   OH244178   2.179   2.354   6.593 -0.2786  0.0036 -0.4236
 7588TIP3    H144179   2.104   2.298   6.572 -0.3787  1.0961 -3.4864
 7588TIP3    H244180   2.255   2.304   6.563 -0.2534  0.8528 -1.8633
 7589TIP3   OH244181   1.853   3.082   4.916  0.4371  0.2408  0.0767
 7589TIP3    H144182   1.830   3.114   4.828  2.1015 -0.1591 -0.5308
 7589TIP3    H244183   1.900   3.155   4.956  0.4054  0.1220  0.3304
 7590TIP3   OH244184   0.239   4.789  12.982 -0.0397 -0.1853  0.1917
 7590TIP3    H144185   0.157   4.833  12.961  1.1444  0.3035 -4.5586
 7590TIP3    H244186   0.294   4.856  13.020 -0.4532  0.6865 -0.7102
 7591TIP3   OH244187   2.508   1.509  15.959 -0.3508  0.1774  0.0246
 7591TIP3    H144188   2.562   1.574  16.005  0.1710 -0.0273 -0.2864
 7591TIP3    H244189   2.567   1.433  15.948 -0.9792 -0.3831  0.4725
 7592TIP3   OH244190   3.338   4.845   0.794  0.3820 -0.9849 -0.3351
 7592TIP3    H144191   3.382   4.762   0.811  1.9091  0.3067  2.9502
 7592TIP3    H244192   3.408   4.905   0.767 -0.4244 -0.3494 -1.0864
 7593TIP3   OH244193   1.861   4.535  14.038  0.3903  0.2160  0.7114
 7593TIP3    H144194   1.931   4.535  14.103  1.2596  0.3552 -0.2169
 7593TIP3    H244195   1.840   4.443  14.024 -0.1849  0.2044  1.5855
 7594TIP3   OH244196   0.924   3.428   2.459  0.5163 -0.3624 -0.3834
 7594TIP3    H144197   0.886   3.423   2.547 -1.0485  0.3975 -0.9848
 7594TIP3    H244198   0.955   3.339   2.441  0.1756 -0.7010  0.6460
 7595TIP3   OH244199   4.931   4.275   1.656 -0.5982 -0.5051 -0.5523
 7595TIP3    H144200   4.894   4.301   1.740 -0.7561  0.6305 -0.9629
 7595TIP3    H244201   4.957   4.183   1.669 -0.8824 -0.4336  0.6343
 7596TIP3   OH244202   4.247   0.778  12.650 -0.0776 -0.0102 -0.0559
 7596TIP3    H144203   4.267   0.725  12.728  0.3967  3.1669  2.1719
 7596TIP3    H244204   4.331   0.818  12.627 -0.5125  0.1839 -1.3733
 7597TIP3   OH244205   6.532   5.043   4.674 -0.1595  0.4095  0.5577
 7597TIP3    H144206   6.627   5.037   4.681 -0.0687  0.1578 -0.6186
 7597TIP3    H244207   6.509   5.126   4.716  0.3499 -0.4355  2.6165
 7598TIP3   OH244208   1.822   5.024  14.348 -0.2968  0.0997  0.5349
 7598TIP3    H144209   1.899   5.040  14.403 -0.2709 -0.3266  0.6268
 7598TIP3    H244210   1.818   4.928  14.340 -0.1653  0.1602 -0.3893
 7599TIP3   OH244211   2.725   0.936  15.864 -0.4133  0.2596  0.2164
 7599TIP3    H144212   2.682   0.938  15.950 -1.8246 -0.1805 -0.4456
 7599TIP3    H244213   2.653   0.943  15.802  0.5164 -0.2664 -0.9472
 7600TIP3   OH244214   3.978   4.250   3.788 -0.6627 -0.6394  0.5187
 7600TIP3    H144215   3.883   4.245   3.795 -0.6486 -1.5729  0.2370
 7600TIP3    H244216   4.010   4.174   3.837 -0.1087 -0.8024 -0.0732
 7601TIP3   OH244217   3.523   2.330  13.774  0.2355  0.5854 -0.1214
 7601TIP3    H144218   3.542   2.423  13.776 -0.8363  0.8263 -0.6375
 7601TIP3    H244219   3.433   2.324  13.741  0.1787 -0.6087  0.1962
 7602TIP3   OH244220   5.751   6.045   4.830 -0.1420  0.3604 -0.2536
 7602TIP3    H144221   5.666   6.047   4.786 -0.3352  0.7567  0.1275
 7602TIP3    H244222   5.782   6.135   4.829 -0.0786  0.3527  0.2717
 7603TIP3   OH244223   6.473   3.466  13.730 -0.1724  0.0819 -0.4150
 7603TIP3    H144224   6.549   3.414  13.703  1.2735  0.6874  2.1369
 7603TIP3    H244225   6.501   3.557  13.717 -0.7709  0.3000 -0.2212
 7604TIP3   OH244226   0.429   5.620   3.669  0.1447  0.0794 -0.5418
 7604TIP3    H144227   0.479   5.571   3.603 -1.1052 -1.8483 -0.1431
 7604TIP3    H244228   0.338   5.600   3.649 -0.2746 -0.6529  1.7921
 7605TIP3   OH244229   6.032   5.528  12.904  0.3396 -0.4633 -0.1103
 7605TIP3    H144230   6.072   5.552  12.988  1.3701 -1.4269 -0.3051
 7605TIP3    H244231   6.035   5.432  12.903  0.0519 -0.4645 -1.1201
 7606TIP3   OH244232   0.600   5.165   3.911 -0.3963 -0.2338  0.1089
 7606TIP3    H144233   0.593   5.194   3.820  1.0292 -2.2292 -0.6793
 7606TIP3    H244234   0.515   5.188   3.949 -0.7769  1.2626 -1.4983
 7607TIP3   OH244235   5.651   5.920  15.090 -0.1897  0.2942 -0.7078
 7607TIP3    H144236   5.606   5.949  15.169  0.5875 -0.9849  0.2209
 7607TIP3    H244237   5.739   5.957  15.097 -0.5290  1.3598 -1.6919
 7608TIP3   OH244238   0.615   5.011  11.584  0.5558  0.5030  0.5082
 7608TIP3    H144239   0.530   5.050  11.605  0.2103  0.6409 -0.9818
 7608TIP3    H244240   0.679   5.074  11.617  0.0136  2.5354 -1.9459
 7609TIP3   OH244241   3.104   3.355  12.755  0.3006 -0.6361  0.5740
 7609TIP3    H144242   3.059   3.271  12.753 -1.3345  0.2012  0.6935
 7609TIP3    H244243   3.057   3.407  12.820 -0.4743  1.2835 -1.3950
 7610TIP3   OH244244   6.513   6.071   5.511 -0.3282  0.2228 -0.0725
 7610TIP3    H144245   6.420   6.092   5.514 -0.0148  1.7052  0.2305
 7610TIP3    H244246   6.556   6.155   5.494  0.9702 -0.3908  0.0357
 7611TIP3   OH244247   1.169   3.701  16.771 -0.0705  0.2529  0.4601
 7611TIP3    H144248   1.252   3.711  16.723 -0.0158  0.0236  0.5069
 7611TIP3    H244249   1.125   3.627  16.728 -1.1066  1.5328 -0.7891
 7612TIP3   OH244250   6.013   5.366   4.803  0.1388 -0.5682  0.4700
 7612TIP3    H144251   5.954   5.308   4.851 -0.7260 -0.1176 -0.0258
 7612TIP3    H244252   5.988   5.354   4.711  0.1007  0.4206  0.3432
 7613TIP3   OH244253   6.254   4.026   1.779 -0.5526  0.0394 -1.0728
 7613TIP3    H144254   6.172   4.011   1.825 -0.0169 -1.2239 -0.4861
 7613TIP3    H244255   6.308   4.074   1.841 -0.2638 -0.6023 -0.8160
 7614TIP3   OH244256   5.189   6.328  12.773 -0.1473  0.1180 -0.1365
 7614TIP3    H144257   5.212   6.263  12.706  0.4137 -0.9719  1.0643
 7614TIP3    H244258   5.269   6.340  12.823 -0.8178  0.1742  0.9378
 7615TIP3   OH244259   1.552   0.223   2.554  0.4155  0.3121 -0.5834
 7615TIP3    H144260   1.579   0.133   2.574  1.4220  0.3140 -1.8146
 7615TIP3    H244261   1.577   0.274   2.631 -1.3747 -0.6480  0.7097
 7616TIP3   OH244262   5.336   5.234   6.301  0.2396  0.6557  0.4264
 7616TIP3    H144263   5.248   5.249   6.265  0.3383 -0.7018 -0.4434
 7616TIP3    H244264   5.322   5.176   6.375  0.4212  0.1946  0.1047
 7617TIP3   OH244265   2.844   2.653  12.239  0.0740 -0.3209 -0.0374
 7617TIP3    H144266   2.852   2.569  12.193  0.2738  0.9417 -2.4819
 7617TIP3    H244267   2.873   2.718  12.175 -1.3102  1.7508  1.3220
 7618TIP3   OH244268   0.146   5.114   1.101  0.3467  0.2661 -0.0975
 7618TIP3    H144269   0.092   5.111   1.022 -0.0857  1.3620  0.1387
 7618TIP3    H244270   0.085   5.089   1.171 -0.3592  3.0201  0.3924
 7619TIP3   OH244271   6.000   3.225   5.967  0.0575 -0.2941 -0.0048
 7619TIP3    H144272   5.918   3.235   5.920 -0.0141 -1.9276 -0.2823
 7619TIP3    H244273   6.062   3.194   5.901  1.4455  2.6519 -0.2384
 7620TIP3   OH244274   6.213   6.395  13.654  0.1946  0.7172  0.0161
 7620TIP3    H144275   6.168   6.465  13.701 -0.1152  0.7882 -0.3903
 7620TIP3    H244276   6.223   6.325  13.719  0.0180  0.9257  0.2654
 7621TIP3   OH244277   3.267   3.476  13.136  0.3863 -0.3372  0.1306
 7621TIP3    H144278   3.250   3.390  13.175  0.1039 -0.0575  0.6256
 7621TIP3    H244279   3.185   3.500  13.094  0.7827 -0.7804 -0.9365
 7622TIP3   OH244280   3.681   0.904  13.258 -0.0474  0.0218  0.0665
 7622TIP3    H144281   3.614   0.840  13.282 -0.1283  0.1586  0.2057
 7622TIP3    H244282   3.670   0.974  13.321  0.5657 -0.1888  0.4080
 7623TIP3   OH244283   2.952   3.222  12.031  0.2614 -0.2894 -0.3503
 7623TIP3    H144284   2.857   3.219  12.044  0.2005 -2.8162 -0.8007
 7623TIP3    H244285   2.977   3.312  12.054 -2.4573  1.0103 -1.9886
 7624TIP3   OH244286   3.415   5.996  14.116 -0.2660 -0.4553 -0.3958
 7624TIP3    H144287   3.371   5.911  14.119 -1.4950  0.0414 -2.1287
 7624TIP3    H244288   3.481   5.992  14.185  0.3860 -3.1772 -1.0386
 7625TIP3   OH244289   3.299   0.147  11.467  0.1610  0.0075 -0.1248
 7625TIP3    H144290   3.295   0.065  11.417  1.1920  0.5492 -1.1442
 7625TIP3    H244291   3.324   0.119  11.555  2.2039 -0.7037 -0.8558
 7626TIP3   OH244292   2.855   3.103  15.180  0.0962  0.2547 -0.4282
 7626TIP3    H144293   2.760   3.117  15.179  0.2019  1.5334  1.6188
 7626TIP3    H244294   2.892   3.186  15.148  0.5330  0.0349 -0.4992
 7627TIP3   OH244295   5.006   3.868   2.625 -0.0523  0.1156  0.7097
 7627TIP3    H144296   4.915   3.894   2.631 -0.7092 -1.2094 -2.0087
 7627TIP3    H244297   5.015   3.797   2.690 -1.3796 -0.7439 -0.0086
 7628TIP3   OH244298   0.498   6.358   0.857  0.6607 -0.6743  0.5799
 7628TIP3    H144299   0.440   6.322   0.790  2.0598 -3.0645  0.5484
 7628TIP3    H244300   0.445   6.425   0.900 -0.8561 -0.2284 -1.7735
 7629TIP3   OH244301   4.574   3.523   5.360 -0.4563 -0.1184 -0.5349
 7629TIP3    H144302   4.572   3.452   5.296 -2.3210 -0.4309 -0.1842
 7629TIP3    H244303   4.484   3.532   5.390  0.2535  0.3043  1.7456
 7630TIP3   OH244304   3.876   2.133   5.572  0.7829 -0.2220  0.3015
 7630TIP3    H144305   3.887   2.065   5.505 -1.3104  1.2078 -1.6209
 7630TIP3    H244306   3.876   2.085   5.655 -0.1165 -2.5118 -0.9361
 7631TIP3   OH244307   5.260   0.225   6.203 -0.2691  0.6479  0.3668
 7631TIP3    H144308   5.315   0.287   6.250 -1.1966  1.0540  0.9473
 7631TIP3    H244309   5.263   0.146   6.257 -0.0239  0.5726  0.2437
 7632TIP3   OH244310   1.820   4.599   0.262 -0.4903  0.5058 -0.9009
 7632TIP3    H144311   1.890   4.580   0.200  0.0843  1.5096 -0.5892
 7632TIP3    H244312   1.842   4.549   0.340  0.1478  1.1643 -0.6432
 7633TIP3   OH244313   0.725   5.406   3.295 -0.0603 -0.3769  0.4580
 7633TIP3    H144314   0.713   5.364   3.209 -2.4533  1.0210  0.0314
 7633TIP3    H244315   0.753   5.495   3.274 -0.1950 -0.1658  1.1600
 7634TIP3   OH244316   0.009   2.738  12.785  0.3625 -0.2335 -0.3577
 7634TIP3    H144317   0.020   2.746  12.690 -0.7831 -2.6760 -0.7833
 7634TIP3    H244318  -0.054   2.806  12.808  0.4645  0.2314 -1.3835
 7635TIP3   OH244319   0.634   4.607   3.920 -0.1497  0.5347 -0.0184
 7635TIP3    H144320   0.588   4.689   3.936  0.6736  1.5547 -2.4436
 7635TIP3    H244321   0.603   4.578   3.834 -1.2699 -2.3589  1.2373
 7636TIP3   OH244322   5.777   5.516   2.577  0.3294  0.6596 -0.8190
 7636TIP3    H144323   5.797   5.519   2.670 -1.3221  1.5703 -0.4512
 7636TIP3    H244324   5.853   5.475   2.537  1.3322  0.8142  0.8538
 7637TIP3   OH244325   1.188   5.089  11.640 -0.1502 -0.6850  0.6567
 7637TIP3    H144326   1.128   5.091  11.714 -0.1810 -1.6823  0.6767
 7637TIP3    H244327   1.161   5.012  11.589 -1.3718  1.0329 -1.4588
 7638TIP3   OH244328   3.369   2.036   3.828  0.4284  0.5147 -0.9677
 7638TIP3    H144329   3.435   2.105   3.831  0.5157  0.4349  2.0163
 7638TIP3    H244330   3.286   2.082   3.841  0.5075  0.1191  1.2804
 7639TIP3   OH244331   2.722   3.173   0.233 -0.4435 -0.2390  0.5475
 7639TIP3    H144332   2.641   3.139   0.273 -0.5036  1.5717  2.1003
 7639TIP3    H244333   2.756   3.234   0.298  0.9480  0.7973 -1.0935
 7640TIP3   OH244334   4.925   0.499  16.990  0.3330  0.5785  0.3451
 7640TIP3    H144335   4.941   0.408  17.014  0.9959  0.5177 -0.3182
 7640TIP3    H244336   4.917   0.545  17.074  0.0841 -0.0683  0.6820
 7641TIP3   OH244337   1.582   2.227  13.384 -0.1150 -0.0826  0.0009
 7641TIP3    H144338   1.624   2.228  13.470 -0.5703  0.7235  0.2178
 7641TIP3    H244339   1.519   2.299  13.387 -1.6378 -1.3445 -0.2713
 7642TIP3   OH244340   4.628   2.590  13.148  0.4569  0.7040  0.1681
 7642TIP3    H144341   4.588   2.670  13.181 -1.6298 -0.5406  0.8802
 7642TIP3    H244342   4.711   2.618  13.109 -0.3357  3.2256  0.1314
 7643TIP3   OH244343   1.398   6.162  10.556 -0.1001  0.2438  0.3354
 7643TIP3    H144344   1.426   6.208  10.634 -1.5336 -0.6187  1.4229
 7643TIP3    H244345   1.457   6.087  10.549 -0.4918 -0.1494  1.1110
 7644TIP3   OH244346   2.577   4.668   5.368 -0.0049 -0.2617 -0.4852
 7644TIP3    H144347   2.528   4.620   5.435  0.1034  0.2923 -0.0005
 7644TIP3    H244348   2.665   4.675   5.404  0.4058 -1.1227 -1.2853
 7645TIP3   OH244349   1.997   2.683   0.007 -0.0847 -0.3637 -0.2507
 7645TIP3    H144350   2.020   2.765   0.049  1.8218 -0.3275 -1.2484
 7645TIP3    H244351   1.940   2.709  -0.066 -0.2000 -0.0321 -0.0471
 7646TIP3   OH244352   2.455   0.192  15.147 -0.0117 -0.1002 -0.6479
 7646TIP3    H144353   2.384   0.134  15.121  2.0813 -1.8383 -3.0039
 7646TIP3    H244354   2.482   0.158  15.233 -0.0202 -1.4724 -1.1619
 7647TIP3   OH244355   2.063   3.475  14.394 -0.1634  0.4110 -0.6432
 7647TIP3    H144356   2.022   3.507  14.314  0.4558  1.1214 -0.6920
 7647TIP3    H244357   2.009   3.400  14.421  0.8265 -1.1664 -2.8275
 7648TIP3   OH244358   4.279   2.196  15.245 -0.1624 -0.3677 -0.3990
 7648TIP3    H144359   4.331   2.229  15.172  0.4178  0.8912  0.5499
 7648TIP3    H244360   4.217   2.136  15.204 -1.0388  1.6066 -2.1952
 7649TIP3   OH244361   0.347   4.886  14.838 -0.0415  0.1076 -0.0686
 7649TIP3    H144362   0.302   4.836  14.770 -1.1764  1.3768 -0.2951
 7649TIP3    H244363   0.277   4.930  14.886  0.9061  1.6929 -0.0673
 7650TIP3   OH244364   1.849   3.043  13.132  0.0685 -0.5768 -0.3610
 7650TIP3    H144365   1.842   2.980  13.203 -1.2069 -1.4397 -1.2117
 7650TIP3    H244366   1.942   3.041  13.108  0.5972  0.0421  1.5101
 7651TIP3   OH244367   5.461   3.138  10.466 -0.2922 -0.2374  0.0759
 7651TIP3    H144368   5.376   3.160  10.428  0.7403  0.1771 -2.1748
 7651TIP3    H244369   5.463   3.042  10.466 -1.0031 -0.2675  0.8215
 7652TIP3   OH244370   0.797   2.838   0.401 -0.0776  0.0326 -0.4562
 7652TIP3    H144371   0.824   2.788   0.323  1.9695 -0.2624  0.3882
 7652TIP3    H244372   0.727   2.785   0.439 -0.0816 -0.5838 -1.2725
 7653TIP3   OH244373   6.553   6.688  11.019 -0.1723  0.4386  0.1015
 7653TIP3    H144374   6.638   6.723  10.992  1.4732 -1.7674  2.0504
 7653TIP3    H244375   6.525   6.634  10.945  0.9321 -0.0869  0.0445
 7654TIP3   OH244376   2.340   3.957  14.334  0.1709  0.2201 -0.5714
 7654TIP3    H144377   2.289   4.029  14.372  0.0879 -0.1451  0.0125
 7654TIP3    H244378   2.410   3.940  14.398 -0.0070 -0.4407 -0.5471
 7655TIP3   OH244379   3.821   4.829  10.899  0.6344  0.3498 -0.0461
 7655TIP3    H144380   3.757   4.763  10.873  0.5605  0.8190 -1.1385
 7655TIP3    H244381   3.822   4.892  10.826  1.8356  0.7152  0.2503
 7656TIP3   OH244382   4.180   4.201   1.681  0.0516 -0.0231  0.5515
 7656TIP3    H144383   4.230   4.242   1.610  0.8540 -1.3128  0.3355
 7656TIP3    H244384   4.243   4.142   1.724 -1.3233 -1.9027  0.1117
 7657TIP3   OH244385   4.924   5.334  11.850  0.0742 -0.0073 -0.8094
 7657TIP3    H144386   4.911   5.383  11.768  1.0753  2.9600  0.6836
 7657TIP3    H244387   4.990   5.269  11.828  1.9125  2.0982 -1.9618
 7658TIP3   OH244388   3.282   1.142  12.907 -0.5819  0.0060  0.3079
 7658TIP3    H144389   3.360   1.099  12.874  1.7970  0.5111  4.6008
 7658TIP3    H244390   3.300   1.236  12.898 -1.5079  0.1527 -0.2059
 7659TIP3   OH244391   1.551   6.322  11.559 -0.1835 -0.2915  0.4089
 7659TIP3    H144392   1.639   6.310  11.525 -0.1431  0.1159  0.3595
 7659TIP3    H244393   1.564   6.354  11.649 -0.2491  1.1799 -0.0699
 7660TIP3   OH244394   0.918   4.368   4.488 -0.0363 -0.0616  0.2051
 7660TIP3    H144395   0.868   4.311   4.430  1.3769  0.4583 -1.6533
 7660TIP3    H244396   0.864   4.377   4.567 -1.6437 -1.5212 -0.6692
 7661TIP3   OH244397   5.387   2.846   3.937  0.4096  0.2235  0.1523
 7661TIP3    H144398   5.482   2.843   3.940  0.3852 -1.3517  1.2723
 7661TIP3    H244399   5.366   2.916   3.877  2.2607  2.1032  1.5608
 7662TIP3   OH244400   2.653   3.975   5.885 -0.3061  0.0564  0.0392
 7662TIP3    H144401   2.660   4.011   5.973  1.3591  1.1071 -0.4746
 7662TIP3    H244402   2.620   4.048   5.832  0.4937  0.0228 -0.5242
 7663TIP3   OH244403   1.255   6.144  14.738  0.2138 -1.1279  0.6138
 7663TIP3    H144404   1.210   6.062  14.761 -1.0611 -0.2233  1.5379
 7663TIP3    H244405   1.187   6.197  14.695 -0.0044  0.6731  2.9533
 7664TIP3   OH244406   1.566   4.433  16.442  0.3216  0.1793  0.2082
 7664TIP3    H144407   1.483   4.467  16.408 -0.9348 -1.8918  1.0106
 7664TIP3    H244408   1.565   4.456  16.535 -0.5248 -1.8015  0.7547
 7665TIP3   OH244409   3.751   5.275   0.828 -0.4509 -0.2664 -0.0471
 7665TIP3    H144410   3.816   5.229   0.883  0.7023  0.3919 -0.8190
 7665TIP3    H244411   3.760   5.235   0.742 -0.4537  0.4217 -0.3721
 7666TIP3   OH244412   6.788   2.047  12.286  0.6130  0.2373 -0.4667
 7666TIP3    H144413   6.799   1.966  12.335  2.5172 -0.4854 -1.9224
 7666TIP3    H244414   6.701   2.040  12.247  1.2054 -1.7885 -1.6054
 7667TIP3   OH244415   3.612   2.418  11.108  0.1022 -0.5535 -0.3080
 7667TIP3    H144416   3.563   2.463  11.178  1.3063 -0.6617  0.6317
 7667TIP3    H244417   3.680   2.480  11.083  0.7816 -1.2256 -0.1317
 7668TIP3   OH244418   1.873   1.085  15.639 -0.3981 -0.3086  0.3408
 7668TIP3    H144419   1.956   1.119  15.674 -1.0969  0.6895  1.0931
 7668TIP3    H244420   1.811   1.095  15.711 -1.7801  1.3663 -0.9813
 7669TIP3   OH244421   3.651   0.689   0.697  0.3713 -0.2854  0.1035
 7669TIP3    H144422   3.695   0.669   0.615 -2.0614  0.0161 -1.3764
 7669TIP3    H244423   3.566   0.645   0.690 -0.9420  1.8908  1.2965
 7670TIP3   OH244424   1.079   3.555   3.626  0.6393  0.2835 -0.4590
 7670TIP3    H144425   1.073   3.643   3.589  0.1672 -1.2223 -4.4912
 7670TIP3    H244426   1.005   3.507   3.589  0.1366 -1.5800  2.6001
 7671TIP3   OH244427   3.866   5.129   1.719  0.6332 -0.3777  0.1448
 7671TIP3    H144428   3.887   5.210   1.765 -2.5562  0.6997 -0.0677
 7671TIP3    H244429   3.846   5.157   1.630 -0.5966 -1.3721  0.0923
 7672TIP3   OH244430   0.058   5.501   4.422  0.3026 -0.0898  0.0328
 7672TIP3    H144431   0.021   5.496   4.510  0.5377  0.8824  0.2025
 7672TIP3    H244432   0.130   5.564   4.430 -0.0677  0.4872 -0.9751
 7673TIP3   OH244433   4.615   5.118  14.946  0.2112  0.0475  0.3967
 7673TIP3    H144434   4.617   5.211  14.967 -0.4970  0.3831 -0.8929
 7673TIP3    H244435   4.543   5.084  15.000  0.4596  0.2361  0.8593
 7674TIP3   OH244436   3.520   3.507   0.371  0.1057  0.6700  0.0812
 7674TIP3    H144437   3.504   3.441   0.303  0.5174 -0.2768  0.8905
 7674TIP3    H244438   3.509   3.461   0.453 -0.3488  1.8021  0.6869
 7675TIP3   OH244439   2.564   3.286   5.087 -0.6637 -0.3265 -0.2095
 7675TIP3    H144440   2.506   3.292   5.163  0.5063  0.3772  0.6598
 7675TIP3    H244441   2.623   3.213   5.107  0.2696  0.4762  0.0131
 7676TIP3   OH244442   0.619   2.020  15.944  0.0467  0.3831 -0.2374
 7676TIP3    H144443   0.699   1.983  15.906 -0.9716  0.0566 -2.1407
 7676TIP3    H244444   0.586   1.952  16.003 -0.6047 -0.8810 -2.0033
 7677TIP3   OH244445   2.927   1.002  15.676  0.0679  0.0690 -0.2323
 7677TIP3    H144446   2.843   0.966  15.708 -0.5841  0.3564 -1.5600
 7677TIP3    H244447   2.959   0.935  15.616  0.6936  0.0709  0.0964
 7678TIP3   OH244448   1.419   4.585  12.506 -0.0351 -0.5534  0.2502
 7678TIP3    H144449   1.326   4.586  12.530 -0.3717  0.1077 -0.9807
 7678TIP3    H244450   1.463   4.625  12.582 -0.9843  0.9388  0.0684
 7679TIP3   OH244451   3.441   2.876   4.778 -0.4746  0.0361  0.3045
 7679TIP3    H144452   3.527   2.918   4.785 -0.1486 -0.7145  0.9872
 7679TIP3    H244453   3.393   2.907   4.855 -0.1553 -0.9726  0.9351
 7680TIP3   OH244454   0.337   6.093   5.388 -0.3142 -0.3443 -0.1501
 7680TIP3    H144455   0.252   6.056   5.414 -0.0256 -1.8450 -1.1971
 7680TIP3    H244456   0.320   6.134   5.303 -0.0498 -0.3950 -0.2265
 7681TIP3   OH244457   0.575   2.265   5.445  0.5046  0.3168  0.4676
 7681TIP3    H144458   0.631   2.323   5.495  0.7335  0.9982 -0.5461
 7681TIP3    H244459   0.491   2.265   5.491  1.2411 -0.5467  1.8765
 7682TIP3   OH244460   0.611   2.449   1.125 -0.0791  0.1641  0.2221
 7682TIP3    H144461   0.648   2.388   1.188  2.3390  0.8219 -0.4457
 7682TIP3    H244462   0.644   2.535   1.152 -0.0072  0.6189 -1.1866
 7683TIP3   OH244463   4.870   3.651  13.182  0.0066  0.6291  0.2371
 7683TIP3    H144464   4.827   3.677  13.264  1.7949  0.6691  1.2083
 7683TIP3    H244465   4.963   3.664  13.198  0.6140 -1.6256 -0.9736
 7684TIP3   OH244466   3.677   2.905  16.427 -0.1307 -0.3837 -0.0161
 7684TIP3    H144467   3.630   2.890  16.345 -1.0438  0.4617  0.3411
 7684TIP3    H244468   3.769   2.907  16.401 -0.4709  1.6328 -1.3340
 7685TIP3   OH244469   1.946   4.148  15.972 -0.4329 -1.5819  0.0071
 7685TIP3    H144470   2.013   4.200  16.016 -2.1063 -1.1867  2.2509
 7685TIP3    H244471   1.948   4.177  15.881 -0.0055  1.0188  0.7825
 7686TIP3   OH244472   0.533   0.236   4.405  0.1443  0.3380  0.2227
 7686TIP3    H144473   0.585   0.261   4.482  2.7585 -1.5451 -0.7984
 7686TIP3    H244474   0.462   0.182   4.441  1.0924 -0.1814  1.3673
 7687TIP3   OH244475   1.004   4.069  15.030 -0.5813  0.4145  0.1420
 7687TIP3    H144476   1.034   4.126  14.960  1.3254 -0.0410  0.5391
 7687TIP3    H244477   1.082   4.055  15.085 -1.8294  0.2003  1.9683
 7688TIP3   OH244478   1.123   0.821   1.312  0.1734  0.2311  0.6030
 7688TIP3    H144479   1.102   0.913   1.325 -1.1115  0.3063 -1.5737
 7688TIP3    H244480   1.059   0.790   1.248  0.3825 -2.2612  1.4686
 7689TIP3   OH244481   4.572   6.654  14.947  0.0839  0.1320  0.3314
 7689TIP3    H144482   4.508   6.701  14.893  0.9960  0.2866 -0.6500
 7689TIP3    H244483   4.599   6.718  15.013  1.0954  0.9200 -0.8138
 7690TIP3   OH244484   6.128   2.268   0.765 -0.1380 -0.6129 -0.5081
 7690TIP3    H144485   6.047   2.217   0.773  1.7328 -3.8180 -0.3836
 7690TIP3    H244486   6.188   2.230   0.828  1.1499  2.6068  0.4375
 7691TIP3   OH244487   1.734   0.835  13.760  0.1573  0.5354 -0.0785
 7691TIP3    H144488   1.640   0.852  13.748 -0.1135  0.9307  2.1439
 7691TIP3    H244489   1.739   0.741  13.775 -0.0647  0.6866  1.0205
 7692TIP3   OH244490   3.783   1.057   3.938  0.1938 -0.3870  0.5425
 7692TIP3    H144491   3.835   1.007   4.001  0.0538 -1.3097 -0.0523
 7692TIP3    H244492   3.692   1.044   3.966  0.1934  0.0745  0.7641
 7693TIP3   OH244493   1.429   2.212  10.340 -0.2643 -0.4386 -0.0650
 7693TIP3    H144494   1.521   2.187  10.341 -0.4977 -1.4183 -1.2066
 7693TIP3    H244495   1.385   2.142  10.389 -0.3908  0.1564  0.6976
 7694TIP3   OH244496   5.325   4.697  13.202  0.0925  0.1481 -0.4002
 7694TIP3    H144497   5.402   4.644  13.221  0.0652 -0.0974 -0.9509
 7694TIP3    H244498   5.344   4.783  13.239  0.5681  0.0485 -0.4161
 7695TIP3   OH244499   2.032   1.363   2.937  1.1474  0.2632 -0.3371
 7695TIP3    H144500   2.002   1.298   3.000 -1.5890  1.2290 -0.5107
 7695TIP3    H244501   2.046   1.315   2.856 -0.1567 -0.2659 -0.2743
 7696TIP3   OH244502   4.323   4.031   4.618 -0.7423 -0.2542  0.2474
 7696TIP3    H144503   4.413   4.063   4.616 -0.9120  0.2980  1.1165
 7696TIP3    H244504   4.331   3.936   4.610  0.0401 -0.3838  2.0754
 7697TIP3   OH244505   6.518   0.228  15.100 -0.0745  0.3571  0.2133
 7697TIP3    H144506   6.429   0.262  15.103  0.5112  1.9784  0.1750
 7697TIP3    H244507   6.574   0.305  15.111  1.3473 -0.3713 -1.4003
 7698TIP3   OH244508   0.112   5.312  12.650 -0.3011  0.1982  0.0684
 7698TIP3    H144509   0.057   5.373  12.602  0.3759  0.9435  0.2194
 7698TIP3    H244510   0.055   5.277  12.719 -0.6795  0.7045  0.0183
 7699TIP3   OH244511   3.058   6.032  13.069 -0.2491  0.3126 -0.3433
 7699TIP3    H144512   3.078   6.125  13.073 -2.0137  0.7229 -0.4626
 7699TIP3    H244513   3.023   6.018  12.981  1.2605 -0.7700 -0.8264
 7700TIP3   OH244514   2.673   1.793   1.460 -0.2878 -0.4225 -0.0638
 7700TIP3    H144515   2.760   1.806   1.499  0.7054 -1.4623 -1.8101
 7700TIP3    H244516   2.613   1.793   1.535  1.3031 -0.5676  1.2737
 7701TIP3   OH244517   1.558   6.802  16.355  0.8856 -0.3589  0.4736
 7701TIP3    H144518   1.574   6.768  16.443  1.0447  0.2423  0.6816
 7701TIP3    H244519   1.599   6.738  16.297  1.9704 -0.0672  0.8980
 7702TIP3   OH244520   6.749   3.923   3.842 -0.5158 -0.7225  0.1163
 7702TIP3    H144521   6.830   3.962   3.809  0.0030 -1.3549  0.6216
 7702TIP3    H244522   6.768   3.901   3.933 -1.5634 -0.0355  0.5216
 7703TIP3   OH244523   3.335   0.448  10.837 -0.2799  0.0334 -0.1546
 7703TIP3    H144524   3.427   0.434  10.813 -0.7295 -0.1370 -1.8883
 7703TIP3    H244525   3.286   0.433  10.756 -1.7884  0.7257  0.5858
 7704TIP3   OH244526   3.224   1.046   5.195  0.1608 -0.1577  0.0130
 7704TIP3    H144527   3.241   0.962   5.152 -1.1181 -0.7076  0.5280
 7704TIP3    H244528   3.196   1.104   5.124  0.7110 -0.2667 -0.2954
 7705TIP3   OH244529   6.630   3.697  11.009 -0.0183 -0.6356  0.0699
 7705TIP3    H144530   6.682   3.621  11.035 -0.8870 -0.3325  3.0782
 7705TIP3    H244531   6.689   3.772  11.021  0.4806 -0.6734 -1.8104
 7706TIP3   OH244532   3.818   0.880   2.513 -0.3800  0.6035  0.4639
 7706TIP3    H144533   3.866   0.875   2.431 -0.0860 -1.3982  0.7030
 7706TIP3    H244534   3.880   0.851   2.579 -1.4792 -0.7264  0.9684
 7707TIP3   OH244535   1.563   2.114  11.724 -0.2833 -0.1612 -0.2884
 7707TIP3    H144536   1.598   2.032  11.690  0.3783 -0.5209  1.1772
 7707TIP3    H244537   1.586   2.113  11.817 -1.9292  0.8099  0.1611
 7708TIP3   OH244538   1.945   6.753  11.623 -0.0339  0.3782  0.2311
 7708TIP3    H144539   1.952   6.771  11.529  0.7039 -1.6077 -0.1550
 7708TIP3    H244540   2.026   6.705  11.644 -0.5701  0.0561  1.7015
 7709TIP3   OH244541   2.579   0.381   6.657  0.4649 -0.3790 -0.0361
 7709TIP3    H144542   2.645   0.327   6.614 -0.5470 -0.6607 -1.2947
 7709TIP3    H244543   2.545   0.437   6.587 -2.8838 -2.4518 -0.3016
 7710TIP3   OH244544   4.701   6.450  11.462 -0.0916  0.6888 -0.4496
 7710TIP3    H144545   4.723   6.490  11.378  0.4007  1.2639 -0.0572
 7710TIP3    H244546   4.618   6.406  11.446  0.1321  0.5499 -1.3136
 7711TIP3   OH244547   0.898   2.833  16.942 -0.0596  0.0069 -0.0885
 7711TIP3    H144548   0.993   2.822  16.949  0.0781  0.6380 -0.8197
 7711TIP3    H244549   0.882   2.923  16.970 -0.6347 -0.5551  1.4958
 7712TIP3   OH244550   5.319   0.804   1.867 -0.0927  0.2875  0.3943
 7712TIP3    H144551   5.320   0.884   1.814  0.2941  2.7977  3.8767
 7712TIP3    H244552   5.411   0.779   1.875 -0.0622  0.5183  0.7492
 7713TIP3   OH244553   3.153   4.300  16.403 -0.0149  0.3091 -0.2136
 7713TIP3    H144554   3.169   4.299  16.498 -1.4868  1.5039  0.0806
 7713TIP3    H244555   3.090   4.229  16.389  0.9752 -0.5464 -0.4867
 7714TIP3   OH244556   3.964   3.758   0.011 -0.3584 -0.0789 -0.6502
 7714TIP3    H144557   4.056   3.781   0.024 -0.5178  0.5144 -0.5810
 7714TIP3    H244558   3.963   3.712  -0.073 -0.0853  0.4129 -0.9228
 7715TIP3   OH244559   0.889   0.930  12.584  0.4082 -0.6893 -0.8497
 7715TIP3    H144560   0.833   0.989  12.535  0.9678  0.7846  0.1757
 7715TIP3    H244561   0.954   0.899  12.521  0.7065  0.6242 -1.2156
 7716TIP3   OH244562   5.379   1.674  13.681  0.1977 -0.1397  0.0907
 7716TIP3    H144563   5.456   1.635  13.640 -0.1645 -0.6800 -0.0904
 7716TIP3    H244564   5.378   1.765  13.650  1.8536  0.4625  1.6511
 7717TIP3   OH244565   0.481   5.671  11.924  0.5354 -0.4438 -0.5617
 7717TIP3    H144566   0.535   5.745  11.897  1.1927 -1.0034 -0.7810
 7717TIP3    H244567   0.486   5.671  12.019 -0.7425  0.7430 -0.4617
 7718TIP3   OH244568   2.904   6.113   5.238 -0.2572  0.3842 -0.4283
 7718TIP3    H144569   2.929   6.027   5.203  0.7228  0.5940 -0.2706
 7718TIP3    H244570   2.911   6.172   5.163 -0.0600  0.4844 -0.3321
 7719TIP3   OH244571   0.633   3.032  14.739 -0.4288 -0.2552  0.0025
 7719TIP3    H144572   0.590   3.000  14.819 -0.2729 -0.9125 -0.1645
 7719TIP3    H244573   0.705   3.087  14.770  1.0273 -2.2662  0.4043
 7720TIP3   OH244574   5.777   4.471   4.950  0.4271 -0.5890  0.0156
 7720TIP3    H144575   5.731   4.508   4.875 -0.6120 -0.5316  0.6563
 7720TIP3    H244576   5.708   4.458   5.016  1.4641  0.3662  1.3521
 7721TIP3   OH244577   0.770   0.947   5.495  0.0121 -0.1258  0.0691
 7721TIP3    H144578   0.723   0.999   5.430  1.4816  3.3844  1.5557
 7721TIP3    H244579   0.710   0.939   5.568  0.8167  2.5285  1.1324
 7722TIP3   OH244580   0.778   1.721  14.588 -1.1922  0.1177  0.0795
 7722TIP3    H144581   0.813   1.633  14.601 -2.6020 -0.9001 -2.3385
 7722TIP3    H244582   0.741   1.745  14.673 -0.0733 -1.2712  1.0057
 7723TIP3   OH244583   6.747   3.557  12.891 -0.3382 -0.2374 -0.0539
 7723TIP3    H144584   6.731   3.527  12.802  0.0768 -2.0416  0.4566
 7723TIP3    H244585   6.793   3.641  12.880 -2.8635  1.0662 -1.5040
 7724TIP3   OH244586   3.242   5.220  12.206 -0.4533 -0.2718  0.0385
 7724TIP3    H144587   3.187   5.142  12.210 -1.1577  0.1025 -1.5569
 7724TIP3    H244588   3.314   5.195  12.148  0.1149 -0.1972  0.7062
 7725TIP3   OH244589   2.982   5.418   4.506  0.4389 -0.5287 -0.3163
 7725TIP3    H144590   2.947   5.488   4.450 -1.0778 -0.9238  0.0868
 7725TIP3    H244591   3.063   5.392   4.464 -0.6264 -0.7940 -2.3498
 7726TIP3   OH244592   1.372   1.095  16.801 -0.2634 -0.5237  0.2490
 7726TIP3    H144593   1.378   1.088  16.897 -0.3425 -2.1792  0.1659
 7726TIP3    H244594   1.289   1.140  16.785  0.0129  0.2694  0.9550
 7727TIP3   OH244595   0.293   2.023  14.111  0.3499 -0.0306 -0.0596
 7727TIP3    H144596   0.350   2.092  14.145  0.8096 -0.0060 -0.8593
 7727TIP3    H244597   0.226   2.070  14.061 -1.1011  0.0333  1.8239
 7728TIP3   OH244598   4.133   6.573   5.724 -0.2201  0.3314  0.5133
 7728TIP3    H144599   4.214   6.533   5.755  0.3836 -0.3794 -1.8298
 7728TIP3    H244600   4.065   6.507   5.740  0.3839 -0.7544 -1.2151
 7729TIP3   OH244601   5.468   5.419   2.182 -0.7751 -0.3898  0.6435
 7729TIP3    H144602   5.521   5.492   2.213 -0.0201 -0.1677 -1.0702
 7729TIP3    H244603   5.529   5.362   2.136 -1.4208 -1.9406  1.6001
 7730TIP3   OH244604   5.510   4.982   2.950 -0.0131  0.3623  0.0659
 7730TIP3    H144605   5.476   4.939   2.872  0.1961 -0.2594  0.3145
 7730TIP3    H244606   5.600   4.950   2.958  0.1662  0.8908  0.2197
 7731TIP3   OH244607   5.942   3.303   4.130  0.0659  0.7419 -0.1796
 7731TIP3    H144608   5.864   3.357   4.118 -1.8646 -1.7982  0.0986
 7731TIP3    H244609   5.988   3.309   4.046 -1.2368  1.1119 -0.9000
 7732TIP3   OH244610   1.815   4.543  16.309 -0.1736  0.2821  0.4312
 7732TIP3    H144611   1.749   4.477  16.333 -1.1402 -0.1412 -2.9109
 7732TIP3    H244612   1.772   4.626  16.325  1.0312  0.3288  4.6215
 7733TIP3   OH244613   1.487   5.926  13.009 -0.1816  0.2337 -0.5849
 7733TIP3    H144614   1.514   6.015  13.032  1.2092 -0.0107 -1.1674
 7733TIP3    H244615   1.414   5.907  13.068 -1.0881  2.0644 -1.0338
 7734TIP3   OH244616   1.522   2.361   3.103 -0.2803  0.5876  0.1459
 7734TIP3    H144617   1.513   2.270   3.075  1.8707  0.1749  0.6002
 7734TIP3    H244618   1.506   2.412   3.024  1.2298 -0.3393 -0.7957
 7735TIP3   OH244619   4.969   3.964   3.767  0.2663 -0.6499  0.2898
 7735TIP3    H144620   5.049   3.963   3.821  0.2411  1.1556  0.4340
 7735TIP3    H244621   4.946   4.057   3.762 -0.6643 -0.9509 -1.4973
 7736TIP3   OH244622   6.064   3.747  14.403  0.3143 -0.5562 -0.2839
 7736TIP3    H144623   6.091   3.664  14.443  0.0782 -1.2109 -1.4236
 7736TIP3    H244624   6.121   3.756  14.326 -0.8968 -0.6258 -1.2184
 7737TIP3   OH244625   2.189   3.192   6.330  0.6743 -0.1835  0.0587
 7737TIP3    H144626   2.211   3.267   6.386  2.3028 -1.5841  1.3841
 7737TIP3    H244627   2.274   3.158   6.301 -0.0042 -1.8034 -0.1364
 7738TIP3   OH244628   2.108   2.495  13.297 -0.0739 -0.2114  0.4292
 7738TIP3    H144629   2.013   2.500  13.280  0.2730  1.8830 -1.4797
 7738TIP3    H244630   2.134   2.409  13.265 -0.8399  0.5123 -2.4409
 7739TIP3   OH244631   3.336   1.192   3.443 -0.1208  0.2370  0.2492
 7739TIP3    H144632   3.244   1.203   3.467 -0.2136 -0.5326  0.2738
 7739TIP3    H244633   3.372   1.136   3.513  0.5679  1.1922  0.6803
 7740TIP3   OH244634   3.922   5.682   6.048 -0.1115 -0.4418  0.8899
 7740TIP3    H144635   3.830   5.688   6.023  0.1078  0.8749  0.3194
 7740TIP3    H244636   3.933   5.591   6.076 -1.3862 -0.8359  0.2162
 7741TIP3   OH244637   4.535   3.515  12.255 -0.1673  0.1967  0.0478
 7741TIP3    H144638   4.608   3.470  12.297 -0.5704 -0.5248 -0.0078
 7741TIP3    H244639   4.486   3.445  12.212 -0.4309  0.7772 -0.6048
 7742TIP3   OH244640   3.796   5.978  11.763  0.2848  0.3165 -0.0396
 7742TIP3    H144641   3.787   5.941  11.675  0.6872 -1.6678  0.6914
 7742TIP3    H244642   3.767   6.069  11.754 -1.3502 -0.3091 -1.8517
 7743TIP3   OH244643   4.997   6.730  14.304 -0.1775  0.7538 -0.1248
 7743TIP3    H144644   5.035   6.806  14.347 -1.2836  0.4665  1.4705
 7743TIP3    H244645   4.903   6.736  14.323 -0.2215 -1.3058  0.5647
 7744TIP3   OH244646   2.951   1.717  14.002 -1.1419 -0.1698 -0.3425
 7744TIP3    H144647   3.001   1.637  14.021 -0.2385 -0.2175 -2.6078
 7744TIP3    H244648   2.882   1.719  14.068 -0.9720 -2.6433 -0.0156
 7745TIP3   OH244649   2.806   6.803   0.350 -0.2165 -0.7603 -0.0756
 7745TIP3    H144650   2.763   6.726   0.314  0.7631 -0.1751 -2.7296
 7745TIP3    H244651   2.804   6.867   0.279 -0.2464  1.3875  1.7499
 7746TIP3   OH244652   1.884   4.020   2.093  0.0255 -0.0319  0.4212
 7746TIP3    H144653   1.920   4.081   2.029 -0.6996  0.0610  0.0906
 7746TIP3    H244654   1.794   4.007   2.065  0.2615 -1.5264  0.2765
 7747TIP3   OH244655   0.762   1.132  15.399  0.2880  1.2199  0.3579
 7747TIP3    H144656   0.718   1.077  15.335  0.6654  1.7965 -0.4127
 7747TIP3    H244657   0.702   1.133  15.474 -0.0595  0.3650  0.1089
 7748TIP3   OH244658   6.603   4.658  12.013  0.1773 -0.0838 -0.3668
 7748TIP3    H144659   6.553   4.597  11.960  1.1488  0.1393 -1.5992
 7748TIP3    H244660   6.577   4.639  12.103 -3.3927  1.2137 -0.9963
 7749TIP3   OH244661   4.621   4.328   1.190  0.1179  0.1911  0.0356
 7749TIP3    H144662   4.556   4.323   1.260  1.2337  1.6877  1.2391
 7749TIP3    H244663   4.682   4.395   1.219  2.5658 -1.5605 -0.7759
 7750TIP3   OH244664   4.716   4.598   4.079 -0.1344  0.3984  0.0362
 7750TIP3    H144665   4.800   4.605   4.123  0.8115  0.7319 -1.7199
 7750TIP3    H244666   4.669   4.530   4.127  0.6481  1.0250  1.7655
 7751TIP3   OH244667   3.196   0.254  13.817 -0.5334 -0.6232  0.2338
 7751TIP3    H144668   3.121   0.300  13.779 -0.1487 -1.2626 -1.3765
 7751TIP3    H244669   3.157   0.181  13.865 -0.9946 -0.1559  0.5890
 7752TIP3   OH244670   4.679   6.458  12.738 -0.0259 -0.0178 -0.2127
 7752TIP3    H144671   4.757   6.459  12.683 -0.5582 -1.3535 -1.0539
 7752TIP3    H244672   4.712   6.449  12.827  0.8471  1.9428 -0.2867
 7753TIP3   OH244673   1.358   0.853   2.447 -0.1775  0.1778 -0.5341
 7753TIP3    H144674   1.310   0.832   2.527  0.1522 -0.9466 -0.6104
 7753TIP3    H244675   1.292   0.850   2.377 -0.6402  2.0089 -0.2327
 7754TIP3   OH244676   0.098   3.018   5.502 -0.1877 -0.4031  0.3193
 7754TIP3    H144677   0.188   3.022   5.470 -0.8876 -0.4129 -1.7670
 7754TIP3    H244678   0.066   2.933   5.472 -1.7746  0.7867 -1.5874
 7755TIP3   OH244679   2.981   4.609  10.977  0.1899  0.5024  0.5166
 7755TIP3    H144680   3.003   4.523  11.014  1.2340  1.8239  3.2415
 7755TIP3    H244681   2.885   4.614  10.984  0.1911 -0.1109  1.1292
 7756TIP3   OH244682   3.689   3.189  11.019 -0.1391 -0.1211 -0.0114
 7756TIP3    H144683   3.629   3.225  10.953 -0.1488  0.9539  0.5642
 7756TIP3    H244684   3.774   3.227  10.997  0.5682 -2.3213 -1.3549
 7757TIP3   OH244685   4.039   6.132   4.322 -0.6815 -0.2941 -0.8338
 7757TIP3    H144686   4.064   6.202   4.381 -1.1090 -1.2961  0.6043
 7757TIP3    H244687   4.119   6.110   4.274  0.3117 -0.9945  1.0423
 7758TIP3   OH244688   6.501   1.905   1.156 -0.2220  0.0297  0.0842
 7758TIP3    H144689   6.569   1.868   1.100  0.7555 -1.1423  1.9498
 7758TIP3    H244690   6.419   1.875   1.117  0.3205  0.8277 -1.7699
 7759TIP3   OH244691   2.230   6.537  14.680 -0.3122  0.2640 -0.9171
 7759TIP3    H144692   2.270   6.451  14.688 -2.0914 -0.7934 -2.6462
 7759TIP3    H244693   2.215   6.565  14.770  2.8402  0.0796 -0.2349
 7760TIP3   OH244694   5.035   2.449  14.323  0.2781 -0.1007  0.2060
 7760TIP3    H144695   5.092   2.375  14.303 -0.8401 -0.7147 -0.8627
 7760TIP3    H244696   4.999   2.476  14.238 -0.0553  1.0806  0.6931
 7761TIP3   OH244697   5.244   5.161  13.781 -0.1893  0.1561  0.2848
 7761TIP3    H144698   5.216   5.252  13.777 -0.8008 -0.0597 -0.5918
 7761TIP3    H244699   5.337   5.165  13.803 -0.5013  0.9345  1.5546
 7762TIP3   OH244700   6.267   2.678  16.446 -0.7653  0.1430 -0.1776
 7762TIP3    H144701   6.181   2.718  16.451 -1.0309 -0.4598  0.2118
 7762TIP3    H244702   6.277   2.653  16.354 -2.0853 -2.0756  0.2139
 7763TIP3   OH244703   4.236   5.313   3.081 -0.2715  0.4464  0.4707
 7763TIP3    H144704   4.179   5.255   3.030 -1.4727  1.3322  0.7769
 7763TIP3    H244705   4.199   5.400   3.069  2.7521  1.6180 -1.7961
 7764TIP3   OH244706   3.548   2.252  12.540  0.4817  0.7754  0.0788
 7764TIP3    H144707   3.605   2.280  12.611 -0.3168  2.7591 -0.0015
 7764TIP3    H244708   3.484   2.194  12.582  0.5680  1.2022  0.8159
 7765TIP3   OH244709   5.106   4.636  12.921 -0.3928  0.0125  0.1347
 7765TIP3    H144710   5.041   4.702  12.944  0.5584  0.5592  1.3711
 7765TIP3    H244711   5.163   4.631  12.997  1.3636  0.0086 -1.1136
 7766TIP3   OH244712   4.756   2.089   5.168  0.1556 -0.1058 -0.0872
 7766TIP3    H144713   4.831   2.087   5.228 -0.5928  0.7211  0.9040
 7766TIP3    H244714   4.749   2.180   5.142 -0.0965 -0.3029 -0.7237
 7767TIP3   OH244715   0.039   5.670   4.190  0.2809  0.1824 -0.3840
 7767TIP3    H144716   0.052   5.607   4.261  1.5425 -0.8449 -1.4719
 7767TIP3    H244717  -0.053   5.696   4.198 -0.1594 -1.4380  0.4071
 7768TIP3   OH244718   4.961   5.190   2.657 -0.1963  0.2888  0.0120
 7768TIP3    H144719   5.023   5.118   2.656 -0.3098  0.1740 -1.4153
 7768TIP3    H244720   5.007   5.261   2.611 -1.1975  0.1041 -1.3315
 7769TIP3   OH244721   2.468   3.254  13.107  0.0050 -0.5633 -0.6128
 7769TIP3    H144722   2.473   3.213  13.020 -2.3683 -1.8966 -0.2239
 7769TIP3    H244723   2.448   3.181  13.166  4.1486 -0.1626  1.6058
 7770TIP3   OH244724   4.481   5.719   1.978  0.2602  0.5244 -0.3038
 7770TIP3    H144725   4.402   5.738   2.028 -0.2170 -4.2636  1.2581
 7770TIP3    H244726   4.553   5.730   2.040  0.0298 -1.7751  0.4495
 7771TIP3   OH244727   3.985   1.274   5.649  0.0603 -0.7210 -0.0856
 7771TIP3    H144728   3.997   1.182   5.674  0.2484 -0.9872 -1.1179
 7771TIP3    H244729   3.901   1.276   5.603  0.5050 -0.5647 -0.9101
 7772TIP3   OH244730   4.281   3.280   0.063  0.6702  1.1090  0.3114
 7772TIP3    H144731   4.249   3.206   0.115 -1.9323  0.4296 -2.0926
 7772TIP3    H244732   4.270   3.356   0.121  0.6440  0.0360  1.7785
 7773TIP3   OH244733   1.977   0.235   0.780 -0.4649 -0.1685  0.1408
 7773TIP3    H144734   1.887   0.230   0.813 -0.2825  1.8799  1.0996
 7773TIP3    H244735   2.000   0.144   0.761 -2.5861 -0.7891  0.2598
 7774TIP3   OH244736   3.194   0.324   5.429  0.8690 -0.5698  0.0860
 7774TIP3    H144737   3.113   0.276   5.414  0.7840  0.2683 -2.6370
 7774TIP3    H244738   3.245   0.268   5.487  0.3597 -3.5020 -2.0949
 7775TIP3   OH244739   0.501   1.439   4.236 -0.6079 -0.0526  0.5898
 7775TIP3    H144740   0.595   1.446   4.220 -0.5054  0.1087  1.2142
 7775TIP3    H244741   0.485   1.500   4.309 -0.7490 -1.9567  2.2236
 7776TIP3   OH244742   0.110   3.321   1.627 -0.2420 -0.0475 -0.9442
 7776TIP3    H144743   0.180   3.283   1.575 -0.3400 -2.1774  0.3748
 7776TIP3    H244744   0.150   3.396   1.671  2.0271 -2.6254  1.7314
 7777TIP3   OH244745   5.399   4.080   1.387 -0.3210  0.3551  0.2288
 7777TIP3    H144746   5.310   4.099   1.356 -0.2205  0.4868  0.0189
 7777TIP3    H244747   5.437   4.167   1.403  0.5872  0.4259 -1.9498
 7778TIP3   OH244748   4.206   2.692   5.069  0.7194  0.1942  0.2603
 7778TIP3    H144749   4.189   2.604   5.103  0.9262 -0.0534 -0.2512
 7778TIP3    H244750   4.268   2.677   4.996  0.9279  0.7842  0.3142
 7779TIP3   OH244751   3.884   1.640   2.313 -0.6676 -0.1938  0.1285
 7779TIP3    H144752   3.909   1.730   2.335 -0.2144 -0.4102  0.5154
 7779TIP3    H244753   3.870   1.598   2.398  0.5446 -0.8818  0.0068
 7780TIP3   OH244754   0.330   5.934  14.259  0.2551 -0.4515 -0.3003
 7780TIP3    H144755   0.287   6.018  14.272 -1.5434 -1.2680 -0.6655
 7780TIP3    H244756   0.414   5.943  14.304  0.4944  1.8107 -1.0844
 7781TIP3   OH244757   2.345   5.598  15.930 -0.2350 -0.1449  0.2130
 7781TIP3    H144758   2.431   5.635  15.948 -1.1426  2.3816 -0.2710
 7781TIP3    H244759   2.332   5.611  15.836 -0.9810 -0.8694  0.1977
 7782TIP3   OH244760   1.716   2.927  15.432  0.9555 -0.2177 -0.0677
 7782TIP3    H144761   1.660   2.849  15.425 -0.6888  0.9468 -0.3239
 7782TIP3    H244762   1.788   2.910  15.370  0.5597 -1.4607 -0.2192
 7783TIP3   OH244763   2.151   3.113  10.378 -0.2271  0.7978 -0.2809
 7783TIP3    H144764   2.176   3.063  10.456 -1.3689 -0.7430 -0.8655
 7783TIP3    H244765   2.231   3.120  10.327 -0.0456 -0.4396 -0.1839
 7784TIP3   OH244766   4.959   2.063   2.392 -0.3862  0.2310 -0.0962
 7784TIP3    H144767   4.960   2.132   2.459 -1.8600  1.0117 -0.8206
 7784TIP3    H244768   5.034   2.084   2.336 -0.5209  0.9543 -0.0151
 7785TIP3   OH244769   6.605   2.040   4.154  0.3641 -0.1864 -0.3442
 7785TIP3    H144770   6.678   2.102   4.149 -0.1862  0.4049 -1.6069
 7785TIP3    H244771   6.577   2.030   4.063 -1.9317  0.5731  0.2240
 7786TIP3   OH244772   5.876   1.074  11.371  0.1772 -0.1226 -0.3942
 7786TIP3    H144773   5.923   1.143  11.324 -1.2676  1.5057  0.4235
 7786TIP3    H244774   5.791   1.113  11.392 -0.1560 -1.6628  1.3949
 7787TIP3   OH244775   6.812   1.779   4.784 -0.0380 -0.0717  0.1859
 7787TIP3    H144776   6.720   1.803   4.793 -0.9095 -2.3205 -1.7463
 7787TIP3    H244777   6.860   1.861   4.798 -2.4487  1.6540 -1.0120
 7788TIP3   OH244778   4.829   1.506   2.187 -0.4575  0.1184  0.3976
 7788TIP3    H144779   4.873   1.505   2.102  0.0307 -0.0268  0.6478
 7788TIP3    H244780   4.850   1.421   2.225  0.6454  0.7804  1.3222
 7789TIP3   OH244781   3.482   4.902   2.961 -0.2904 -0.1515  0.1262
 7789TIP3    H144782   3.551   4.923   3.024 -0.2871  1.1672 -0.3044
 7789TIP3    H244783   3.523   4.837   2.903  0.5572  0.5208 -0.0489
 7790TIP3   OH244784   5.238   1.107  11.458  0.3008  0.1701 -0.2600
 7790TIP3    H144785   5.225   1.067  11.372 -0.6121  0.0497 -0.0789
 7790TIP3    H244786   5.316   1.161  11.448  1.2020 -1.1428 -0.6912
 7791TIP3   OH244787   6.307   5.000   1.802 -0.1910  0.0965 -0.6954
 7791TIP3    H144788   6.307   4.905   1.790 -0.2310 -0.0379  0.3225
 7791TIP3    H244789   6.381   5.018   1.860  0.5926  0.8392 -1.8557
 7792TIP3   OH244790   1.011   6.142  14.995 -0.0404  0.3981 -0.2428
 7792TIP3    H144791   1.105   6.159  14.998  0.9516 -3.8109 -0.8987
 7792TIP3    H244792   0.987   6.123  15.086  0.2973 -0.5608 -0.3364
 7793TIP3   OH244793   1.819   2.603  15.614 -0.2776 -0.1451  0.4886
 7793TIP3    H144794   1.735   2.563  15.589 -1.2898  2.3302 -0.3717
 7793TIP3    H244795   1.826   2.587  15.708 -0.5219 -2.4156  0.1751
 7794TIP3   OH244796   5.225   5.964   2.605  0.1290  0.0588  0.1707
 7794TIP3    H144797   5.245   5.979   2.513  0.1649 -0.3314  0.1107
 7794TIP3    H244798   5.143   6.012   2.620  1.4145  2.2062  0.5937
 7795TIP3   OH244799   1.237   4.428  13.423  0.0859 -0.6364  0.3625
 7795TIP3    H144800   1.301   4.488  13.384 -0.6350 -0.5541 -0.7411
 7795TIP3    H244801   1.287   4.350  13.447  0.8301 -0.0391  0.7772
 7796TIP3   OH244802   5.660   0.244  16.065 -0.4293  0.1628  0.2006
 7796TIP3    H144803   5.744   0.249  16.018 -0.2327  1.4044  0.6385
 7796TIP3    H244804   5.614   0.324  16.040 -3.1892 -2.1713 -3.0597
 7797TIP3   OH244805   1.344   2.002  16.619  0.9156  0.0278 -0.1373
 7797TIP3    H144806   1.303   1.957  16.546 -1.2281  0.5221  0.6761
 7797TIP3    H244807   1.309   2.091  16.616  1.8822  0.4610  0.6629
 7798TIP3   OH244808   4.605   4.038  16.593  0.2983  0.4823  0.4088
 7798TIP3    H144809   4.621   4.021  16.500  0.1740 -0.8848  0.6145
 7798TIP3    H244810   4.678   4.094  16.620  0.2832  0.9668 -0.5287
 7799TIP3   OH244811   6.165   5.790   3.018  0.1399  0.3733  0.3084
 7799TIP3    H144812   6.148   5.829   3.104  1.0769  0.0544  0.6466
 7799TIP3    H244813   6.173   5.865   2.959 -2.4499  0.5496  0.0959
 7800TIP3   OH244814   6.154   3.765   0.590  0.0308 -0.1189  0.5598
 7800TIP3    H144815   6.105   3.823   0.532  2.1388 -0.0944 -1.3549
 7800TIP3    H244816   6.231   3.816   0.615  1.6420 -1.8073 -0.6849
 7801TIP3   OH244817   1.483   0.136   0.301 -0.1419 -0.2202 -0.0646
 7801TIP3    H144818   1.409   0.080   0.278  0.5581 -0.4412 -2.0094
 7801TIP3    H244819   1.478   0.209   0.239  1.3572 -0.3596 -0.3937
 7802TIP3   OH244820   3.679   3.924  14.085 -0.0325  0.4591 -0.2756
 7802TIP3    H144821   3.653   3.855  14.023  0.8054  1.0640 -1.3374
 7802TIP3    H244822   3.652   4.006  14.043  1.9137  0.9858 -0.6008
 7803TIP3   OH244823   4.614   2.389   2.226  0.1971  0.8915 -0.3223
 7803TIP3    H144824   4.589   2.334   2.300  2.1612 -0.2127 -0.4164
 7803TIP3    H244825   4.582   2.341   2.149 -0.1551  1.0740 -0.2912
 7804TIP3   OH244826   3.468   5.161   4.002 -0.3006  0.2192 -0.0301
 7804TIP3    H144827   3.548   5.163   3.949  0.8287  0.5170  1.5897
 7804TIP3    H244828   3.409   5.223   3.959  1.9883  3.5056  1.0993
 7805TIP3   OH244829   5.621   6.725   4.358 -0.1604 -0.0187  0.6666
 7805TIP3    H144830   5.642   6.805   4.310  0.3790 -0.5448  0.0138
 7805TIP3    H244831   5.691   6.717   4.423  1.1297 -1.1712 -0.7792
 7806TIP3   OH244832   0.464   2.132   2.199  0.4166  0.1693 -0.4001
 7806TIP3    H144833   0.474   2.223   2.226 -1.0439  0.4062 -0.5716
 7806TIP3    H244834   0.371   2.114   2.209  0.3325 -0.7050 -2.2118
 7807TIP3   OH244835   1.692   3.999  14.340  0.5424 -0.0390  0.5291
 7807TIP3    H144836   1.735   4.074  14.382 -0.1376  1.4609 -1.3519
 7807TIP3    H244837   1.687   4.022  14.248 -2.0557 -1.2467  0.2771
 7808TIP3   OH244838   4.349   5.379  14.254  0.6291  0.5507  0.2213
 7808TIP3    H144839   4.318   5.453  14.202  0.9729  0.8807  0.4760
 7808TIP3    H244840   4.417   5.339  14.199  1.8161  1.5955  0.8769
 7809TIP3   OH244841   0.944   4.800   5.799  0.0415  0.4686 -0.1755
 7809TIP3    H144842   0.989   4.885   5.794 -1.4270  1.2079 -1.5699
 7809TIP3    H244843   1.003   4.739   5.755  0.6285  0.9657 -0.1009
 7810TIP3   OH244844   1.935   0.702   2.015  0.6082 -0.5290  0.2860
 7810TIP3    H144845   1.906   0.728   2.102  1.0600  2.2879 -0.3003
 7810TIP3    H244846   1.854   0.685   1.967  0.3459 -1.6529  1.0910
 7811TIP3   OH244847   5.587   1.782   1.087 -0.1467 -0.4673 -0.2130
 7811TIP3    H144848   5.560   1.788   1.179 -0.3254 -1.5560 -0.1860
 7811TIP3    H244849   5.627   1.695   1.079  0.9877  0.0877 -0.8832
 7812TIP3   OH244850   5.057   2.832  12.242 -0.1849 -0.2827  0.0153
 7812TIP3    H144851   5.068   2.815  12.149  2.2384 -1.6807  0.4727
 7812TIP3    H244852   5.081   2.924  12.252  1.5897 -0.6366 -0.5270
 7813TIP3   OH244853   1.653   4.734   1.069  0.2714 -0.0159  0.3283
 7813TIP3    H144854   1.621   4.647   1.093  0.2129  0.4510  2.0665
 7813TIP3    H244855   1.628   4.790   1.143  0.4066  1.4618 -0.7027
 7814TIP3   OH244856   1.157   4.764  13.051  0.4463 -0.1412 -0.0963
 7814TIP3    H144857   1.097   4.750  13.125  0.6666 -0.8061 -0.0322
 7814TIP3    H244858   1.102   4.756  12.973  0.5293 -1.3540 -0.0598
 7815TIP3   OH244859   5.425   6.134   3.508  0.2350  0.7268 -0.9270
 7815TIP3    H144860   5.480   6.199   3.551  0.3169  1.4945 -2.1533
 7815TIP3    H244861   5.338   6.145   3.547  0.5311  0.7386 -0.2697
 7816TIP3   OH244862   5.630   2.009   2.077  0.3273  0.2835 -0.2859
 7816TIP3    H144863   5.607   1.924   2.042  0.1611 -0.4433  1.4766
 7816TIP3    H244864   5.548   2.044   2.112 -0.1051  2.2064 -2.9179
 7817TIP3   OH244865   3.960   1.116  14.027  0.2211  0.3493 -0.5731
 7817TIP3    H144866   4.033   1.161  13.983 -1.6410  0.8244 -3.4480
 7817TIP3    H244867   3.908   1.079  13.956 -3.7132  2.1467  1.0514
 7818TIP3   OH244868   5.722   5.517  16.165  0.0166  0.3157  0.1489
 7818TIP3    H144869   5.773   5.441  16.137  1.3168  0.9041  0.8201
 7818TIP3    H244870   5.631   5.486  16.166  0.5956 -1.5001  1.2238
 7819TIP3   OH244871   6.537   5.785  11.700 -0.2350 -0.3989 -0.4376
 7819TIP3    H144872   6.528   5.691  11.717 -1.3871 -0.4987 -1.4123
 7819TIP3    H244873   6.602   5.791  11.630  1.0518 -0.3279  0.7314
 7820TIP3   OH244874   6.604   2.402  12.056 -0.2704 -0.1505 -0.6447
 7820TIP3    H144875   6.699   2.394  12.068 -0.3792  1.0892  1.4723
 7820TIP3    H244876   6.583   2.488  12.092 -2.6476 -1.7219  2.1115
 7821TIP3   OH244877   0.082   3.020  13.664 -0.5553 -0.2199 -0.1797
 7821TIP3    H144878   0.129   3.104  13.659 -2.3887  0.7940 -1.9077
 7821TIP3    H244879   0.133   2.961  13.608 -0.6576  0.5339 -1.1037
 7822TIP3   OH244880   1.563   2.684   5.050  0.5811 -0.2389  0.3813
 7822TIP3    H144881   1.476   2.714   5.026  0.3551 -2.1316 -1.4533
 7822TIP3    H244882   1.621   2.720   4.983  1.0926  0.2188  1.0457
 7823TIP3   OH244883   6.627   4.585  16.913 -0.6925 -0.0517 -0.1780
 7823TIP3    H144884   6.640   4.666  16.865  0.3701  0.7220  1.3189
 7823TIP3    H244885   6.554   4.541  16.868 -1.1226  1.5945 -1.1686
 7824TIP3   OH244886   4.683   1.620   4.451  0.2141  0.1053 -0.2215
 7824TIP3    H144887   4.605   1.650   4.404 -0.5523  0.0582  0.9860
 7824TIP3    H244888   4.737   1.699   4.459  0.5773  0.0177 -1.5600
 7825TIP3   OH244889   3.251   2.932   0.230  0.1496 -0.3954  0.1511
 7825TIP3    H144890   3.240   2.838   0.213 -1.5977 -0.4584  1.4015
 7825TIP3    H244891   3.163   2.968   0.227  0.7104  1.0803  0.4409
 7826TIP3   OH244892   0.871   3.701  16.128 -0.0856  0.0721 -0.6803
 7826TIP3    H144893   0.804   3.694  16.196  0.3680 -1.2209 -0.3338
 7826TIP3    H244894   0.845   3.777  16.077 -0.5646  0.9382  0.7932
 7827TIP3   OH244895   1.555   4.191   5.292  0.1407  0.5561 -0.5202
 7827TIP3    H144896   1.642   4.208   5.328  0.5033  0.2939 -1.2557
 7827TIP3    H244897   1.572   4.153   5.206 -0.7014  0.2755 -0.5672
 7828TIP3   OH244898   4.441   6.276  14.122 -0.5514 -0.0939 -0.6963
 7828TIP3    H144899   4.501   6.201  14.114 -0.5888 -0.3329  0.9946
 7828TIP3    H244900   4.395   6.278  14.038  1.6211 -0.0497 -1.9726
 7829TIP3   OH244901   3.392   3.956  12.622  0.4645 -0.6265  0.2262
 7829TIP3    H144902   3.321   3.956  12.557  1.5778  1.0347 -1.0703
 7829TIP3    H244903   3.431   3.869  12.613 -0.4427 -1.0221 -0.1305
 7830TIP3   OH244904   5.474   6.223   0.166  0.2805  0.4356 -0.8534
 7830TIP3    H144905   5.562   6.242   0.134  1.4822 -0.0240  1.8776
 7830TIP3    H244906   5.465   6.128   0.157  0.5897  0.3161  0.0185
 7831TIP3   OH244907   4.506   1.906  12.432  0.1762  0.4222  0.1377
 7831TIP3    H144908   4.507   1.931  12.524  1.2599 -0.7450  0.4751
 7831TIP3    H244909   4.552   1.977  12.387 -3.2667  2.7317 -0.0789
 7832TIP3   OH244910   6.559   4.007  16.535 -0.0393 -0.1980  0.1042
 7832TIP3    H144911   6.515   3.923  16.549  0.4348 -0.1696  2.1059
 7832TIP3    H244912   6.579   4.009  16.441 -3.4261 -0.6093 -0.7396
 7833TIP3   OH244913   2.341   6.278  12.795  0.1627 -0.7635  0.6016
 7833TIP3    H144914   2.322   6.349  12.856 -0.1858 -2.0708  2.0919
 7833TIP3    H244915   2.255   6.247  12.767  0.3070 -0.6493  0.0364
 7834TIP3   OH244916   2.598   3.082   4.732  0.1324  0.7897  0.4247
 7834TIP3    H144917   2.590   3.108   4.823 -1.2622 -0.2932  0.6445
 7834TIP3    H244918   2.666   3.140   4.696  0.2838  1.6232  1.9799
 7835TIP3   OH244919   5.364   5.437  16.702  1.2709  0.1913  0.2570
 7835TIP3    H144920   5.279   5.476  16.684  1.5579  1.0451  0.7036
 7835TIP3    H244921   5.354   5.392  16.786  1.8334  2.1622  1.4378
 7836TIP3   OH244922   5.649   3.794   6.427 -0.1233  0.3211 -0.0199
 7836TIP3    H144923   5.707   3.718   6.414 -0.6607  0.1690 -1.8150
 7836TIP3    H244924   5.690   3.843   6.499  0.3800 -1.5125  1.0255
 7837TIP3   OH244925   0.012   4.411  13.653 -0.0839  0.5963  0.6846
 7837TIP3    H144926   0.008   4.450  13.566  0.4131  2.5645  1.4847
 7837TIP3    H244927   0.084   4.456  13.696  1.8163 -2.5783  1.1291
 7838TIP3   OH244928   1.398   6.709  13.510  0.4157  0.2839  0.1674
 7838TIP3    H144929   1.361   6.684  13.595  0.5582  0.2761  0.2297
 7838TIP3    H244930   1.457   6.637  13.488 -0.6458 -0.3733 -0.6031
 7839TIP3   OH244931   3.410   1.390  14.487 -0.3908 -0.2012 -0.2254
 7839TIP3    H144932   3.365   1.314  14.524  0.0573 -0.1240  0.4817
 7839TIP3    H244933   3.341   1.442  14.447 -0.5710 -1.6354 -1.9197
 7840TIP3   OH244934   1.129   0.708   5.439 -0.1691  0.2458  0.0598
 7840TIP3    H144935   1.121   0.764   5.516 -3.2193 -1.0314  0.7887
 7840TIP3    H244936   1.064   0.742   5.378 -0.3574 -1.0052 -0.4632
 7841TIP3   OH244937   1.813   0.392   4.267  0.8119 -0.1576 -0.2263
 7841TIP3    H144938   1.766   0.428   4.343  0.4430  0.9051 -0.9249
 7841TIP3    H244939   1.801   0.298   4.274  0.4947 -0.0536  0.8495
 7842TIP3   OH244940   3.122   3.139   3.576  0.4939  0.1758  0.2769
 7842TIP3    H144941   3.140   3.079   3.503  0.8308  0.8680 -0.2137
 7842TIP3    H244942   3.043   3.104   3.617 -1.7323  1.6375 -2.4652
 7843TIP3   OH244943   2.120   6.221  11.937  0.1629  0.0886  0.0742
 7843TIP3    H144944   2.120   6.126  11.947 -0.3749  0.2577  2.2977
 7843TIP3    H244945   2.084   6.254  12.019  0.0747  2.2222 -0.7455
 7844TIP3   OH244946   2.371   3.063  11.169 -0.2257  0.1175 -0.4244
 7844TIP3    H144947   2.394   3.025  11.254 -0.3783 -0.7973 -0.7805
 7844TIP3    H244948   2.419   3.009  11.105 -1.9445 -0.7199 -1.0709
 7845TIP3   OH244949   4.958   6.793  15.513  0.2938 -0.3631  0.0510
 7845TIP3    H144950   5.011   6.716  15.535  0.9273 -0.0685 -0.4378
 7845TIP3    H244951   4.954   6.843  15.595  0.6823 -0.4386  0.1193
 7846TIP3   OH244952   5.509   6.549   0.259  0.4291  0.1996  0.2700
 7846TIP3    H144953   5.505   6.484   0.188 -0.0221  0.4587  0.0522
 7846TIP3    H244954   5.495   6.498   0.339 -1.3822  0.2044 -0.0101
 7847TIP3   OH244955   6.672   2.722   2.829  0.0724  0.8038 -0.2957
 7847TIP3    H144956   6.635   2.743   2.915 -1.4414  1.4531 -1.0585
 7847TIP3    H244957   6.601   2.678   2.782  0.4020  1.6836 -1.6821
 7848TIP3   OH244958   5.087   3.923  15.895 -0.1043 -0.0645  0.1133
 7848TIP3    H144959   4.997   3.904  15.920 -0.2384  0.4712  0.0488
 7848TIP3    H244960   5.093   4.019  15.896  0.5964 -0.1040  0.5949
 7849TIP3   OH244961   1.340   3.097  12.037  0.0014 -0.4053  0.0672
 7849TIP3    H144962   1.396   3.023  12.061  3.1018  1.7261 -0.0210
 7849TIP3    H244963   1.319   3.140  12.121  1.1011  0.4867 -0.0887
 7850TIP3   OH244964   3.072   4.311  13.041  0.2773 -0.3722 -0.3367
 7850TIP3    H144965   3.050   4.331  13.132 -0.2708  0.2544 -0.5947
 7850TIP3    H244966   3.166   4.329  13.035  0.1515  0.4415 -0.0984
 7851TIP3   OH244967   5.868   0.297  15.071  0.0182  0.3407  0.0812
 7851TIP3    H144968   5.881   0.246  15.151  2.4852  0.5622 -0.1003
 7851TIP3    H244969   5.869   0.388  15.101 -0.9607  0.3761  0.0109
 7852TIP3   OH244970   0.324   5.686   0.859  0.0663  0.2350 -0.1748
 7852TIP3    H144971   0.272   5.697   0.939  1.0426  0.1543  0.4921
 7852TIP3    H244972   0.395   5.749   0.868  0.3340  0.0376 -0.8661
 7853TIP3   OH244973   4.435   0.826  11.670  0.8872  0.8428  0.5643
 7853TIP3    H144974   4.528   0.809  11.657  0.4697 -0.7169 -0.7599
 7853TIP3    H244975   4.409   0.878  11.594  0.1777 -0.9737 -0.4888
 7854TIP3   OH244976   3.901   3.642  14.059  0.0409 -0.4508 -0.8445
 7854TIP3    H144977   3.956   3.585  14.113  0.1318 -0.7954 -1.2955
 7854TIP3    H244978   3.811   3.617  14.082  0.0539 -2.1045 -2.3714
 7855TIP3   OH244979   6.573   3.371   5.681  0.1459 -0.0511 -0.2366
 7855TIP3    H144980   6.563   3.422   5.761 -1.3935  2.0235 -1.6395
 7855TIP3    H244981   6.599   3.436   5.615  1.0582 -1.6397 -1.5145
 7856TIP3   OH244982   1.083   1.008  15.710 -0.7268  0.0149  0.1732
 7856TIP3    H144983   1.000   1.053  15.692 -0.4842 -0.3565 -2.2146
 7856TIP3    H244984   1.058   0.927  15.754 -1.4877  0.6028  0.8596
 7857TIP3   OH244985   6.030   5.770  14.198  1.0411  0.0987  0.3224
 7857TIP3    H144986   5.977   5.744  14.273  1.2063  1.0951  0.7995
 7857TIP3    H244987   6.116   5.789  14.235  1.2143  0.2855 -0.1692
 7858TIP3   OH244988   6.097   1.727   1.423 -0.4885  1.0745  0.3102
 7858TIP3    H144989   6.060   1.761   1.342 -0.7905  2.9953  1.1910
 7858TIP3    H244990   6.158   1.795   1.452 -0.1887  0.3179  1.5574
 7859TIP3   OH244991   0.011   3.623  15.198  0.1381 -0.2623  0.3536
 7859TIP3    H144992  -0.056   3.640  15.132 -1.2599 -0.6609  1.6195
 7859TIP3    H244993   0.093   3.619  15.148 -0.2891  3.1549 -0.9471
 7860TIP3   OH244994   0.052   2.184   5.733  0.1821  0.0194 -0.1988
 7860TIP3    H144995   0.006   2.187   5.817  1.1269  0.0800  0.3324
 7860TIP3    H244996   0.087   2.095   5.729 -1.3704 -0.5905 -1.3852
 7861TIP3   OH244997   1.435   3.341   4.562 -0.5756 -0.2282  0.1016
 7861TIP3    H144998   1.434   3.311   4.653 -1.6580 -0.0892  0.1460
 7861TIP3    H244999   1.348   3.319   4.529 -0.3782  0.2252 -0.7345
 7862TIP3   OH245000   4.411   3.915   1.216  0.0368 -0.0138 -0.3392
 7862TIP3    H145001   4.382   4.005   1.231  2.0650  0.9361 -1.6290
 7862TIP3    H245002   4.501   3.924   1.184  0.3725 -2.5285 -0.3181
 7863TIP3   OH245003   3.198   4.174   6.757  0.5700 -0.6692  0.1340
 7863TIP3    H145004   3.145   4.136   6.827 -0.7100 -0.0825 -0.5057
 7863TIP3    H245005   3.173   4.266   6.755  1.8623 -0.3001  0.0382
 7864TIP3   OH245006   4.323   4.961   4.630  0.4652 -0.4381  0.3688
 7864TIP3    H145007   4.339   4.981   4.722  1.3600  1.9169 -0.2355
 7864TIP3    H245008   4.228   4.972   4.618  0.6326  1.5884  0.5565
 7865TIP3   OH245009   3.023   1.808  13.159 -0.6360 -0.1007  0.0184
 7865TIP3    H145010   3.085   1.747  13.118 -1.8173 -0.4130 -1.4012
 7865TIP3    H245011   3.016   1.778  13.249  0.5931 -0.5921 -0.0219
 7866TIP3   OH245012   5.812   2.078  15.464  0.1804  0.1512 -0.1422
 7866TIP3    H145013   5.779   1.989  15.472  2.0524 -0.4830  1.1596
 7866TIP3    H245014   5.844   2.101  15.552  2.3893  0.9659 -1.0639
 7867TIP3   OH245015   5.872   4.320  15.903 -0.0854  0.0519 -0.5261
 7867TIP3    H145016   5.824   4.277  15.831 -0.4355  1.2798 -1.0458
 7867TIP3    H245017   5.814   4.311  15.978  0.0132 -0.7058 -0.5263
 7868TIP3   OH245018   2.470   4.975  13.666 -0.4730  0.5378 -0.5768
 7868TIP3    H145019   2.469   4.958  13.571 -1.2076  1.5459 -0.7629
 7868TIP3    H245020   2.514   4.899  13.703  1.5259  0.9547 -1.8966
 7869TIP3   OH245021   2.860   0.311  12.094  0.6241 -0.5754 -0.9106
 7869TIP3    H145022   2.933   0.275  12.145 -0.5641 -1.9971 -0.1208
 7869TIP3    H245023   2.854   0.402  12.122  2.1556 -0.3928 -1.0809
 7870TIP3   OH245024   5.303   5.499   1.198 -0.1514 -0.3741  0.1098
 7870TIP3    H145025   5.258   5.557   1.137 -0.4116 -0.8523 -0.1552
 7870TIP3    H245026   5.292   5.540   1.284 -0.0658  0.1295 -0.1198
 7871TIP3   OH245027   5.682   4.825  11.683  0.5078  0.3971  0.3228
 7871TIP3    H145028   5.678   4.904  11.736  0.5062  0.9696 -0.5179
 7871TIP3    H245029   5.761   4.835  11.630  0.0292  0.2543 -0.4355
 7872TIP3   OH245030   2.902   5.355   1.015  0.2187  0.3727  0.2039
 7872TIP3    H145031   2.882   5.292   0.945 -1.5644 -0.2892  1.2641
 7872TIP3    H245032   2.997   5.365   1.011  0.1984  0.1786 -2.1506
 7873TIP3   OH245033   3.168   6.798   4.390  0.3456  0.4124 -0.2374
 7873TIP3    H145034   3.257   6.813   4.358  0.9550  3.3554  2.3836
 7873TIP3    H245035   3.121   6.878   4.367 -1.1700 -0.3893 -0.0478
 7874TIP3   OH245036   1.421   3.733  16.617  0.5403 -0.3135  0.3323
 7874TIP3    H145037   1.511   3.754  16.590  0.1606  2.0951  0.6643
 7874TIP3    H245038   1.377   3.707  16.536  0.5703  2.4085 -0.6632
 7875TIP3   OH245039   3.265   2.334  12.059 -0.2776  0.1974 -0.1986
 7875TIP3    H145040   3.331   2.265  12.068  1.2933  1.8896  2.4257
 7875TIP3    H245041   3.194   2.307  12.117  0.1124  0.5337  0.4389
 7876TIP3   OH245042   1.816   6.528  11.285  0.0041 -0.2584  0.2561
 7876TIP3    H145043   1.796   6.458  11.223 -0.4827 -0.0953  0.2213
 7876TIP3    H245044   1.815   6.485  11.370  2.8070 -0.9452  0.0395
 7877TIP3   OH245045   2.062   2.743   2.665 -0.1111  0.4063 -0.5572
 7877TIP3    H145046   2.088   2.679   2.599  0.1729 -0.2187  0.1377
 7877TIP3    H245047   2.017   2.691   2.732  1.0537  0.7611  0.5337
 7878TIP3   OH245048   3.356   4.722   5.421 -0.1951 -0.3425  0.0678
 7878TIP3    H145049   3.389   4.652   5.478 -0.8865 -0.2847  0.5503
 7878TIP3    H245050   3.399   4.707   5.337  0.5325 -0.6683  0.4903
 7879TIP3   OH245051   2.311   6.499   4.063 -0.4308  0.2347 -0.1137
 7879TIP3    H145052   2.240   6.461   4.011 -1.8754  0.6031  1.4734
 7879TIP3    H245053   2.310   6.592   4.042 -0.2997  0.2112 -0.2232
 7880TIP3   OH245054   5.054   1.442  12.581  0.1968  0.0427  0.0349
 7880TIP3    H145055   5.001   1.464  12.504 -0.4482  3.2015  1.2141
 7880TIP3    H245056   5.144   1.462  12.555  0.1396 -0.1872 -0.3329
 7881TIP3   OH245057   1.415   2.317   4.628  0.0060 -0.1587 -0.1846
 7881TIP3    H145058   1.461   2.278   4.554 -0.1586 -0.8248  0.0586
 7881TIP3    H245059   1.467   2.292   4.705  0.1579  0.5010 -0.0619
 7882TIP3   OH245060   5.901   2.867   2.584  0.2367 -0.1162 -0.2316
 7882TIP3    H145061   5.841   2.918   2.530 -3.1037 -1.0599  2.2110
 7882TIP3    H245062   5.897   2.779   2.548  1.0164  0.0264 -0.6823
 7883TIP3   OH245063   5.441   4.088  14.264  0.4746  0.3494 -0.2786
 7883TIP3    H145064   5.417   4.008  14.217  0.9266  0.4912 -0.7612
 7883TIP3    H245065   5.359   4.134  14.278 -0.1200 -1.2064  1.9063
 7884TIP3   OH245066   3.489   4.068   5.688  1.0208 -0.1970  0.0610
 7884TIP3    H145067   3.520   4.074   5.778  1.1513 -3.0207  0.2962
 7884TIP3    H245068   3.536   3.994   5.651  0.0250  0.0925 -1.9491
 7885TIP3   OH245069   1.590   5.106   5.302 -0.3545  0.0249 -0.2991
 7885TIP3    H145070   1.670   5.148   5.269  0.6318  0.0607  1.9619
 7885TIP3    H245071   1.621   5.025   5.343 -1.3102  0.5274  1.5019
 7886TIP3   OH245072   1.657   2.583   4.748  0.1144  0.0112 -0.0542
 7886TIP3    H145073   1.621   2.630   4.674  1.5640 -0.1875 -0.9255
 7886TIP3    H245074   1.725   2.641   4.783  0.9114 -0.7960 -0.2298
 7887TIP3   OH245075   5.651   3.875  14.308  0.0860 -0.2124  0.4732
 7887TIP3    H145076   5.560   3.851  14.295  0.4252 -1.6214  0.5295
 7887TIP3    H245077   5.662   3.956  14.259 -0.7827 -0.9011 -0.9146
 7888TIP3   OH245078   1.265   0.903  14.360 -0.8005 -0.0071  0.1266
 7888TIP3    H145079   1.241   0.872  14.272 -0.7561  0.0044  0.1104
 7888TIP3    H245080   1.296   0.992  14.346 -1.1190  0.1170  0.1977
 7889TIP3   OH245081   6.564   0.082  13.413 -0.1578  0.2485  0.5771
 7889TIP3    H145082   6.564  -0.007  13.379 -0.4025 -0.0500  1.3587
 7889TIP3    H245083   6.602   0.075  13.500  0.5439  1.0262  0.3476
 7890TIP3   OH245084   2.426   2.755   0.944  0.3971 -0.3920  0.3864
 7890TIP3    H145085   2.419   2.659   0.944 -1.7484 -0.3842 -2.7027
 7890TIP3    H245086   2.354   2.784   0.999 -1.2722 -0.6249 -1.5594
 7891TIP3   OH245087   4.931   1.121   1.570  0.5086 -0.0663  0.2194
 7891TIP3    H145088   4.985   1.166   1.635  0.1106 -0.4005  0.7854
 7891TIP3    H245089   4.958   1.030   1.574  1.1664  0.0588 -0.7856
 7892TIP3   OH245090   5.151   3.202  16.529 -0.0904 -0.7632  0.5559
 7892TIP3    H145091   5.083   3.269  16.538 -0.9212 -1.7688  2.5717
 7892TIP3    H245092   5.231   3.250  16.509 -0.8205  0.7683  1.1813
 7893TIP3   OH245093   2.586   5.422  10.892 -0.4038  0.3439 -0.1947
 7893TIP3    H145094   2.633   5.489  10.844  1.4228  0.5278  1.7154
 7893TIP3    H245095   2.581   5.347  10.832  1.9095  0.5001 -0.6550
 7894TIP3   OH245096   2.868   2.470  11.088  0.1983  0.3751 -0.6344
 7894TIP3    H145097   2.898   2.398  11.144 -1.3268  2.2498  2.9776
 7894TIP3    H245098   2.808   2.429  11.026  0.8944 -1.7218  0.0024
 7895TIP3   OH245099   6.106   3.558   5.157 -0.3781 -0.2489 -0.8163
 7895TIP3    H145100   6.131   3.583   5.246  1.2442 -0.0396 -1.2934
 7895TIP3    H245101   6.183   3.579   5.104 -1.9125  1.3193 -2.5807
 7896TIP3   OH245102   1.603   6.575  16.204  0.1542  0.4267 -0.3352
 7896TIP3    H145103   1.619   6.497  16.258  2.0882  1.3818  0.5937
 7896TIP3    H245104   1.684   6.586  16.155 -1.2389  0.1121 -2.8550
 7897TIP3   OH245105   3.387   3.815   1.953 -0.5084  0.2584  0.3300
 7897TIP3    H145106   3.406   3.794   1.862  0.2999 -1.7387  0.8957
 7897TIP3    H245107   3.448   3.886   1.975  0.0745 -0.0148 -0.3814
 7898TIP3   OH245108   1.602   0.061  14.731 -0.0047  0.1122 -0.4855
 7898TIP3    H145109   1.678   0.021  14.773  0.2006  1.0244  0.0411
 7898TIP3    H245110   1.548  -0.013  14.703  0.4384 -0.5298  0.3094
 7899TIP3   OH245111   4.106   0.230   5.914 -0.0503  0.1770  0.6529
 7899TIP3    H145112   4.078   0.178   5.838 -0.5737  1.0809  0.2152
 7899TIP3    H245113   4.027   0.239   5.967 -0.5692  2.3410 -0.3565
 7900TIP3   OH245114   1.033   6.304  14.238 -0.1753 -0.0482 -0.2295
 7900TIP3    H145115   0.955   6.340  14.195 -2.7450 -2.9457  1.5805
 7900TIP3    H245116   1.041   6.354  14.319  0.4857  0.8509 -0.8229
 7901TIP3   OH245117   4.406   5.042  11.063 -0.1694 -0.4338 -0.9914
 7901TIP3    H145118   4.407   4.947  11.068 -0.8698 -0.5472 -2.5354
 7901TIP3    H245119   4.328   5.068  11.113  0.9647 -0.5264  0.8997
 7902TIP3   OH245120   5.856   0.693  14.924  0.0531  0.1929  0.0460
 7902TIP3    H145121   5.874   0.618  14.867 -1.6718 -0.6933  0.6114
 7902TIP3    H245122   5.815   0.655  15.001  0.7888  1.5590  1.1550
 7903TIP3   OH245123   1.373   4.907   2.003  0.1579  0.2707 -0.0219
 7903TIP3    H145124   1.344   4.823   1.970  1.4750 -0.4349  0.5410
 7903TIP3    H245125   1.414   4.950   1.928 -0.6354  0.4838 -0.3427
 7904TIP3   OH245126   2.038   1.858  16.192  0.2527 -0.3991  0.2050
 7904TIP3    H145127   1.982   1.861  16.115  0.3869  1.2097  0.1402
 7904TIP3    H245128   2.127   1.846  16.157  0.7556  3.3653 -0.2332
 7905TIP3   OH245129   2.828   2.058  15.747  0.2490 -0.6326  0.2850
 7905TIP3    H145130   2.819   2.012  15.663  1.0694 -0.2377 -0.0281
 7905TIP3    H245131   2.823   1.988  15.813  1.3237 -1.1679 -0.1721
 7906TIP3   OH245132   0.559   6.598   3.655  0.0603 -0.1941  0.7043
 7906TIP3    H145133   0.546   6.665   3.588  1.0830 -0.3195  0.3545
 7906TIP3    H245134   0.476   6.551   3.658 -1.1921  1.9564  1.9900
 7907TIP3   OH245135   0.116   2.700   0.606 -0.6458 -0.1006 -0.3424
 7907TIP3    H145136   0.068   2.783   0.600 -0.0783  0.3158  0.5741
 7907TIP3    H245137   0.176   2.701   0.532  0.0443  0.7796  0.1983
 7908TIP3   OH245138   6.161   6.764   0.922 -0.2997  1.2026 -0.0229
 7908TIP3    H145139   6.185   6.851   0.953  0.7888  0.3968  1.5109
 7908TIP3    H245140   6.085   6.739   0.974 -0.3753  1.0911 -0.1867
 7909TIP3   OH245141   4.419   6.386  11.439  0.6476 -0.5511 -0.6735
 7909TIP3    H145142   4.435   6.394  11.533  1.4200  0.6143 -0.8810
 7909TIP3    H245143   4.328   6.358  11.433 -0.6992  3.0076  0.4045
 7910TIP3   OH245144   2.594   4.649   3.513  0.0715  0.3290  0.2945
 7910TIP3    H145145   2.559   4.705   3.443 -0.3599  0.8479  0.9120
 7910TIP3    H245146   2.556   4.685   3.593  0.4187 -0.3722  0.7792
 7911TIP3   OH245147   4.876   2.264   2.584  0.2415 -0.0161  0.6892
 7911TIP3    H145148   4.919   2.291   2.665  0.7170  1.8546 -0.1373
 7911TIP3    H245149   4.855   2.346   2.539 -2.8075 -0.8776  0.2903
 7912TIP3   OH245150   2.124   4.915  15.420  0.2847 -0.2786 -0.3615
 7912TIP3    H145151   2.067   4.992  15.414  0.0942 -0.4660 -0.9897
 7912TIP3    H245152   2.166   4.923  15.506 -0.8352 -0.2456  0.1923
 7913TIP3   OH245153   5.196   1.181  12.396  0.0275 -0.6209  0.2075
 7913TIP3    H145154   5.248   1.131  12.332  0.1726 -0.1121 -0.0780
 7913TIP3    H245155   5.189   1.123  12.472 -0.6146 -1.4559 -0.4720
 7914TIP3   OH245156   4.143   3.615  10.414  0.0977 -0.3608 -0.1084
 7914TIP3    H145157   4.201   3.691  10.418 -0.0683 -0.2452  0.1086
 7914TIP3    H245158   4.079   3.637  10.346 -0.4716  0.0646  0.5508
 7915TIP3   OH245159   4.289   5.141   2.338  0.5100 -0.6614 -0.2511
 7915TIP3    H145160   4.196   5.133   2.316  0.2970 -0.1656  0.4558
 7915TIP3    H245161   4.301   5.234   2.358  1.1352 -0.7478 -0.2068
 7916TIP3   OH245162   4.284   2.919  16.539 -0.5533  0.2605  0.2159
 7916TIP3    H145163   4.292   2.970  16.619 -1.2855 -1.2589  1.3111
 7916TIP3    H245164   4.286   2.828  16.568  0.0216 -0.3460 -1.5947
 7917TIP3   OH245165   0.935   5.367  12.460 -0.0599 -0.2967  0.1352
 7917TIP3    H145166   0.876   5.376  12.534  0.0753 -0.9523  0.3312
 7917TIP3    H245167   1.023   5.378  12.498  0.0773 -1.6240  0.2790
 7918TIP3   OH245168   6.715   6.748   0.457  0.6195  0.6175 -0.4042
 7918TIP3    H145169   6.635   6.758   0.404  0.8490  1.6956 -0.5535
 7918TIP3    H245170   6.697   6.671   0.511 -1.0199  1.5228  0.4406
 7919TIP3   OH245171   2.613   6.463  16.143 -0.1662  0.6370  0.1595
 7919TIP3    H145172   2.528   6.427  16.115 -0.6183 -0.1045  2.3380
 7919TIP3    H245173   2.677   6.412  16.093 -0.9605  1.2245 -1.5409
 7920TIP3   OH245174   6.207   0.933  12.325  0.5074 -0.7803  0.4086
 7920TIP3    H145175   6.218   0.864  12.390  0.3122 -0.6659  0.5640
 7920TIP3    H245176   6.255   1.008  12.361 -0.3598 -0.4307  0.8595
 7921TIP3   OH245177   5.467   5.336  12.644  0.3044  0.2151 -0.0642
 7921TIP3    H145178   5.511   5.272  12.588  0.5664 -0.5063  0.9401
 7921TIP3    H245179   5.471   5.298  12.731 -1.1608  0.7421  0.2685
 7922TIP3   OH245180   3.151   6.552  10.316 -0.0272  0.0634 -0.0271
 7922TIP3    H145181   3.143   6.641  10.280 -0.9754  0.3742  0.8992
 7922TIP3    H245182   3.222   6.513  10.266  1.1257  1.6969  0.2374
 7923TIP3   OH245183   5.388   2.021   1.822 -0.1953 -0.2267  0.2795
 7923TIP3    H145184   5.429   2.014   1.736  0.3272  0.0928  0.5023
 7923TIP3    H245185   5.317   2.083   1.809 -0.1555 -0.2234  0.0670
 7924TIP3   OH245186   1.117   2.437   1.964 -0.7817  0.2045  0.3302
 7924TIP3    H145187   1.038   2.456   2.015  0.4621  1.3165  1.9200
 7924TIP3    H245188   1.150   2.355   2.002 -1.3298 -0.4510 -0.5706
 7925TIP3   OH245189   4.349   3.516   1.532  0.6252  0.2381 -0.4266
 7925TIP3    H145190   4.352   3.607   1.503 -0.8213  0.4732  0.0567
 7925TIP3    H245191   4.304   3.469   1.462  1.3316 -0.1095 -0.6571
 7926TIP3   OH245192   0.484   5.599  15.887  0.2100 -0.1385  0.1393
 7926TIP3    H145193   0.550   5.535  15.912 -1.9648 -1.5137  2.8752
 7926TIP3    H245194   0.534   5.678  15.864  2.8823 -2.1948 -1.7361
 7927TIP3   OH245195   4.783   3.409   3.483  0.3884 -0.5669 -0.0148
 7927TIP3    H145196   4.783   3.425   3.388 -0.8647 -1.3614 -0.1795
 7927TIP3    H245197   4.854   3.464   3.517  0.5109  0.1437 -1.3436
 7928TIP3   OH245198   1.516   1.986  14.209 -0.6511 -0.7413  0.0668
 7928TIP3    H145199   1.535   1.964  14.300 -0.1499  0.8778  0.3808
 7928TIP3    H245200   1.586   2.046  14.183 -2.1507  0.8116 -0.5881
 7929TIP3   OH245201   0.610   4.608  12.248 -0.0372 -0.1773  0.0159
 7929TIP3    H145202   0.642   4.546  12.314 -0.4125 -1.7827 -1.2545
 7929TIP3    H245203   0.583   4.685  12.299  1.5136 -0.5751  1.5301
 7930TIP3   OH245204   4.941   4.549   3.378  0.1294 -0.1242  0.2369
 7930TIP3    H145205   5.014   4.572   3.436  2.0958  1.1399 -2.4671
 7930TIP3    H245206   4.968   4.467   3.337 -1.5453 -1.3668  1.5327
 7931TIP3   OH245207   4.347   2.490  15.803  0.2937 -0.1465 -0.2910
 7931TIP3    H145208   4.402   2.566  15.821  0.4854 -0.0340 -1.2486
 7931TIP3    H245209   4.270   2.502  15.858 -0.3371  1.4889 -1.4331
 7932TIP3   OH245210   3.189   4.633  16.620  0.4340 -0.2203  0.2071
 7932TIP3    H145211   3.178   4.720  16.583  2.3839  0.3535  0.8727
 7932TIP3    H245212   3.100   4.600  16.631 -0.3169  1.4493 -0.5897
 7933TIP3   OH245213   0.985   3.685  11.075  0.1645  0.2563 -0.5258
 7933TIP3    H145214   0.890   3.679  11.070  0.2770 -1.7362 -0.8314
 7933TIP3    H245215   1.006   3.767  11.030 -1.4346  1.1954  0.3402
 7934TIP3   OH245216   6.553   3.053   2.410 -0.7728  0.7975  0.7129
 7934TIP3    H145217   6.495   2.987   2.371 -0.3748  1.0495 -0.3519
 7934TIP3    H245218   6.628   3.003   2.441 -0.0885  0.8053 -0.8391
 7935TIP3   OH245219   4.648   0.575   5.482 -0.2097 -0.0838 -0.0990
 7935TIP3    H145220   4.618   0.622   5.559 -0.3865 -0.2442 -0.0694
 7935TIP3    H245221   4.576   0.584   5.419 -0.6535 -1.1424  0.2520
 7936TIP3   OH245222   1.568   4.927  17.037  1.0078 -0.6099 -0.2004
 7936TIP3    H145223   1.525   4.935  17.122  0.7208 -2.2718 -0.1443
 7936TIP3    H245224   1.501   4.886  16.981  0.3813  2.4524 -1.9128
 7937TIP3   OH245225   2.961   2.317  14.476  0.0700  0.4808  0.2281
 7937TIP3    H145226   3.011   2.381  14.426 -0.5173 -0.3183 -1.5013
 7937TIP3    H245227   2.873   2.353  14.480  0.4859  1.4326  2.4330
 7938TIP3   OH245228   5.740   1.313  10.963  0.3143  0.4464  0.0124
 7938TIP3    H145229   5.801   1.240  10.953  1.2585  1.0561  1.0801
 7938TIP3    H245230   5.663   1.274  11.005 -0.2771 -0.4298 -1.8115
 7939TIP3   OH245231   3.502   3.636  11.633  0.1203  0.5161 -0.1301
 7939TIP3    H145232   3.470   3.664  11.547  1.5055  1.9903 -0.2316
 7939TIP3    H245233   3.593   3.611  11.617  0.4762  1.0659  0.9247
 7940TIP3   OH245234   5.318   0.916  12.915  0.3450  0.1818  0.2131
 7940TIP3    H145235   5.365   0.843  12.874 -0.1847 -0.8195  1.3516
 7940TIP3    H245236   5.254   0.943  12.849 -0.5329 -1.4343  0.3510
 7941TIP3   OH245237   2.320   6.010   3.317 -0.2279  0.9449 -0.2357
 7941TIP3    H145238   2.262   6.044   3.385 -0.0201  0.1571  0.3567
 7941TIP3    H245239   2.360   6.088   3.279  0.1431  1.3844  0.9933
 7942TIP3   OH245240   5.522   0.262   4.462  0.2903 -0.5413 -0.8665
 7942TIP3    H145241   5.516   0.227   4.373 -0.0987  0.4784 -1.2640
 7942TIP3    H245242   5.544   0.354   4.449 -1.7544  0.1353 -0.0173
 7943TIP3   OH245243   1.705   6.673   2.008 -0.2631  0.5125  0.2075
 7943TIP3    H145244   1.615   6.659   2.038 -0.2388  0.4687  0.2578
 7943TIP3    H245245   1.752   6.593   2.032 -0.1508  0.6372  0.4027
 7944TIP3   OH245246   5.822   3.844  14.999 -0.3159  0.3227  0.4124
 7944TIP3    H145247   5.891   3.900  15.033 -2.7414  2.8809  1.5415
 7944TIP3    H245248   5.766   3.826  15.075 -1.7115 -0.3379 -0.7142
 7945TIP3   OH245249   2.271   3.711  12.534  0.0938  0.4344  0.5142
 7945TIP3    H145250   2.325   3.774  12.486 -1.3726  0.7116 -0.8900
 7945TIP3    H245251   2.321   3.630  12.532  1.1342  1.0515  0.6233
 7946TIP3   OH245252   5.298   1.752   5.440  0.2237 -0.0022 -0.2253
 7946TIP3    H145253   5.308   1.783   5.350 -0.9913 -0.1474 -0.4227
 7946TIP3    H245254   5.266   1.662   5.431 -2.2690  0.7640  0.3124
 7947TIP3   OH245255   2.364   5.020  16.906  0.8192 -0.0745 -0.5770
 7947TIP3    H145256   2.376   4.997  16.998 -0.8531 -1.2999 -0.6248
 7947TIP3    H245257   2.451   5.050  16.877  2.1277 -2.3998  0.6448
 7948TIP3   OH245258   2.482   5.254  14.487  0.3444 -0.1746  0.0065
 7948TIP3    H145259   2.486   5.342  14.526  0.5049 -0.5437  0.8593
 7948TIP3    H245260   2.571   5.236  14.459  0.3186 -0.0723 -0.1375
 7949TIP3   OH245261   0.858   4.457  16.235  0.5196 -0.5839 -0.1290
 7949TIP3    H145262   0.836   4.378  16.283 -1.3019  0.7177  1.3048
 7949TIP3    H245263   0.904   4.426  16.157  1.0600 -2.9289  1.0627
 7950TIP3   OH245264   2.690   0.723   4.841  0.2612 -0.1432 -0.1349
 7950TIP3    H145265   2.728   0.749   4.924  1.8264 -2.2019 -0.1153
 7950TIP3    H245266   2.766   0.712   4.782 -0.4557 -1.9854 -0.8142
 7951TIP3   OH245267   1.209   5.024   4.697 -0.1095  0.5499  0.1243
 7951TIP3    H145268   1.129   4.995   4.653  0.4822 -1.5280  0.3244
 7951TIP3    H245269   1.236   4.949   4.750  0.5980  2.0805  2.0841
 7952TIP3   OH245270   6.786   4.016   0.649 -0.0108 -0.0687  0.3691
 7952TIP3    H145271   6.801   4.085   0.584 -0.9955 -0.1765  0.0036
 7952TIP3    H245272   6.837   4.043   0.725  0.0982  0.7553  0.0147
 7953TIP3   OH245273   2.044   3.890  12.419  0.5248  0.1362 -0.0565
 7953TIP3    H145274   2.051   3.795  12.406 -2.3212 -0.2550  0.5761
 7953TIP3    H245275   2.036   3.900  12.514 -2.0237  0.6505 -0.2497
 7954TIP3   OH245276   5.084   6.219  13.348  0.2406 -0.1293 -0.0346
 7954TIP3    H145277   5.126   6.136  13.325 -1.7952 -1.6844  1.4149
 7954TIP3    H245278   5.048   6.204  13.436 -0.1290  2.3485  0.3262
 7955TIP3   OH245279   4.257   1.656  15.465  0.5123  0.0156  0.0613
 7955TIP3    H145280   4.198   1.583  15.448 -0.1311  0.5476  0.0082
 7955TIP3    H245281   4.330   1.617  15.512  0.1489 -0.6530  0.0770
 7956TIP3   OH245282   4.670   0.533  12.170 -0.1682  0.0851 -0.5268
 7956TIP3    H145283   4.612   0.599  12.210 -1.5331 -2.1408  1.4125
 7956TIP3    H245284   4.636   0.522  12.082 -0.0617  1.7418 -0.8222
 7957TIP3   OH245285   1.256   2.009   1.004  0.5469  0.0419  0.7506
 7957TIP3    H145286   1.215   1.954   0.936 -0.6563  0.0750  1.4277
 7957TIP3    H245287   1.219   2.096   0.990  0.2967  0.0503  1.4425
 7958TIP3   OH245288   5.484   2.138  14.056  0.0481 -0.4589 -0.1873
 7958TIP3    H145289   5.431   2.068  14.095 -0.6316  0.8870  1.4790
 7958TIP3    H245290   5.571   2.125  14.094 -0.6802  1.0245  2.2425
 7959TIP3   OH245291   1.684   5.880   5.629 -0.3317 -0.1904  0.0245
 7959TIP3    H145292   1.729   5.929   5.697 -0.1209 -0.9230  0.4194
 7959TIP3    H245293   1.731   5.903   5.548 -0.2592  0.2812  0.1994
 7960TIP3   OH245294   1.916   1.962  13.344  0.5006 -0.3953 -0.8101
 7960TIP3    H145295   1.916   1.923  13.257  0.3850 -0.8271 -0.6177
 7960TIP3    H245296   1.835   1.931  13.385  0.8147 -0.6316 -0.3552
 7961TIP3   OH245297   2.019   1.409  13.484 -0.7450  0.6919 -0.2053
 7961TIP3    H145298   2.112   1.387  13.486 -0.1393  2.9818 -0.4619
 7961TIP3    H245299   1.977   1.331  13.447  0.9823 -0.5689  0.3533
 7962TIP3   OH245300   2.502   5.188   4.858 -0.1367  0.0181 -0.4521
 7962TIP3    H145301   2.453   5.139   4.791 -0.6068  1.7604 -1.4354
 7962TIP3    H245302   2.593   5.161   4.845 -0.3395 -0.3615 -1.1794
 7963TIP3   OH245303   3.511   5.870   2.087 -0.5425 -0.3657 -0.0151
 7963TIP3    H145304   3.460   5.848   2.010  1.3348 -1.8355 -0.9302
 7963TIP3    H245305   3.564   5.946   2.060 -1.3516  0.4273  0.5508
 7964TIP3   OH245306   4.073   0.726  13.751 -0.4482 -0.4980 -0.6153
 7964TIP3    H145307   4.114   0.732  13.665  0.1248 -1.2404 -0.4039
 7964TIP3    H245308   4.080   0.634  13.775 -0.6240 -0.3034  0.2212
 7965TIP3   OH245309   5.992   4.558  15.981  0.1873  0.0711 -0.6465
 7965TIP3    H145310   6.078   4.517  15.993  0.6467  0.4826 -2.2623
 7965TIP3    H245311   5.934   4.486  15.959  0.3230 -0.0852 -0.5020
 7966TIP3   OH245312   3.218   4.864  11.479 -0.0298  0.1702  0.2746
 7966TIP3    H145313   3.297   4.815  11.503 -0.1936 -0.6361 -0.7577
 7966TIP3    H245314   3.146   4.815  11.519 -0.1475 -0.1254 -0.2888
 7967TIP3   OH245315   6.445   1.756  14.896  0.3187 -0.7141  0.6494
 7967TIP3    H145316   6.494   1.801  14.827  1.3492 -1.0449  1.1381
 7967TIP3    H245317   6.371   1.717  14.851 -1.4743  2.6244  0.4099
 7968TIP3   OH245318   3.088   1.745   1.362 -0.4423  0.5638  0.3343
 7968TIP3    H145319   3.011   1.742   1.305  0.0064 -1.1111 -0.2687
 7968TIP3    H245320   3.162   1.742   1.302  0.0867  1.2788  0.9382
 7969TIP3   OH245321   4.666   3.996   3.536  0.2645 -0.3772  0.0894
 7969TIP3    H145322   4.677   3.986   3.631  0.9723  2.0105  0.3165
 7969TIP3    H245323   4.730   3.936   3.498  0.2845 -1.0280  1.1121
 7970TIP3   OH245324   4.988   5.201  14.166 -0.0402 -0.6376 -0.0395
 7970TIP3    H145325   4.969   5.242  14.251 -0.9913  2.0025 -1.4230
 7970TIP3    H245326   4.927   5.128  14.161 -0.8316 -0.0833  1.0328
 7971TIP3   OH245327   3.631   0.213   1.894  0.6132  0.5271 -0.0710
 7971TIP3    H145328   3.658   0.162   1.817  0.0287  1.5907 -1.0172
 7971TIP3    H245329   3.583   0.151   1.948  4.8852 -1.5691  1.8264
 7972TIP3   OH245330   0.082   4.106   2.596  0.1922 -0.1837 -0.2996
 7972TIP3    H145331   0.096   4.026   2.647  0.9210 -0.0833 -0.3363
 7972TIP3    H245332   0.011   4.151   2.643  1.1727  0.1408  0.9331
 7973TIP3   OH245333   2.915   5.613   2.677  0.4842  0.2463 -0.1299
 7973TIP3    H145334   2.971   5.672   2.726  1.8799  0.4148 -1.8283
 7973TIP3    H245335   2.838   5.666   2.654  1.2458  1.1094 -0.7490
 7974TIP3   OH245336   2.879   3.761  11.176  0.0030 -0.1334  0.5477
 7974TIP3    H145337   2.811   3.825  11.156 -0.3511 -0.6454  0.0780
 7974TIP3    H245338   2.905   3.780  11.266 -0.8065  0.0283  0.7501
 7975TIP3   OH245339   5.269   1.856   6.541 -0.1849  0.3936 -0.4665
 7975TIP3    H145340   5.306   1.901   6.465  0.0076 -1.5334 -1.5636
 7975TIP3    H245341   5.197   1.804   6.506  1.3901 -2.3984  0.1854
 7976TIP3   OH245342   1.676   3.840   0.011 -0.0840 -0.1059 -0.4709
 7976TIP3    H145343   1.634   3.862  -0.072 -1.5218  2.9255  0.8730
 7976TIP3    H245344   1.670   3.921   0.063  1.0883 -1.7303  2.4582
 7977TIP3   OH245345   3.124   0.705  12.041 -0.2073 -0.4038  0.0523
 7977TIP3    H145346   3.102   0.661  11.960  0.4506 -0.4416 -0.1073
 7977TIP3    H245347   3.090   0.794  12.030 -1.0348 -0.6984  0.1542
 7978TIP3   OH245348   5.151   1.629   6.397 -0.2816  0.0979  0.0673
 7978TIP3    H145349   5.230   1.650   6.346  0.4638 -2.1283  0.1902
 7978TIP3    H245350   5.105   1.564   6.344 -0.7494 -0.4476  1.1106
 7979TIP3   OH245351   6.659   3.112  11.322 -0.0288 -0.2750  0.3059
 7979TIP3    H145352   6.717   3.047  11.362  0.1635 -0.3191 -0.0439
 7979TIP3    H245353   6.690   3.120  11.232 -0.0602  0.2914  0.3391
 7980TIP3   OH245354   5.543   0.884   3.696  0.0257 -0.0333 -0.5490
 7980TIP3    H145355   5.616   0.945   3.696 -0.7406  0.9308 -1.9899
 7980TIP3    H245356   5.465   0.939   3.686 -0.9409 -1.0202  0.9999
 7981TIP3   OH245357   0.841   1.005  11.951 -0.0057 -0.4283  0.1330
 7981TIP3    H145358   0.770   1.052  11.909  0.4579  1.2034  1.1097
 7981TIP3    H245359   0.915   1.065  11.949  1.0402 -1.6612  0.1562
 7982TIP3   OH245360   2.171   2.526  16.654 -0.3355  0.3103 -0.3269
 7982TIP3    H145361   2.242   2.579  16.691  0.4315 -0.6336 -0.3989
 7982TIP3    H245362   2.146   2.572  16.574  0.5380  0.4178 -0.5522
 7983TIP3   OH245363   6.312   2.407  15.955  0.1083  0.3591 -0.2528
 7983TIP3    H145364   6.268   2.323  15.960 -0.6428  0.7326 -0.4692
 7983TIP3    H245365   6.258   2.459  15.895  0.8081  0.8444 -0.4785
 7984TIP3   OH245366   3.873   1.467  16.407 -0.0621  0.4481  0.2669
 7984TIP3    H145367   3.911   1.379  16.416 -2.3362 -0.6444 -0.0059
 7984TIP3    H245368   3.919   1.505  16.332  0.3489 -0.8687 -0.1849
 7985TIP3   OH245369   0.300   5.350  13.076  0.4566  0.3435  0.2168
 7985TIP3    H145370   0.238   5.407  13.123  0.8343  0.7641  0.2068
 7985TIP3    H245371   0.381   5.400  13.073  0.1791  0.7492 -1.7491
 7986TIP3   OH245372   2.224   4.902  16.603  0.3002 -0.3147  0.1807
 7986TIP3    H145373   2.249   4.905  16.510 -1.8303  0.7830 -0.4291
 7986TIP3    H245374   2.307   4.894  16.650  1.5073 -0.0842 -1.7879
 7987TIP3   OH245375   1.368   4.570  14.913  0.4229  0.0319  0.0952
 7987TIP3    H145376   1.397   4.494  14.863 -1.8890 -1.2053  0.4916
 7987TIP3    H245377   1.354   4.638  14.847  1.7081 -0.1187 -0.3644
 7988TIP3   OH245378   4.449   3.105  14.394  0.4358 -0.0590 -0.3767
 7988TIP3    H145379   4.542   3.118  14.381  0.4374  0.6717  0.3229
 7988TIP3    H245380   4.438   3.010  14.397  1.1708 -0.1445 -0.3483
 7989TIP3   OH245381   5.236   1.167   2.040 -0.4854 -0.5485 -0.6093
 7989TIP3    H145382   5.217   1.074   2.027  0.2545 -0.6377 -1.0899
 7989TIP3    H245383   5.306   1.169   2.105  0.3863 -0.3853 -1.5448
 7990TIP3   OH245384   1.039   2.252  14.184 -0.0726  0.4719 -0.1260
 7990TIP3    H145385   1.027   2.268  14.278  0.0643  1.7441 -0.3048
 7990TIP3    H245386   0.958   2.284  14.144 -0.8322 -1.5644 -0.3306
 7991TIP3   OH245387   0.223   2.206   1.944  0.3098 -0.5322  0.2490
 7991TIP3    H145388   0.140   2.208   1.897  1.0468  0.3797 -1.0820
 7991TIP3    H245389   0.266   2.127   1.913  0.6844 -0.0676 -0.4398
 7992TIP3   OH245390   1.336   5.963   6.558  0.2924  0.4343 -0.1361
 7992TIP3    H145391   1.387   5.926   6.631 -1.7562  2.1193  2.3165
 7992TIP3    H245392   1.270   5.896   6.539  1.6960 -0.6277 -1.5345
 7993TIP3   OH245393   0.175   3.149  16.775  0.5302 -0.1246 -0.2814
 7993TIP3    H145394   0.168   3.059  16.807  1.5076  0.6005  2.2129
 7993TIP3    H245395   0.268   3.159  16.753  0.6084  0.4898  0.2834
 7994TIP3   OH245396   0.050   3.089  11.499  0.0186  0.3398 -0.0768
 7994TIP3    H145397   0.002   3.167  11.472  0.2183 -0.0773 -1.7144
 7994TIP3    H245398   0.142   3.113  11.490  0.1150  0.5089  1.2151
 7995TIP3   OH245399   1.742   2.905   0.684  0.3147 -0.4217  0.4041
 7995TIP3    H145400   1.777   2.817   0.694  0.7897 -0.3856 -0.7753
 7995TIP3    H245401   1.747   2.943   0.772 -2.5760 -2.4881  1.6274
 7996TIP3   OH245402   2.600   0.438   4.370  0.1249 -0.6884  0.1382
 7996TIP3    H145403   2.576   0.522   4.409 -1.1285 -1.8185  2.0131
 7996TIP3    H245404   2.535   0.377   4.405  0.0952 -2.2027 -2.3320
 7997TIP3   OH245405   2.051   2.794  15.805  0.2295  0.1297  0.0479
 7997TIP3    H145406   2.030   2.714  15.853  1.8128 -0.6650 -0.5168
 7997TIP3    H245407   2.131   2.773  15.757 -0.0276  1.6440 -1.1260
 7998TIP3   OH245408   6.056   4.233   5.377 -0.4422  0.7081  0.2222
 7998TIP3    H145409   6.108   4.276   5.310 -1.9917  1.2854 -0.6683
 7998TIP3    H245410   6.114   4.168   5.416  0.9771  1.4756 -0.5714
 7999TIP3   OH245411   3.180   5.394  15.900  0.0465 -0.3928 -0.0689
 7999TIP3    H145412   3.085   5.407  15.903 -0.0774 -1.0871 -0.7468
 7999TIP3    H245413   3.214   5.455  15.965 -0.6832  1.5498 -1.4132
 8000TIP3   OH245414   4.454   5.218  13.806 -0.4574 -0.0144 -0.0724
 8000TIP3    H145415   4.538   5.184  13.775 -0.5743 -0.4279  0.0505
 8000TIP3    H245416   4.389   5.155  13.773 -0.5897 -0.4425  0.9596
 8001TIP3   OH245417   4.364   0.832  14.850  0.5035 -0.1027 -0.1286
 8001TIP3    H145418   4.286   0.777  14.846  0.2755  0.0385  1.4720
 8001TIP3    H245419   4.338   0.906  14.906  1.3301  0.7448 -0.8280
 8002TIP3   OH245420   1.090   5.520  11.131  0.0381  0.2771 -0.2305
 8002TIP3    H145421   1.168   5.473  11.101 -1.6873 -1.9138 -1.6218
 8002TIP3    H245422   1.124   5.602  11.168  3.0668 -1.1060  0.3737
 8003TIP3   OH245423   1.800   0.208   4.509 -0.3210 -0.5329  0.2254
 8003TIP3    H145424   1.733   0.142   4.493 -0.4295 -0.8185  1.6879
 8003TIP3    H245425   1.762   0.263   4.578  0.6138 -0.1852  0.4713
 8004TIP3   OH245426   1.021   6.510  11.778 -0.1284 -0.3776 -0.1167
 8004TIP3    H145427   1.067   6.443  11.728 -1.3288 -0.3015 -1.3817
 8004TIP3    H245428   1.026   6.589  11.724 -0.4623  0.0231  0.4196
 8005TIP3   OH245429   6.759   3.451  11.106  0.2479  0.0471  0.4521
 8005TIP3    H145430   6.746   3.453  11.201  1.5908 -1.4904  0.7098
 8005TIP3    H245431   6.720   3.368  11.077  1.3142 -0.2951 -0.0670
 8006TIP3   OH245432   0.472   1.545   4.512 -0.1819 -0.4333  0.4542
 8006TIP3    H145433   0.457   1.450   4.514  0.2414 -0.5126  2.5220
 8006TIP3    H245434   0.393   1.582   4.552 -0.4749  0.1347 -0.6132
 8007TIP3   OH245435   1.559   6.788   5.268 -0.0986  0.7780 -0.5318
 8007TIP3    H145436   1.569   6.877   5.303  0.8266  0.5984 -0.3074
 8007TIP3    H245437   1.482   6.793   5.211 -0.9412  1.3455  0.6299
 8008TIP3   OH245438   4.306   2.436   4.399 -0.2750 -0.2844 -0.9689
 8008TIP3    H145439   4.327   2.390   4.480 -0.0896  0.1540 -0.7624
 8008TIP3    H245440   4.212   2.421   4.386 -0.2261 -0.6741 -0.8794
 8009TIP3   OH245441   0.845   1.960  12.915  0.4725  0.0594  0.2737
 8009TIP3    H145442   0.913   1.953  12.982 -0.3603 -0.4729  1.0816
 8009TIP3    H245443   0.775   1.902  12.945  0.5178 -1.0534 -1.6228
 8010TIP3   OH245444   4.402   1.613   4.921  0.5525 -0.5606 -0.3262
 8010TIP3    H145445   4.410   1.619   4.826  1.0170  1.2911 -0.1945
 8010TIP3    H245446   4.492   1.608   4.952  0.4022 -1.1450  0.0436
 8011TIP3   OH245447   6.714   4.447   1.118  1.0591 -0.3332  0.2411
 8011TIP3    H145448   6.651   4.419   1.184 -1.2706  1.6931 -0.9267
 8011TIP3    H245449   6.770   4.510   1.163 -1.7107  2.5109  0.0693
 8012TIP3   OH245450   1.045   0.910   0.472 -0.4620 -0.0689  0.3798
 8012TIP3    H145451   1.063   0.883   0.381 -1.0222  2.2367 -0.4833
 8012TIP3    H245452   1.010   0.831   0.513 -0.2406 -1.1764 -1.4268
 8013TIP3   OH245453   3.901   2.549  16.324 -0.1266  0.0661  0.7535
 8013TIP3    H145454   3.886   2.507  16.408  0.3191  0.4542  1.0313
 8013TIP3    H245455   3.988   2.588  16.332  1.1367 -2.2009 -0.8336
 8014TIP3   OH245456   1.438   5.035  11.767  0.4515  0.1498 -0.4411
 8014TIP3    H145457   1.374   5.058  11.700  0.9921 -0.5992 -1.2340
 8014TIP3    H245458   1.448   5.115  11.819  1.0409  1.2141 -2.1004
 8015TIP3   OH245459   5.232   0.798  15.666 -0.0325 -0.0001 -0.3978
 8015TIP3    H145460   5.225   0.740  15.590  0.9067 -0.0369 -0.4707
 8015TIP3    H245461   5.287   0.749  15.728 -0.7396  0.0534  0.2924
 8016TIP3   OH245462   1.154   2.427  11.460  0.4595 -0.2965 -0.2434
 8016TIP3    H145463   1.233   2.460  11.417  0.6953 -0.5956 -0.0457
 8016TIP3    H245464   1.092   2.415  11.389  0.4276  0.3986 -0.3415
 8017TIP3   OH245465   6.344   0.077  15.395  0.3327 -0.2090 -0.1457
 8017TIP3    H145466   6.385   0.159  15.366 -0.7828  0.3116 -0.2943
 8017TIP3    H245467   6.355   0.078  15.490 -0.5528  0.6160 -0.0409
 8018TIP3   OH245468   0.614   1.109  12.359  0.4387 -0.0812  0.1221
 8018TIP3    H145469   0.564   1.028  12.351 -1.1982  0.9095  0.0366
 8018TIP3    H245470   0.637   1.114  12.451 -1.1550  0.3179  0.5203
 8019TIP3   OH245471   2.756   1.330  14.706 -0.3194 -0.3315  0.0370
 8019TIP3    H145472   2.805   1.347  14.626  0.0390 -0.0065  0.3198
 8019TIP3    H245473   2.743   1.235  14.707 -1.9589 -0.1659 -1.3484
 8020TIP3   OH245474   2.479   0.446  11.762  0.0428  0.1102  0.1466
 8020TIP3    H145475   2.454   0.429  11.853 -1.1681  1.8704  0.1901
 8020TIP3    H245476   2.456   0.366  11.716  0.1634 -0.6120  1.3000
 8021TIP3   OH245477   0.958   0.703  14.855  0.4452 -0.3680  0.3668
 8021TIP3    H145478   1.036   0.662  14.818  1.7453  0.6830  1.7947
 8021TIP3    H245479   0.900   0.630  14.877  1.1100 -1.1785 -0.5002
 8022TIP3   OH245480   0.505   4.759  16.463  0.2007 -0.1330  0.0442
 8022TIP3    H145481   0.594   4.754  16.496 -0.0212 -0.8668  0.5557
 8022TIP3    H245482   0.501   4.843  16.417  0.3010  1.3445  2.5476
 8023TIP3   OH245483   4.974   6.442   5.681  0.0375 -0.0182 -0.8684
 8023TIP3    H145484   5.050   6.452   5.739 -1.2776 -0.4300  1.0275
 8023TIP3    H245485   5.011   6.428   5.594  2.1059  1.4011 -0.2896
 8024TIP3   OH245486   2.201   1.335   4.656 -0.3917 -0.4324 -0.4319
 8024TIP3    H145487   2.253   1.290   4.724  3.0382  1.6673 -1.4269
 8024TIP3    H245488   2.148   1.397   4.704  0.9141  0.0212  0.4910
 8025TIP3   OH245489   2.847   2.902   1.688  0.1625  0.1556  0.1559
 8025TIP3    H145490   2.818   2.811   1.678  1.3138 -0.1667 -0.5107
 8025TIP3    H245491   2.911   2.899   1.759 -0.8646  0.7298  1.1398
 8026TIP3   OH245492   0.694   4.948   0.494 -0.1430  0.2199 -0.4709
 8026TIP3    H145493   0.728   4.976   0.409  1.5849  0.1046  0.1569
 8026TIP3    H245494   0.709   4.854   0.497 -1.0470  0.0647 -0.3890
 8027TIP3   OH245495   6.319   3.822   4.614 -0.3003  0.2584  0.1419
 8027TIP3    H145496   6.228   3.852   4.615 -0.4254  0.2014 -2.4313
 8027TIP3    H245497   6.362   3.879   4.551  1.2430 -0.3124  0.6442
 8028TIP3   OH245498   0.579   0.629  12.434  0.2481 -0.0889 -0.6482
 8028TIP3    H145499   0.621   0.573  12.369 -1.4550 -2.0926 -0.1607
 8028TIP3    H245500   0.501   0.579  12.461  0.1867  1.2482  1.9546
 8029TIP3   OH245501   5.167   1.305  14.421  0.1614 -0.4685  0.4650
 8029TIP3    H145502   5.076   1.301  14.392  0.1146 -1.3993  0.7273
 8029TIP3    H245503   5.161   1.331  14.513  0.1484 -0.8434  0.5692
 8030TIP3   OH245504   2.706   0.641  13.979 -0.0698  0.3110 -0.3946
 8030TIP3    H145505   2.741   0.725  13.947 -2.0069  0.8918 -1.1319
 8030TIP3    H245506   2.618   0.637  13.943 -0.7867 -1.0757  1.3913
 8031TIP3   OH245507   5.967   4.576  15.539  0.0729 -0.2012  0.4428
 8031TIP3    H145508   5.985   4.652  15.485  1.2527 -0.2447  0.7430
 8031TIP3    H245509   6.030   4.582  15.611 -1.3438 -0.2319  1.7421
 8032TIP3   OH245510   2.504   2.348  13.456  0.2997 -0.0848  0.3692
 8032TIP3    H145511   2.573   2.301  13.501  2.0372 -0.1525 -2.1320
 8032TIP3    H245512   2.546   2.383  13.377 -1.5946  3.2259  0.6386
 8033TIP3   OH245513   0.637   4.004  12.711 -0.1496 -0.1555  0.1549
 8033TIP3    H145514   0.687   4.076  12.749 -1.6935  0.7641  0.5150
 8033TIP3    H245515   0.648   4.013  12.617  0.4288 -0.0188  0.2355
 8034TIP3   OH245516   5.837   5.192  14.324  0.0830 -0.0060 -0.3892
 8034TIP3    H145517   5.907   5.210  14.387 -0.4114  1.8806 -0.3462
 8034TIP3    H245518   5.841   5.265  14.262 -1.3614 -0.2773 -0.8279
 8035TIP3   OH245519   3.194   3.458  14.781 -0.2231 -0.2029 -0.2205
 8035TIP3    H145520   3.169   3.509  14.704 -1.2175 -0.3821 -0.0307
 8035TIP3    H245521   3.271   3.502  14.815 -1.4432  1.6285  0.3381
 8036TIP3   OH245522   1.195   3.590  12.838 -0.1801 -0.0841  0.1525
 8036TIP3    H145523   1.185   3.507  12.792  1.5063 -0.7122  0.8493
 8036TIP3    H245524   1.149   3.577  12.921 -0.7533  0.0383 -0.1409
 8037TIP3   OH245525   4.155   1.035   5.223  0.1323 -0.1919  0.3421
 8037TIP3    H145526   4.185   0.947   5.246  1.1193  0.0024 -0.1190
 8037TIP3    H245527   4.162   1.039   5.128 -1.0241  0.0056  0.2547
 8038TIP3   OH245528   6.332   6.244  16.252 -0.5761 -0.2746  0.1952
 8038TIP3    H145529   6.251   6.206  16.287 -0.3303  0.3495  1.4773
 8038TIP3    H245530   6.402   6.201  16.302 -0.0359 -1.3198 -1.3697
 8039TIP3   OH245531   5.590   0.026   5.473  0.5097 -0.0744  0.5477
 8039TIP3    H145532   5.572   0.114   5.441 -0.8739 -0.0658  1.2719
 8039TIP3    H245533   5.514   0.004   5.527  0.9754 -1.5895  0.6388
 8040TIP3   OH245534   0.561   0.369   3.251 -0.2852 -0.2161  0.1337
 8040TIP3    H145535   0.598   0.457   3.250  0.0096 -0.3137  1.1129
 8040TIP3    H245536   0.567   0.341   3.343 -1.3801 -0.8324  0.0382
 8041TIP3   OH245537   5.456   4.222  14.551 -0.0878 -0.5056  0.5654
 8041TIP3    H145538   5.496   4.179  14.626  2.1659 -0.0507 -0.3141
 8041TIP3    H245539   5.486   4.172  14.475 -0.5735  0.3167 -0.1883
 8042TIP3   OH245540   1.063   6.555   3.087  0.5106  0.0976 -0.0322
 8042TIP3    H145541   1.031   6.475   3.129  1.4099  0.2545  1.0027
 8042TIP3    H245542   0.983   6.604   3.066 -0.0063 -0.1525  1.2144
 8043TIP3   OH245543   5.808   4.944  11.244  0.5984  0.0486 -0.0886
 8043TIP3    H145544   5.845   4.862  11.211 -1.1602 -0.9045  0.1581
 8043TIP3    H245545   5.730   4.958  11.190 -0.0604  0.6458  0.9887
 8044TIP3   OH245546   1.810   5.955   1.064 -0.1447  0.6707 -0.5093
 8044TIP3    H145547   1.716   5.972   1.068 -0.1113  0.8517 -0.5179
 8044TIP3    H245548   1.841   6.008   0.991 -0.1897 -0.0985 -1.1009
 8045TIP3   OH245549   3.328   2.854  16.955  0.5450  0.2801 -0.2007
 8045TIP3    H145550   3.253   2.913  16.959  0.4369  0.0853  1.3339
 8045TIP3    H245551   3.378   2.873  17.035  2.3395  0.6500 -1.3422
 8046TIP3   OH245552   4.012   1.804   4.437 -0.2801  0.3034 -0.2620
 8046TIP3    H145553   3.957   1.874   4.402 -4.0638 -1.7340  0.9964
 8046TIP3    H245554   4.046   1.839   4.519 -1.2107  1.0852 -0.1874
 8047TIP3   OH245555   0.542   4.365   4.867 -0.3278  0.3666  0.0189
 8047TIP3    H145556   0.636   4.370   4.883 -0.2120 -2.9601  1.0170
 8047TIP3    H245557   0.504   4.432   4.924  1.2591 -0.1470  1.7602
 8048TIP3   OH245558   0.862   0.617  13.123  0.2831  0.0454 -0.2305
 8048TIP3    H145559   0.881   0.541  13.179  0.5230  2.0602  2.6135
 8048TIP3    H245560   0.928   0.612  13.054 -0.3527 -2.8361 -0.7843
 8049TIP3   OH245561   6.141   0.830  14.634 -0.0371 -0.3763  0.6595
 8049TIP3    H145562   6.227   0.807  14.598  0.5635  2.1214  0.2576
 8049TIP3    H245563   6.090   0.750  14.628  1.8571 -1.5881 -0.3508
 8050TIP3   OH245564   2.761   5.234   1.736  0.5554 -0.4885 -0.2472
 8050TIP3    H145565   2.709   5.221   1.815  1.5249  3.0212  1.1843
 8050TIP3    H245566   2.850   5.251   1.768  1.1477  0.2390 -2.1220
 8051TIP3   OH245567   0.725   6.316   0.125  0.0325 -0.2814  0.0144
 8051TIP3    H145568   0.810   6.324   0.082  0.3309 -0.9899  0.4400
 8051TIP3    H245569   0.747   6.295   0.216 -0.5898  0.6358  0.3909
 8052TIP3   OH245570   0.939   6.677  16.754  0.5270 -0.6615  0.3365
 8052TIP3    H145571   0.879   6.651  16.823  1.3864  0.3587  1.5058
 8052TIP3    H245572   0.973   6.762  16.782  0.2988  0.1913 -1.7269
 8053TIP3   OH245573   5.414   5.878   2.938 -0.3942 -0.1709  0.2976
 8053TIP3    H145574   5.338   5.832   2.901 -0.6273 -0.6299  1.3156
 8053TIP3    H245575   5.484   5.813   2.936  0.0503  0.3289 -0.8633
 8054TIP3   OH245576   6.754   6.388   3.805  0.1845 -0.6091 -0.0276
 8054TIP3    H145577   6.671   6.432   3.823  1.7701  3.9575 -2.2424
 8054TIP3    H245578   6.800   6.387   3.889  0.5476  3.6724  0.0645
 8055TIP3   OH245579   0.705   0.133   1.212 -0.2886  1.0201  0.2084
 8055TIP3    H145580   0.779   0.079   1.238  0.4283  1.7985 -0.1469
 8055TIP3    H245581   0.665   0.162   1.294  0.3283  1.2895  0.4187
 8056TIP3   OH245582   0.875   0.579   1.857  0.0929  0.4799 -0.6993
 8056TIP3    H145583   0.843   0.489   1.852  0.5613  0.3202 -0.9105
 8056TIP3    H245584   0.803   0.632   1.822 -0.5436  0.2777  0.2704
 8057TIP3   OH245585   5.789   4.917  16.739 -0.3806 -0.2598  0.0412
 8057TIP3    H145586   5.814   4.976  16.668  1.7692 -0.9181  0.1882
 8057TIP3    H245587   5.759   4.975  16.809 -0.8526  0.4947 -0.7643
 8058TIP3   OH245588   0.950   5.371   4.103  0.2194  0.3790 -0.6334
 8058TIP3    H145589   0.907   5.352   4.020  0.4945 -1.6399 -0.3530
 8058TIP3    H245590   0.882   5.412   4.157 -0.5571 -0.1974 -1.1601
 8059TIP3   OH245591   4.367   4.928  16.298 -0.3255 -0.0416 -0.5710
 8059TIP3    H145592   4.300   4.860  16.297  0.3046 -0.6821 -1.5566
 8059TIP3    H245593   4.450   4.880  16.305  0.0248  0.7917  2.2037
 8060TIP3   OH245594   5.009   0.640   0.501 -0.1376 -0.0055  0.0585
 8060TIP3    H145595   5.033   0.566   0.557 -0.9445 -1.6427 -1.6536
 8060TIP3    H245596   4.921   0.620   0.471  0.0203  1.1496 -1.2559
 8061TIP3   OH245597   1.802   5.265   3.333  0.1996  0.5481  0.6810
 8061TIP3    H145598   1.855   5.268   3.412 -0.6735  0.0527  1.2882
 8061TIP3    H245599   1.711   5.263   3.364 -0.1241 -1.4553 -0.2685
 8062TIP3   OH245600   3.417   6.639   5.085  0.3958  0.1125 -0.0698
 8062TIP3    H145601   3.426   6.577   5.158  0.4482  0.5133  0.2680
 8062TIP3    H245602   3.369   6.591   5.018  1.2556 -0.6137 -0.1840
 8063TIP3   OH245603   5.607   1.072  11.435 -0.0074  0.1455 -0.5956
 8063TIP3    H145604   5.584   0.993  11.484  0.6835  0.2041 -0.1580
 8063TIP3    H245605   5.540   1.078  11.366  0.6992 -1.5580 -1.4863
 8064TIP3   OH245606   5.224   4.571  12.294 -0.1022 -0.5026 -0.1290
 8064TIP3    H145607   5.229   4.477  12.275  0.5808 -0.6533  0.7257
 8064TIP3    H245608   5.137   4.597  12.263  0.1040 -1.1830 -1.3437
 8065TIP3   OH245609   4.739   5.143   3.731  0.1548 -0.6081 -0.5108
 8065TIP3    H145610   4.685   5.117   3.806 -0.1524  0.3316 -0.3922
 8065TIP3    H245611   4.762   5.234   3.749  1.6460 -0.9279 -0.6471
 8066TIP3   OH245612   0.487   1.730   0.285  0.2602  0.2982  0.2671
 8066TIP3    H145613   0.419   1.792   0.311 -0.0137  0.7923 -1.5500
 8066TIP3    H245614   0.569   1.777   0.302  0.1231  0.2923  0.9870
 8067TIP3   OH245615   6.459   4.474   5.333 -0.0092  0.7352 -0.0113
 8067TIP3    H145616   6.546   4.511   5.347  0.2690 -0.5581  2.1830
 8067TIP3    H245617   6.402   4.525   5.391 -0.5365  0.9150 -0.6790
 8068TIP3   OH245618   0.970   2.680  12.925 -0.0897 -0.1891  0.7753
 8068TIP3    H145619   1.040   2.614  12.932 -0.5910 -0.5589  3.2071
 8068TIP3    H245620   1.017   2.763  12.913  0.6243 -0.7367 -0.3880
 8069TIP3   OH245621   3.815   4.434  13.604  0.6002  0.1738  0.1740
 8069TIP3    H145622   3.759   4.372  13.558  2.7122 -0.8198 -1.2110
 8069TIP3    H245623   3.877   4.379  13.653  1.1781  1.2079  0.6375
 8070TIP3   OH245624   1.370   0.038  14.972  0.5556 -0.2366  0.4248
 8070TIP3    H145625   1.411   0.061  15.055  0.2557  0.9261  0.2682
 8070TIP3    H245626   1.309   0.109  14.955  1.2382  0.0015 -1.2111
 8071TIP3   OH245627   1.849   6.074  13.121 -0.7002 -0.3437  0.0250
 8071TIP3    H145628   1.861   6.090  13.215  0.2909 -1.6043  0.1466
 8071TIP3    H245629   1.937   6.082  13.084 -0.5832 -2.5741 -0.3207
 8072TIP3   OH245630   4.583   1.783  16.731 -0.0639  0.0612 -0.5974
 8072TIP3    H145631   4.631   1.730  16.794  0.7846 -0.8969 -2.0035
 8072TIP3    H245632   4.620   1.871  16.740 -0.8031  0.2336  1.0649
 8073TIP3   OH245633   5.554   2.827   5.233  0.0174  0.4028  0.0488
 8073TIP3    H145634   5.613   2.862   5.300 -0.2782  1.8996 -0.4465
 8073TIP3    H245635   5.613   2.792   5.166  0.3134  0.0690  0.4665
 8074TIP3   OH245636   4.370   1.719  16.371 -0.1622 -0.0630  0.5426
 8074TIP3    H145637   4.319   1.754  16.444  0.4437  0.5703  0.6779
 8074TIP3    H245638   4.307   1.711  16.299 -0.7642 -0.6946  1.1262
 8075TIP3   OH245639   6.707   6.225  12.274  0.0281  0.1630  0.3381
 8075TIP3    H145640   6.745   6.166  12.208  1.2960  1.0135  0.2783
 8075TIP3    H245641   6.648   6.282  12.224 -1.2180 -1.0132  0.3964
 8076TIP3   OH245642   4.006   5.100   2.256  0.5469 -0.1045  0.3882
 8076TIP3    H145643   3.977   5.089   2.347  0.9502  1.2613  0.7135
 8076TIP3    H245644   3.988   5.192   2.237  2.7446  0.2794 -0.0681
 8077TIP3   OH245645   0.080   3.163   4.905  0.1718  0.4080  0.1587
 8077TIP3    H145646   0.073   3.179   4.999  0.2443  1.5764 -0.0154
 8077TIP3    H245647   0.072   3.250   4.865 -0.3707 -0.1217 -0.9461
 8078TIP3   OH245648   3.615   1.771  12.709  0.3069 -0.3053  0.2036
 8078TIP3    H145649   3.533   1.810  12.679  0.2943 -0.2070  0.3658
 8078TIP3    H245650   3.633   1.701  12.646  0.6417  0.3439 -0.4428
 8079TIP3   OH245651   2.494   5.633   0.002 -0.3750 -0.1274  0.8503
 8079TIP3    H145652   2.430   5.673   0.061 -1.5628  0.8272 -0.9936
 8079TIP3    H245653   2.532   5.706  -0.046  0.4211 -0.8832  0.2923
 8080TIP3   OH245654   4.290   5.349   1.788 -0.4578 -0.3865  0.3422
 8080TIP3    H145655   4.312   5.366   1.697  2.0366 -2.4319  0.4362
 8080TIP3    H245656   4.364   5.383   1.838 -0.8664 -0.9915  1.4109
 8081TIP3   OH245657   2.999   2.805  12.707  0.2227  0.0263 -0.1072
 8081TIP3    H145658   2.957   2.887  12.736  2.8458  1.5552 -0.3162
 8081TIP3    H245659   3.048   2.776  12.783  0.3393 -0.6512 -0.4408
 8082TIP3   OH245660   3.423   0.275  16.431 -0.6736 -0.7999 -0.0894
 8082TIP3    H145661   3.423   0.342  16.362 -0.5772  1.2831  1.8501
 8082TIP3    H245662   3.514   0.269  16.459 -0.5289 -2.4000 -0.7613
 8083TIP3   OH245663   0.224   6.009  12.225  0.2513  0.5235  0.4891
 8083TIP3    H145664   0.180   6.000  12.309  0.1339  2.9417  0.7702
 8083TIP3    H245665   0.166   6.065  12.174  0.2179 -1.0706 -1.3064
 8084TIP3   OH245666   4.024   6.213  15.311 -0.5468  0.0934  0.1082
 8084TIP3    H145667   4.038   6.235  15.219  0.7017 -1.3713 -0.0861
 8084TIP3    H245668   4.042   6.120  15.316 -2.4685 -0.2516  1.4937
 8085TIP3   OH245669   4.889   1.242   2.971 -0.0530 -0.6305 -0.0240
 8085TIP3    H145670   4.810   1.275   3.014  1.1238  0.2994  1.5188
 8085TIP3    H245671   4.910   1.309   2.905 -1.8058 -2.0134 -2.1568
 8086TIP3   OH245672   4.773   0.462  13.941  0.0056  0.8344 -0.1206
 8086TIP3    H145673   4.798   0.407  13.867  1.3055 -1.2214  1.7458
 8086TIP3    H245674   4.681   0.443  13.955  0.5655 -1.4733  0.8790
 8087TIP3   OH245675   5.695   6.426  12.327 -0.3643  0.1902 -0.1938
 8087TIP3    H145676   5.640   6.504  12.332 -0.9385 -0.2145 -0.1107
 8087TIP3    H245677   5.750   6.430  12.405 -1.1897 -0.0745  0.4172
 8088TIP3   OH245678   1.728   3.224  14.585  0.5179  0.0998 -0.3705
 8088TIP3    H145679   1.750   3.132  14.595  1.9724  0.4588 -0.0069
 8088TIP3    H245680   1.641   3.232  14.623  0.1130 -1.2334 -0.9695
 8089TIP3   OH245681   2.005   4.538   0.039  0.3649 -0.2568  0.1812
 8089TIP3    H145682   2.013   4.633   0.052  0.1239 -0.1758 -0.2483
 8089TIP3    H245683   2.067   4.519  -0.032 -0.3218 -0.2568 -0.4314
 8090TIP3   OH245684   1.725   3.396  15.889  0.4440  0.1591  0.3917
 8090TIP3    H145685   1.720   3.481  15.933  0.4296 -0.0373  0.7725
 8090TIP3    H245686   1.819   3.381  15.877  0.4565  1.8424 -2.8630
 8091TIP3   OH245687   3.289   1.252   1.398  0.3105  0.2649  0.4987
 8091TIP3    H145688   3.232   1.219   1.467 -0.7081  0.5931 -0.1640
 8091TIP3    H245689   3.318   1.173   1.352  2.2141 -0.0911  2.1690
 8092TIP3   OH245690   0.496   0.340   0.985 -0.1503 -0.1163 -0.5625
 8092TIP3    H145691   0.529   0.273   0.925 -0.8103  1.0128 -2.2841
 8092TIP3    H245692   0.572   0.364   1.039  0.4830 -1.1522 -0.9680
 8093TIP3   OH245693   4.951   5.694  17.052 -0.5336 -0.5102 -0.4543
 8093TIP3    H145694   4.940   5.646  16.970  1.6140 -1.6482 -0.1293
 8093TIP3    H245695   5.002   5.636  17.108  0.4211  1.3218  0.6980
 8094TIP3   OH245696   1.958   2.924   1.747  0.1936  0.1591  1.0086
 8094TIP3    H145697   1.910   3.000   1.780 -1.0483 -0.1638  0.0095
 8094TIP3    H245698   2.007   2.957   1.672 -1.6096 -0.2808 -0.4603
 8095TIP3   OH245699   5.555   3.533  16.377  0.0630 -0.1090 -0.0942
 8095TIP3    H145700   5.529   3.623  16.398  0.9154  0.3594 -0.9771
 8095TIP3    H245701   5.650   3.537  16.365  0.0978 -1.1033 -0.2397
 8096TIP3   OH245702   3.017   3.409   2.550  0.5634  0.1847 -0.3652
 8096TIP3    H145703   2.935   3.459   2.548 -0.2611 -0.9722  1.6210
 8096TIP3    H245704   2.994   3.324   2.512  0.6623 -0.3444  0.7283
 8097TIP3   OH245705   5.163   4.457  14.981  0.1267 -0.2377 -0.1176
 8097TIP3    H145706   5.249   4.447  15.023 -0.1136  2.2136  1.1001
 8097TIP3    H245707   5.184   4.476  14.890  0.7592 -1.7499 -0.3337
 8098TIP3   OH245708   3.321   6.554   1.158 -0.1237  0.1605  0.1542
 8098TIP3    H145709   3.279   6.584   1.078 -1.3710  0.3920  0.8657
 8098TIP3    H245710   3.394   6.500   1.129 -1.0814 -0.4811 -1.1355
 8099TIP3   OH245711   6.254   6.184   0.220  0.0262  0.3331 -0.6332
 8099TIP3    H145712   6.299   6.215   0.299 -1.9151  4.8235 -0.9510
 8099TIP3    H245713   6.317   6.196   0.149  0.5681 -0.1058 -0.2262
 8100TIP3   OH245714   4.881   6.304   1.193  0.2332 -0.0440 -0.5290
 8100TIP3    H145715   4.907   6.382   1.144  0.4268 -1.0200 -2.0395
 8100TIP3    H245716   4.785   6.306   1.191  0.2375  0.1167 -0.6230
 8101TIP3   OH245717   1.401   2.702   4.035 -0.0215  0.0533 -0.1721
 8101TIP3    H145718   1.412   2.698   4.130  1.7397 -1.2316 -0.3742
 8101TIP3    H245719   1.327   2.761   4.022 -0.2225  0.3690  1.9823
 8102TIP3   OH245720   0.359   4.011  16.700 -0.7790 -0.1272  0.4920
 8102TIP3    H145721   0.332   3.953  16.629 -0.9098 -1.3787  1.5215
 8102TIP3    H245722   0.376   3.952  16.773 -1.8832  1.2105  1.8943
 8103TIP3   OH245723   2.395   3.563  12.167 -0.0696 -0.6248  0.6631
 8103TIP3    H145724   2.317   3.618  12.161  0.0356 -0.5151  0.2775
 8103TIP3    H245725   2.372   3.485  12.117  1.0309  0.5489 -1.8339
 8104TIP3   OH245726   5.733   2.131  13.178 -0.1830  0.4867  0.2505
 8104TIP3    H145727   5.716   2.143  13.085 -0.1813 -0.0593  0.1778
 8104TIP3    H245728   5.828   2.144  13.187 -0.0359 -0.3614  0.0233
 8105TIP3   OH245729   1.110   5.539   6.250 -0.1347 -0.6675 -0.0174
 8105TIP3    H145730   1.027   5.536   6.297  1.1595  0.1710  2.4713
 8105TIP3    H245731   1.085   5.545   6.158 -2.8068 -0.7572  0.6339
 8106TIP3   OH245732   0.123   6.642   5.174 -0.3216 -0.6056  0.1384
 8106TIP3    H145733   0.189   6.708   5.196  1.3052 -2.6471  1.6485
 8106TIP3    H245734   0.042   6.693   5.166  0.4107  1.3888  3.3555
 8107TIP3   OH245735   1.525   4.792  14.437 -0.2359 -0.3452  0.1588
 8107TIP3    H145736   1.588   4.776  14.367 -0.0681  1.5189 -0.1755
 8107TIP3    H245737   1.556   4.738  14.510  1.1751 -0.2394 -0.3273
 8108TIP3   OH245738   3.004   5.495  12.245  0.4378  0.1698  0.3653
 8108TIP3    H145739   3.010   5.591  12.237  0.9226  0.3683  2.4274
 8108TIP3    H245740   2.930   5.480  12.303 -0.5779 -0.8244 -1.1274
 8109TIP3   OH245741   4.100   5.215   5.636  0.5061 -0.3538 -0.1689
 8109TIP3    H145742   4.013   5.238   5.602  1.0479  1.4778 -0.3992
 8109TIP3    H245743   4.126   5.290   5.689  2.4154 -0.3701 -0.9984
 8110TIP3   OH245744   5.521   6.278   4.481 -0.4374 -0.3171 -0.1326
 8110TIP3    H145745   5.548   6.342   4.547 -2.4764  1.3546 -0.7689
 8110TIP3    H245746   5.504   6.198   4.530 -2.5433  1.0578  1.5674
 8111TIP3   OH245747   6.557   5.415  13.478 -0.3238  0.5373 -0.6096
 8111TIP3    H145748   6.609   5.476  13.530 -0.1736 -0.2829  0.2456
 8111TIP3    H245749   6.614   5.390  13.405  0.8499 -0.9438  0.7262
 8112TIP3   OH245750   1.631   0.379   6.241 -0.1244  0.7602  0.2485
 8112TIP3    H145751   1.681   0.439   6.296  0.6399  0.1087  0.2888
 8112TIP3    H245752   1.695   0.312   6.216 -1.1166 -0.4128  0.7801
 8113TIP3   OH245753   5.042   3.731   5.110 -0.4574  0.1346  0.3702
 8113TIP3    H145754   5.101   3.696   5.043  0.8208 -1.5236  2.2413
 8113TIP3    H245755   4.973   3.665   5.117 -0.9172  0.6002  0.2986
 8114TIP3   OH245756   0.829   3.548   3.490  0.3495  0.1729 -0.5330
 8114TIP3    H145757   0.789   3.632   3.511 -0.6977  0.0178 -1.7199
 8114TIP3    H245758   0.902   3.569   3.432  0.2083  0.2891 -0.6699
 8115TIP3   OH245759   2.420   1.787  16.897  0.2956 -0.1376 -0.1761
 8115TIP3    H145760   2.370   1.808  16.976 -1.3190  0.5338 -1.3285
 8115TIP3    H245761   2.384   1.845  16.830  1.7167 -0.6081 -1.3888
 8116TIP3   OH245762   1.392   0.436  14.082 -0.0319  0.0596 -0.2530
 8116TIP3    H145763   1.421   0.492  14.010  0.3249  0.7738  0.4403
 8116TIP3    H245764   1.436   0.352  14.066  1.0994  0.6240 -0.1362
 8117TIP3   OH245765   4.383   5.284   0.674 -0.5494 -0.0010  0.3055
 8117TIP3    H145766   4.478   5.270   0.670 -0.6981 -1.2745  0.5478
 8117TIP3    H245767   4.368   5.322   0.761 -0.1022  1.8629 -0.4005
 8118TIP3   OH245768   4.875   5.634   0.938 -0.6684  1.0087  0.8719
 8118TIP3    H145769   4.780   5.644   0.944 -1.0142 -1.6516  1.0585
 8118TIP3    H245770   4.902   5.609   1.026 -0.0886 -0.0662  0.4062
 8119TIP3   OH245771   0.208   2.860   4.360  0.3327  0.2726  0.2555
 8119TIP3    H145772   0.116   2.836   4.374  0.2542 -1.3597 -2.4145
 8119TIP3    H245773   0.231   2.909   4.439 -2.5102 -0.1259  1.4952
 8120TIP3   OH245774   1.172   4.383   3.815 -0.3518  0.0829 -0.7914
 8120TIP3    H145775   1.267   4.384   3.803 -0.1920  1.1259  0.3099
 8120TIP3    H245776   1.157   4.440   3.891 -1.9869  1.1238 -1.8310
 8121TIP3   OH245777   3.654   2.519  16.186 -0.7825  0.0007 -0.1378
 8121TIP3    H145778   3.612   2.434  16.193 -0.7563 -0.0319 -0.3823
 8121TIP3    H245779   3.691   2.534  16.273 -0.0038 -0.6453 -0.3486
 8122TIP3   OH245780   5.945   2.333   5.365  0.0584 -0.2156 -0.0184
 8122TIP3    H145781   6.032   2.343   5.404 -0.0046 -0.3779  0.1603
 8122TIP3    H245782   5.896   2.410   5.396 -0.1369 -0.5870  0.6062
 8123TIP3   OH245783   2.444   1.946  11.739  0.3330 -0.0329 -0.0519
 8123TIP3    H145784   2.443   1.933  11.644  0.9128 -1.2246  0.0888
 8123TIP3    H245785   2.471   2.037  11.750 -0.7226  0.4225 -1.0399
 8124TIP3   OH245786   4.806   2.145   4.662  0.0118  0.5361 -0.3455
 8124TIP3    H145787   4.714   2.172   4.671 -0.5551 -1.2642 -0.2926
 8124TIP3    H245788   4.851   2.191   4.733 -1.3739 -0.5890  1.3587
 8125TIP3   OH245789   3.560   5.786  16.206  0.5471 -0.5019  0.5352
 8125TIP3    H145790   3.626   5.729  16.245  1.2395  0.5083  0.8653
 8125TIP3    H245791   3.598   5.874  16.208 -1.1594  0.2755  1.5659
 8126TIP3   OH245792   2.176   2.750   5.338  0.4117  0.4894  0.3946
 8126TIP3    H145793   2.150   2.833   5.376  1.0392 -0.0491  2.1045
 8126TIP3    H245794   2.149   2.755   5.247 -0.2246  2.2603  0.6552
 8127TIP3   OH245795   6.194   5.155  12.642  0.6044  0.4276  0.1862
 8127TIP3    H145796   6.142   5.234  12.626  1.3217  0.9968  0.5605
 8127TIP3    H245797   6.238   5.173  12.725 -1.5284 -1.6310  1.8844
 8128TIP3   OH245798   4.611   2.831  15.624  0.4124 -0.4316 -0.1107
 8128TIP3    H145799   4.536   2.806  15.570 -0.1935 -0.7221  0.8461
 8128TIP3    H245800   4.650   2.748  15.650  1.2680 -0.2773 -0.8622
 8129TIP3   OH245801   2.942   5.647   4.036  0.3332 -0.3829 -0.0011
 8129TIP3    H145802   2.900   5.621   3.954  0.7727 -1.2166  0.0344
 8129TIP3    H245803   2.876   5.632   4.103 -0.3053  1.0360 -0.2720
 8130TIP3   OH245804   2.652   1.096  13.828  0.4447 -1.2597  0.6054
 8130TIP3    H145805   2.702   1.149  13.765 -0.0434 -0.1765  1.1081
 8130TIP3    H245806   2.579   1.152  13.854 -0.7447 -2.6025  0.3130
 8131TIP3   OH245807   3.577   6.260   3.952 -0.1709 -0.3780 -0.3447
 8131TIP3    H145808   3.604   6.246   4.042 -1.2193  1.6376  0.3381
 8131TIP3    H245809   3.610   6.347   3.930 -3.9484  1.2598 -0.2091
 8132TIP3   OH245810   0.441   1.436   0.560 -0.2157 -0.3584 -0.0827
 8132TIP3    H145811   0.497   1.372   0.604  0.7683  0.6325  0.1510
 8132TIP3    H245812   0.452   1.416   0.467  0.2064 -0.4408 -0.0199
 8133TIP3   OH245813   4.829   1.857  16.471 -0.3105  0.2780 -0.5263
 8133TIP3    H145814   4.891   1.909  16.523 -2.1639  0.8877  1.1945
 8133TIP3    H245815   4.875   1.775  16.455  1.8197  1.5365 -1.3496
 8134TIP3   OH245816   3.411   4.751  11.872  0.4386  0.4382  0.4280
 8134TIP3    H145817   3.385   4.670  11.830 -0.5565  1.0417 -0.1773
 8134TIP3    H245818   3.474   4.791  11.812 -1.6502  1.7362 -1.0685
 8135TIP3   OH245819   0.534   4.750   4.678 -0.8539  0.3239 -0.6649
 8135TIP3    H145820   0.439   4.743   4.673 -1.0465  1.6782  0.2981
 8135TIP3    H245821   0.549   4.819   4.743  0.8043 -0.7348  0.1544
 8136TIP3   OH245822   2.695   4.785   2.090  0.0530  0.4747 -0.0763
 8136TIP3    H145823   2.744   4.833   2.157  1.0537 -1.1358  0.3947
 8136TIP3    H245824   2.750   4.709   2.069 -1.1665 -0.1221 -1.2735
 8137TIP3   OH245825   4.143   0.473  13.874  0.2779 -0.3129  0.1085
 8137TIP3    H145826   4.234   0.495  13.852  0.2868 -0.7987 -0.3726
 8137TIP3    H245827   4.141   0.377  13.874 -0.3188 -0.3065 -0.2604
 8138TIP3   OH245828   5.481   6.390   2.651  0.1458 -0.1747 -0.0753
 8138TIP3    H145829   5.562   6.361   2.693 -0.6126  1.0206  2.4192
 8138TIP3    H245830   5.425   6.313   2.652  0.9574 -0.8171 -1.1801
 8139TIP3   OH245831   1.870   2.319  14.314  0.1868 -0.5657 -0.5757
 8139TIP3    H145832   1.961   2.307  14.344  0.5070 -1.4372 -1.7843
 8139TIP3    H245833   1.839   2.396  14.361  1.7828  0.1526 -0.6236
 8140TIP3   OH245834   4.276   4.466  12.775  0.1942 -0.7365 -0.7009
 8140TIP3    H145835   4.226   4.397  12.820 -0.1351  0.2466  0.5169
 8140TIP3    H245836   4.209   4.519  12.731  0.3075 -0.3785 -0.4472
 8141TIP3   OH245837   3.854   2.437  16.578  0.1317 -0.0770  0.2662
 8141TIP3    H145838   3.823   2.524  16.605 -1.4577 -0.8281  0.9965
 8141TIP3    H245839   3.880   2.395  16.660 -0.3476 -0.7377  0.0852
 8142TIP3   OH245840   0.462   6.664   2.944 -0.5785 -0.0981 -0.2793
 8142TIP3    H145841   0.532   6.633   3.002 -1.6613 -0.6118  0.8032
 8142TIP3    H245842   0.384   6.615   2.972 -1.0759 -0.6624 -2.4495
 8143TIP3   OH245843   3.472   5.761   2.351  0.1357 -0.4276 -0.1983
 8143TIP3    H145844   3.478   5.846   2.394 -0.0102  0.1449 -1.2812
 8143TIP3    H245845   3.484   5.780   2.258  2.6085 -1.8868 -0.2670
 8144TIP3   OH245846   6.252   4.703   3.598  0.2983  0.4834 -0.8579
 8144TIP3    H145847   6.232   4.634   3.536  0.0887  1.1112 -1.5056
 8144TIP3    H245848   6.248   4.784   3.546  1.4248  0.9019 -0.3256
 8145TIP3   OH245849   3.316   0.483   3.063  0.3297 -0.8455 -0.1906
 8145TIP3    H145850   3.233   0.455   3.101 -0.6103 -0.5662 -1.9218
 8145TIP3    H245851   3.315   0.448   2.974  0.8288  1.4090 -1.1686
 8146TIP3   OH245852   2.337   0.485   2.950  0.4183 -0.3915 -0.1969
 8146TIP3    H145853   2.407   0.548   2.933  1.7952 -2.0837 -1.0442
 8146TIP3    H245854   2.263   0.518   2.899  0.1288  2.0524  1.5983
 8147TIP3   OH245855   5.724   1.343  14.684  0.0766 -0.3596 -0.5645
 8147TIP3    H145856   5.654   1.375  14.740  0.5541  1.2191 -0.8267
 8147TIP3    H245857   5.680   1.317  14.603 -0.4790 -1.6382  0.1268
 8148TIP3   OH245858   3.512   3.263   0.527  0.3227  0.4620  0.0057
 8148TIP3    H145859   3.472   3.244   0.441 -0.8014  0.9413  0.4037
 8148TIP3    H245860   3.439   3.294   0.580  0.3978 -2.4109  2.0048
 8149TIP3   OH245861   6.383   1.584   5.065  0.4229  0.0286 -0.1129
 8149TIP3    H145862   6.474   1.591   5.095  1.4936 -2.8467 -2.2882
 8149TIP3    H245863   6.333   1.563   5.145  1.7254  1.0435  1.0131
 8150TIP3   OH245864   1.961   4.559   3.394  0.4564 -0.0381 -0.1700
 8150TIP3    H145865   2.029   4.592   3.452  0.7809 -0.7158 -0.1437
 8150TIP3    H245866   1.880   4.597   3.427  0.8123  0.7330 -0.1660
 8151TIP3   OH245867   3.675   0.010  14.053 -0.1328  0.2268 -0.0373
 8151TIP3    H145868   3.682  -0.021  14.143  1.5235 -0.5864 -0.4017
 8151TIP3    H245869   3.702   0.102  14.057 -0.9108  0.4416  0.4113
 8152TIP3   OH245870   5.155   5.111   3.106  0.0740  0.0863 -0.3247
 8152TIP3    H145871   5.229   5.072   3.152 -0.1163  0.6649  0.5025
 8152TIP3    H245872   5.122   5.041   3.049  0.6794 -0.4624 -0.0125
 8153TIP3   OH245873   1.355   0.415   1.510 -0.0702 -0.6028  0.0107
 8153TIP3    H145874   1.290   0.482   1.530 -0.2846 -1.0191  0.7742
 8153TIP3    H245875   1.373   0.374   1.594 -0.4772 -1.9751 -0.5444
 8154TIP3   OH245876   0.912   6.189   5.906 -0.0613  0.5861  0.4714
 8154TIP3    H145877   0.998   6.225   5.927  0.8497 -1.6547  0.9189
 8154TIP3    H245878   0.858   6.209   5.982  0.1178  1.7809  0.3015
 8155TIP3   OH245879   2.679   2.429   1.878 -0.0933 -0.0144 -0.7462
 8155TIP3    H145880   2.754   2.419   1.936  0.1223  0.7443 -0.8862
 8155TIP3    H245881   2.707   2.389   1.795 -0.3179 -0.8876 -0.4104
 8156TIP3   OH245882   4.028   0.104  16.988  0.3061  0.3750 -0.4298
 8156TIP3    H145883   4.096   0.167  16.967  0.5645  0.1347 -0.3260
 8156TIP3    H245884   4.074   0.033  17.033 -0.1742  0.6874  0.5747
 8157TIP3   OH245885   6.721   2.688   3.725 -0.2414  0.4440 -0.5021
 8157TIP3    H145886   6.762   2.654   3.804  0.1101  0.3928 -0.7078
 8157TIP3    H245887   6.658   2.753   3.757  0.3046  0.8350 -0.2145
 8158TIP3   OH245888   3.733   0.574  15.814  0.5902  0.3773  0.0732
 8158TIP3    H145889   3.775   0.659  15.799 -1.2104  1.6171  1.6301
 8158TIP3    H245890   3.755   0.552  15.904  0.1501 -0.2809  0.0288
 8159TIP3   OH245891   4.193   3.859   5.879 -0.1214  0.2473 -0.2633
 8159TIP3    H145892   4.207   3.765   5.897 -0.5783 -0.0991 -1.6544
 8159TIP3    H245893   4.274   3.900   5.910 -0.8549 -0.2397  2.6662
 8160TIP3   OH245894   3.195   1.253  12.535  0.3238  0.0996 -0.4331
 8160TIP3    H145895   3.102   1.266  12.521  0.0984 -0.5680  0.3958
 8160TIP3    H245896   3.201   1.180  12.597  1.4099 -0.2541 -0.9269
 8161TIP3   OH245897   3.291   0.762  16.697  0.0604 -0.1018 -0.5006
 8161TIP3    H145898   3.308   0.685  16.642  2.1668 -1.7652  2.1903
 8161TIP3    H245899   3.216   0.736  16.751  1.0388 -0.5073  0.7066
 8162TIP3   OH245900   1.236   0.764   0.320  1.1593  0.2148  0.6807
 8162TIP3    H145901   1.223   0.698   0.387 -0.5389  1.4322  1.6216
 8162TIP3    H245902   1.246   0.715   0.239 -0.0703 -1.1885  1.3419
 8163TIP3   OH245903   3.308   1.245  12.243  0.1261 -0.3925  0.1270
 8163TIP3    H145904   3.316   1.202  12.158  2.7138  0.7538 -0.2971
 8163TIP3    H245905   3.259   1.182  12.297  0.7686 -2.3358 -1.4265
 8164TIP3   OH245906   4.336   4.253   0.809  0.0377 -0.0598  0.0514
 8164TIP3    H145907   4.412   4.197   0.793  0.6433  1.1779 -1.6961
 8164TIP3    H245908   4.371   4.328   0.857 -0.4618 -0.3399  0.8858
 8165TIP3   OH245909   3.716   0.026  14.380 -0.5407 -0.7668  0.1607
 8165TIP3    H145910   3.663   0.102  14.358 -2.4736 -2.1261 -0.1046
 8165TIP3    H245911   3.711   0.020  14.476 -2.0887 -1.6819  0.0512
 8166TIP3   OH245912   5.729   4.208   4.360  0.0784  0.0517  0.4296
 8166TIP3    H145913   5.811   4.158   4.364  0.2126  0.1915 -0.4848
 8166TIP3    H245914   5.729   4.261   4.440 -0.0963 -1.4466  1.4605
 8167TIP3   OH245915   6.646   6.288  11.309 -0.0125  0.4026 -0.1727
 8167TIP3    H145916   6.583   6.358  11.291  0.8928  1.3301  0.1720
 8167TIP3    H245917   6.610   6.242  11.384  0.7255  2.2521  1.3866
 8168TIP3   OH245918   0.666   5.357  13.320  0.3103 -0.5578 -0.6650
 8168TIP3    H145919   0.707   5.430  13.365 -1.2797 -1.1707  1.9832
 8168TIP3    H245920   0.582   5.393  13.290 -1.2589 -1.5792  2.1497
 8169TIP3   OH245921   3.577   0.295   0.815 -0.5435  0.9505 -0.3426
 8169TIP3    H145922   3.499   0.320   0.766  0.4610  0.8754 -2.0574
 8169TIP3    H245923   3.646   0.353   0.782  0.4529  0.0588  0.1018
 8170TIP3   OH245924   1.110   6.128  11.231  0.0663 -0.0404  0.5443
 8170TIP3    H145925   1.147   6.216  11.235 -0.2993  0.1072  0.7129
 8170TIP3    H245926   1.141   6.093  11.148 -1.3152  0.9391 -0.4385
 8171TIP3   OH245927   2.420   3.002   0.570  0.3051 -0.1234 -0.3083
 8171TIP3    H145928   2.508   2.966   0.580  0.6248  0.9587  1.2006
 8171TIP3    H245929   2.420   3.081   0.624 -1.9093 -0.6556  0.5969
 8172TIP3   OH245930   5.402   5.358  15.287  0.1541  0.1566 -0.1556
 8172TIP3    H145931   5.403   5.264  15.266  1.1719  0.3047 -0.8522
 8172TIP3    H245932   5.310   5.377  15.305 -0.2292 -0.7694 -0.9976
 8173TIP3   OH245933   1.319   2.627  14.168  0.4929  0.0484 -0.2890
 8173TIP3    H145934   1.299   2.707  14.118 -0.3283 -0.0406 -0.1197
 8173TIP3    H245935   1.289   2.556  14.111 -1.0568 -0.0276  0.5832
 8174TIP3   OH245936   1.586   0.025   5.991  0.0001 -0.7631 -0.2339
 8174TIP3    H145937   1.495   0.055   5.996 -0.5222 -2.2284 -0.3713
 8174TIP3    H245938   1.621   0.038   6.078 -0.5173 -0.6949 -0.0319
 8175TIP3   OH245939   3.821   5.671  12.611 -0.4015  0.0945 -0.5885
 8175TIP3    H145940   3.731   5.703  12.608 -1.1135 -1.7127  0.0862
 8175TIP3    H245941   3.831   5.635  12.699  1.0029  0.3015 -0.6405
 8176TIP3   OH245942   6.287   0.098   6.081  0.1114  0.0594 -0.0361
 8176TIP3    H145943   6.354   0.069   6.143  0.9723  1.0527 -0.4592
 8176TIP3    H245944   6.227   0.025   6.075  0.9263 -0.7050  0.6910
 8177TIP3   OH245945   3.565   6.110  12.190 -0.1251  0.4486 -0.3393
 8177TIP3    H145946   3.648   6.093  12.144  0.7250  2.5530  0.3351
 8177TIP3    H245947   3.503   6.133  12.120  0.2309  0.2653 -0.7195
 8178TIP3   OH245948   6.303   1.497   0.482 -0.2270  0.0062  0.0187
 8178TIP3    H145949   6.230   1.507   0.421 -1.2921 -1.0734  1.0676
 8178TIP3    H245950   6.374   1.548   0.443 -1.0401 -0.2083 -1.8208
 8179TIP3   OH245951   6.730   4.576  15.204  0.5065  0.0809 -0.5147
 8179TIP3    H145952   6.691   4.583  15.117 -0.2455  0.1215 -0.1815
 8179TIP3    H245953   6.743   4.666  15.232 -0.4292  0.0879 -0.0745
 8180TIP3   OH245954   0.800   5.351   0.009  0.9559 -0.0221 -0.8568
 8180TIP3    H145955   0.846   5.279  -0.034 -0.6144 -1.1259 -0.7743
 8180TIP3    H245956   0.854   5.374   0.084  0.4647 -2.5922  0.3673
 8181TIP3   OH245957   2.082   4.187  11.970 -0.0900  0.6902  0.1773
 8181TIP3    H145958   2.151   4.129  12.003 -0.6757  0.1028  0.4172
 8181TIP3    H245959   2.036   4.216  12.049 -0.4961  0.5812 -0.0186
 8182TIP3   OH245960   3.330   0.469  16.987  0.5137  0.4958 -0.4634
 8182TIP3    H145961   3.298   0.507  16.905 -0.9354  1.2189  0.3762
 8182TIP3    H245962   3.409   0.519  17.008  1.4354 -0.3218 -1.8509
 8183TIP3   OH245963   6.551   0.632   3.607 -0.0255 -0.4617  0.1420
 8183TIP3    H145964   6.560   0.551   3.556  2.0566  0.6505 -1.4130
 8183TIP3    H245965   6.539   0.701   3.542  0.6391  0.7588  1.2558
 8184TIP3   OH245966   1.565   5.984  16.933  0.5116  0.0465  0.4475
 8184TIP3    H145967   1.555   5.931  16.853 -2.0788  2.4145 -0.9996
 8184TIP3    H245968   1.510   5.940  16.997 -2.4680  1.3288 -1.0415
 8185TIP3   OH245969   2.412   1.368  13.881 -0.3096 -0.9091 -0.0156
 8185TIP3    H145970   2.351   1.442  13.880  0.0016 -0.5636  2.1995
 8185TIP3    H245971   2.362   1.297  13.919  0.0420 -1.2395 -0.1680
 8186TIP3   OH245972   1.318   5.662  14.981 -0.6371  0.1149 -0.1628
 8186TIP3    H145973   1.235   5.678  15.026 -0.2221 -2.8726  1.9859
 8186TIP3    H245974   1.384   5.660  15.051  0.5845 -1.4838 -1.2776
 8187TIP3   OH245975   2.740   5.651   1.619  0.2786  0.4577  0.3134
 8187TIP3    H145976   2.801   5.606   1.677 -1.2973  0.9569  2.4843
 8187TIP3    H245977   2.749   5.744   1.641 -0.5240  0.6320 -0.0312
 8188TIP3   OH245978   0.156   3.278   2.167  0.2954  0.0234  0.1965
 8188TIP3    H145979   0.100   3.320   2.232 -0.8394 -0.9263 -0.1469
 8188TIP3    H245980   0.223   3.233   2.219 -0.6146 -0.7402  0.7220
 8189TIP3   OH245981   4.750   1.032   0.482  0.3052 -0.3034 -0.5629
 8189TIP3    H145982   4.833   0.990   0.459  1.4608  0.9775  1.0569
 8189TIP3    H245983   4.774   1.098   0.546 -2.2602 -1.2471  1.5116
 8190TIP3   OH245984   6.563   0.592  16.707 -0.3285  0.1997  0.3133
 8190TIP3    H145985   6.601   0.664  16.757  1.2757 -0.9328  0.8181
 8190TIP3    H245986   6.474   0.583  16.740 -0.2765  1.3992  0.8218
 8191TIP3   OH245987   0.354   2.966   1.471 -0.4521  0.0469 -0.2309
 8191TIP3    H145988   0.442   2.967   1.434  0.0730  1.3089  0.9614
 8191TIP3    H245989   0.347   3.049   1.519 -3.2858  1.3015 -2.5414
 8192TIP3   OH245990   6.160   3.231  15.452  0.5908  0.2820 -0.1911
 8192TIP3    H145991   6.126   3.270  15.372  1.0055  0.9136 -0.0727
 8192TIP3    H245992   6.241   3.280  15.470  0.9130 -0.3664  0.1899
 8193TIP3   OH245993   0.192   6.449   3.662 -0.5701 -0.3258  0.0275
 8193TIP3    H145994   0.202   6.512   3.734  0.5119 -1.4399  0.8893
 8193TIP3    H245995   0.106   6.409   3.677 -0.6441 -0.0634  0.3107
 8194TIP3   OH245996   2.049   5.274  16.571 -0.6661  0.1244 -0.1966
 8194TIP3    H145997   2.017   5.192  16.533 -2.6946  0.3229  0.9548
 8194TIP3    H245998   2.107   5.247  16.642  1.4874 -0.2410 -1.9780
 8195TIP3   OH245999   3.817   0.369  12.340 -0.3143  0.5111 -0.1001
 8195TIP3    H146000   3.749   0.408  12.395 -0.9846  0.6623 -1.0094
 8195TIP3    H246001   3.800   0.275  12.345  0.2128  0.4507  0.6918
 8196TIP3   OH246002   3.083   5.770  12.201 -0.0533 -0.6704  0.0423
 8196TIP3    H146003   3.174   5.751  12.178  0.2966  1.8065 -1.0609
 8196TIP3    H246004   3.089   5.847  12.258 -1.4442 -0.7718  0.3572
 8197TIP3   OH246005   4.367   4.356   1.512  0.2446 -0.3146 -0.2260
 8197TIP3    H146006   4.403   4.363   1.601  1.9616 -2.1889 -0.7046
 8197TIP3    H246007   4.354   4.447   1.485  1.3260  0.3472  1.3039
 8198TIP3   OH246008   0.330   3.362  15.710 -0.0449 -0.3359  0.7854
 8198TIP3    H146009   0.331   3.382  15.616  2.6663  0.4701  0.8959
 8198TIP3    H246010   0.384   3.431  15.749 -0.7131 -0.9466  2.8913
 8199TIP3   OH246011   1.143   4.069  11.210  0.1876 -0.0206 -0.2367
 8199TIP3    H146012   1.049   4.052  11.211  0.3684 -1.0509 -0.0396
 8199TIP3    H246013   1.172   4.040  11.123  0.4060 -0.1848 -0.1103
 8200TIP3   OH246014   0.468   2.929  11.275  0.4253 -0.2935  0.0985
 8200TIP3    H146015   0.429   2.967  11.196  2.0711  2.7695  0.6078
 8200TIP3    H246016   0.540   2.874  11.241  0.7786  0.5584 -0.5700
 8201TIP3   OH246017   3.146   2.828  12.953  0.0421  0.2507 -0.4238
 8201TIP3    H146018   3.159   2.922  12.965 -3.4140  1.0509 -1.8454
 8201TIP3    H246019   3.230   2.789  12.978  1.5905  3.6632  0.2655
 8202TIP3   OH246020   3.372   2.882  15.974  0.5581  0.3509  0.5998
 8202TIP3    H146021   3.449   2.844  15.932  2.2158  2.2005  1.7812
 8202TIP3    H246022   3.343   2.815  16.036 -0.6435 -1.5328 -1.8017
 8203TIP3   OH246023   1.584   1.519   3.048 -0.3797 -0.1644  0.3494
 8203TIP3    H146024   1.598   1.438   2.999  0.5277  0.6014 -0.7159
 8203TIP3    H246025   1.489   1.535   3.042 -0.2634  0.0345 -1.4016
 8204TIP3   OH246026   3.480   3.562  16.210 -0.3984  0.3671  0.1536
 8204TIP3    H146027   3.516   3.637  16.258 -0.6824  0.6350 -0.0436
 8204TIP3    H246028   3.465   3.595  16.121  0.5489 -0.2598 -0.2458
 8205TIP3   OH246029   4.350   5.175   0.991 -1.4526  0.8038  0.3438
 8205TIP3    H146030   4.377   5.099   0.940 -1.0726  1.1514  0.0181
 8205TIP3    H246031   4.312   5.138   1.071 -0.3326  0.2932  0.6540
 8206TIP3   OH246032   4.302   5.885   0.227  0.1607 -0.2621 -0.0777
 8206TIP3    H146033   4.215   5.852   0.204 -0.9861  0.0240  3.3304
 8206TIP3    H246034   4.353   5.807   0.244 -0.5466 -0.4406  1.3785
 8207TIP3   OH246035   4.106   1.722  12.658  0.3225  0.2099  0.1824
 8207TIP3    H146036   4.035   1.660  12.643 -0.4463  1.2493 -0.6368
 8207TIP3    H246037   4.138   1.742  12.570  0.9941  0.4933  0.4854
 8208TIP3   OH246038   2.782   0.442   5.869  0.1626  0.0507 -0.1724
 8208TIP3    H146039   2.708   0.501   5.860 -1.2462 -1.5694  0.2724
 8208TIP3    H246040   2.744   0.360   5.900  2.2200 -0.6792  0.5855
 8209TIP3   OH246041   5.365   6.691   0.081 -0.2412  1.0274  0.3232
 8209TIP3    H146042   5.407   6.644   0.153  0.1059  0.8988  0.0371
 8209TIP3    H246043   5.437   6.722   0.027 -0.5309 -0.2616 -0.8511
 8210TIP3   OH246044   6.495   3.740  16.551 -0.1843 -0.1891 -0.1924
 8210TIP3    H146045   6.542   3.701  16.477  1.5750  2.2892 -0.5328
 8210TIP3    H246046   6.410   3.698  16.550  0.4442 -1.6241 -2.4603
 8211TIP3   OH246047   5.613   5.091   0.538 -0.3026  0.1704  0.4280
 8211TIP3    H146048   5.609   5.187   0.543 -2.7258  0.1839 -0.5621
 8211TIP3    H246049   5.524   5.062   0.557  0.3867 -1.9253  0.7811
 8212TIP3   OH246050   3.137   4.905   5.432 -0.3322  0.6827 -0.5154
 8212TIP3    H146051   3.055   4.869   5.396  0.3269 -0.5729 -0.8115
 8212TIP3    H246052   3.175   4.832   5.480  0.3584  1.4265  0.0734
 8213TIP3   OH246053   3.159   5.830   3.913  0.4941  0.1548  0.0873
 8213TIP3    H146054   3.093   5.892   3.946 -0.4622 -1.0603  0.5440
 8213TIP3    H246055   3.108   5.756   3.881  1.5388  0.1868 -1.7824
 8214TIP3   OH246056   5.423   5.127  10.762  0.0090 -0.1930  0.4079
 8214TIP3    H146057   5.369   5.076  10.823 -0.2217 -0.9650 -0.4155
 8214TIP3    H246058   5.386   5.215  10.766 -1.1239 -0.6366  0.1039
 8215TIP3   OH246059   5.049   1.473   6.011 -0.1422  0.3168 -0.6320
 8215TIP3    H146060   5.082   1.497   5.924  0.7570 -0.5161 -0.5320
 8215TIP3    H246061   5.124   1.434   6.055 -0.9870 -0.6109  0.0084
 8216TIP3   OH246062   3.667   6.562   1.321  0.2330  0.6199  0.3283
 8216TIP3    H146063   3.759   6.538   1.324  0.3323  0.8578 -0.5149
 8216TIP3    H246064   3.634   6.519   1.242 -0.7113 -0.5816  1.3276
 8217TIP3   OH246065   5.776   5.627   1.353  0.0866 -0.0050  0.1240
 8217TIP3    H146066   5.763   5.646   1.260  0.0977 -0.3368  0.0526
 8217TIP3    H246067   5.803   5.535   1.355 -1.7041 -0.5670  0.5750
 8218TIP3   OH246068   1.206   1.156   3.953  0.1652  0.1009  0.1730
 8218TIP3    H146069   1.237   1.127   4.038  1.2680 -1.0878 -0.6015
 8218TIP3    H246070   1.129   1.101   3.935  0.1719  0.0722  0.2336
 8219TIP3   OH246071   2.947   6.452   2.096  0.0828 -0.5076  0.0641
 8219TIP3    H146072   3.020   6.500   2.056 -0.0899 -1.4262 -1.4068
 8219TIP3    H246073   2.870   6.503   2.072  0.2451  1.2074  2.7151
 8220TIP3   OH246074   1.200   6.631   4.802  0.6666 -0.2158  0.9808
 8220TIP3    H146075   1.134   6.579   4.756 -0.4988  0.0105  2.3346
 8220TIP3    H246076   1.173   6.629   4.894  2.2103  0.4015  1.4908
 8221TIP3   OH246077   3.155   6.177   3.630 -0.1495  0.1055  0.6822
 8221TIP3    H146078   3.200   6.210   3.552  1.5349 -2.3451  0.4921
 8221TIP3    H246079   3.225   6.163   3.694 -1.3581  0.9405  2.2636
 8222TIP3   OH246080   4.688   0.253   1.431  0.6116  0.7344  0.6490
 8222TIP3    H146081   4.760   0.246   1.368 -0.0612 -1.1127  0.0052
 8222TIP3    H246082   4.653   0.164   1.437 -1.2393  1.4587  1.4038
 8223TIP3   OH246083   5.274   5.689   3.252  0.0715  0.0056 -0.0942
 8223TIP3    H146084   5.364   5.670   3.225  0.0908  0.7754 -0.6369
 8223TIP3    H246085   5.221   5.663   3.177 -0.2676 -1.3375  0.5898
 8224TIP3   OH246086   3.782   2.167  13.038 -0.3517 -0.1512  0.1019
 8224TIP3    H146087   3.875   2.188  13.051  0.0436 -2.4482  1.5781
 8224TIP3    H246088   3.774   2.155  12.943  1.1468 -0.9151  0.0317
 8225TIP3   OH246089   3.917   6.804  16.590 -0.1652 -0.0883  0.1876
 8225TIP3    H146090   3.851   6.759  16.643 -0.1266 -0.9466 -0.4749
 8225TIP3    H246091   4.001   6.775  16.627 -0.0917 -2.0634 -1.3800
 8226TIP3   OH246092   2.771   4.416  14.569 -0.2813  0.2741  0.4697
 8226TIP3    H146093   2.726   4.497  14.545  0.5376  1.0001  1.3289
 8226TIP3    H246094   2.734   4.350  14.509 -1.8537  1.0080  0.5687
 8227TIP3   OH246095   5.337   1.097   3.729  0.5720  0.8995  0.1747
 8227TIP3    H146096   5.340   1.136   3.816 -0.2481  1.6568 -0.1235
 8227TIP3    H246097   5.287   1.016   3.740 -0.2064  1.3817  0.2789
 8228TIP3   OH246098   3.914   6.369  15.998  0.0617 -0.0868 -0.2792
 8228TIP3    H146099   3.865   6.375  15.916  0.5221 -0.0601 -0.5533
 8228TIP3    H246100   3.987   6.310  15.978  1.0138  1.0654 -0.3168
 8229TIP3   OH246101   2.100   4.536   1.485  0.2076  0.2608 -0.2114
 8229TIP3    H146102   2.178   4.535   1.540  0.0221  0.0731  0.0451
 8229TIP3    H246103   2.027   4.520   1.545 -0.2018  2.0578 -0.1709
 8230TIP3   OH246104   2.569   1.747   4.955  0.0862 -0.2422  0.0522
 8230TIP3    H146105   2.647   1.791   4.921 -0.2775 -0.2358 -0.8063
 8230TIP3    H246106   2.496   1.803   4.928 -0.3437 -1.1078 -0.6335
 8231TIP3   OH246107   3.049   0.096  14.557 -0.1111  0.0944 -0.3877
 8231TIP3    H146108   2.988   0.073  14.487 -1.8526  0.3794  0.9652
 8231TIP3    H246109   2.996   0.144  14.620  2.3458  4.0830 -1.0053
 8232TIP3   OH246110   0.771   5.036   3.394  0.0598  0.1823  0.1839
 8232TIP3    H146111   0.743   5.072   3.310 -1.1963 -0.3210  0.3716
 8232TIP3    H246112   0.855   4.993   3.374 -0.6144 -0.6395 -1.0033
 8233TIP3   OH246113   4.358   2.541  11.990  0.2326 -0.2030 -0.1870
 8233TIP3    H146114   4.267   2.564  12.008  0.2466  0.2270 -0.6519
 8233TIP3    H246115   4.371   2.563  11.898  1.1096  0.7533  0.1483
 8234TIP3   OH246116   4.039   2.586   4.311  0.2856  0.0979 -0.2291
 8234TIP3    H146117   3.987   2.661   4.282 -1.8872 -0.9932  0.6427
 8234TIP3    H246118   4.056   2.536   4.231  0.4433  0.7294 -0.5952
 8235TIP3   OH246119   6.576   3.513   6.304 -0.1730 -0.3681  0.0203
 8235TIP3    H146120   6.566   3.601   6.268 -0.5795 -0.9745 -1.4487
 8235TIP3    H246121   6.558   3.522   6.397  2.3897  1.5857  0.4572
 8236TIP3   OH246122   0.011   0.197  13.982  0.5376 -0.5982  0.1264
 8236TIP3    H146123  -0.068   0.143  13.977  1.4727 -1.9249 -1.1676
 8236TIP3    H246124   0.040   0.189  14.073 -1.0750  0.3336  0.7527
 8237TIP3   OH246125   2.761   1.898   1.975  0.3580  0.0047  0.0328
 8237TIP3    H146126   2.753   1.913   2.069 -0.5294  0.8403 -0.1643
 8237TIP3    H246127   2.706   1.822   1.957 -0.8884  0.9150 -0.0749
 8238TIP3   OH246128   2.988   1.961   6.152 -0.0379 -0.4503 -0.2062
 8238TIP3    H146129   2.983   1.969   6.057  0.1255 -0.0057 -0.1797
 8238TIP3    H246130   3.078   1.987   6.173  0.0978 -1.0816  0.0177
 8239TIP3   OH246131   3.943   0.342   0.401  0.3708 -0.3855 -0.6250
 8239TIP3    H146132   4.002   0.417   0.409 -1.1238  0.7797 -0.0047
 8239TIP3    H246133   3.907   0.349   0.313  0.4675 -0.5551 -0.6777
 8240TIP3   OH246134   6.335   0.965  11.009 -0.0663  0.7400 -0.3203
 8240TIP3    H146135   6.411   0.968  10.950 -1.8786  1.9198 -2.7247
 8240TIP3    H246136   6.318   1.056  11.031 -0.6787  0.4625  0.3967
 8241TIP3   OH246137   4.465   4.522   5.398  0.1751  0.3426 -0.6876
 8241TIP3    H146138   4.472   4.588   5.467  1.5477  0.2622 -0.7235
 8241TIP3    H246139   4.442   4.573   5.320  0.1512  0.6476 -0.4852
 8242TIP3   OH246140   0.340   1.771  11.768  0.2323 -0.3461  0.1356
 8242TIP3    H146141   0.423   1.799  11.806  0.8617 -2.0193  0.0610
 8242TIP3    H246142   0.315   1.693  11.816  0.4673 -1.8639 -2.0580
 8243TIP3   OH246143   5.336   1.074  15.653 -0.3723  0.3055 -0.6638
 8243TIP3    H146144   5.282   0.996  15.641 -1.2200  0.8545 -0.5346
 8243TIP3    H246145   5.273   1.145  15.667  0.3861  0.9667 -0.4975
 8244TIP3   OH246146   4.674   5.865  15.746 -0.2664 -0.3675 -0.7709
 8244TIP3    H146147   4.675   5.780  15.702 -0.9590 -1.3476  1.0036
 8244TIP3    H246148   4.749   5.861  15.807  0.5309  0.8557 -1.6267
 8245TIP3   OH246149   2.798   0.689  13.428  0.2077  0.1383 -0.0012
 8245TIP3    H146150   2.868   0.743  13.466  1.4088 -1.4291  0.1295
 8245TIP3    H246151   2.842   0.640  13.358 -0.7830 -0.8278  0.0376
 8246TIP3   OH246152   6.225   2.225   1.048 -0.0849 -0.4567  0.1310
 8246TIP3    H146153   6.281   2.226   1.126 -0.3458 -1.7923  0.3579
 8246TIP3    H246154   6.145   2.180   1.076 -0.4988 -0.2747 -0.7126
 8247TIP3   OH246155   1.984   0.968  13.656 -0.4399 -0.5288  0.1141
 8247TIP3    H146156   1.905   0.928  13.691 -0.7945 -0.6778 -0.8338
 8247TIP3    H246157   2.022   0.901  13.599 -0.0634 -0.1745 -0.0589
 8248TIP3   OH246158   2.937   1.091  10.747 -0.0162  0.2100 -0.0970
 8248TIP3    H146159   2.886   1.127  10.674  0.6321  0.9248 -0.2112
 8248TIP3    H246160   2.930   0.996  10.737 -2.9174  0.1916  0.9879
 8249TIP3   OH246161   3.691   0.764   4.056 -0.0389 -0.0870  0.5865
 8249TIP3    H146162   3.771   0.809   4.085 -0.8535  2.6088 -0.9836
 8249TIP3    H246163   3.718   0.715   3.979  0.5537 -1.1434  1.4414
 8250TIP3   OH246164   3.142   1.463  11.907 -0.5845 -0.0005  0.4097
 8250TIP3    H146165   3.186   1.379  11.919 -0.4420  0.0891  0.5240
 8250TIP3    H246166   3.196   1.525  11.956 -1.0105  0.0599  0.8076
 8251TIP3   OH246167   0.026   2.138  10.765  0.1355 -0.0497 -0.2339
 8251TIP3    H146168  -0.032   2.214  10.769  0.6378  0.3023  0.5440
 8251TIP3    H246169   0.035   2.120  10.671 -0.8265  0.1980 -0.3860
 8252TIP3   OH246170   2.869   4.901   5.355 -0.4553  0.3040  0.0916
 8252TIP3    H146171   2.855   4.814   5.392 -0.7792  0.7561  1.0582
 8252TIP3    H246172   2.862   4.960   5.430 -1.3245  1.2657 -0.7187
 8253TIP3   OH246173   0.702   3.857   0.785 -0.1672  0.8870 -0.2073
 8253TIP3    H146174   0.765   3.835   0.716  1.8142  2.0454  1.1633
 8253TIP3    H246175   0.628   3.896   0.738  0.4873  0.3292 -1.7793
 8254TIP3   OH246176   4.554   1.331  13.375 -0.1686 -0.2575  0.0962
 8254TIP3    H146177   4.490   1.260  13.377 -0.0513 -0.4512 -1.7647
 8254TIP3    H246178   4.638   1.289  13.390 -0.3376 -0.1320  1.5578
 8255TIP3   OH246179   4.773   3.077  16.990  0.2995  0.2416 -0.2466
 8255TIP3    H146180   4.694   3.063  16.938 -0.2524 -0.3034  0.7261
 8255TIP3    H246181   4.827   2.999  16.974  0.3562  0.3054 -0.3753
 8256TIP3   OH246182   5.917   0.451   3.049 -0.0960  0.0596  0.2705
 8256TIP3    H146183   5.952   0.527   3.002 -1.0087 -0.5969 -1.5598
 8256TIP3    H246184   5.881   0.488   3.130  2.6138  1.0625  1.1408
 8257TIP3   OH246185   1.440   6.468   1.778  0.9959 -0.2514 -0.4280
 8257TIP3    H146186   1.365   6.452   1.720  1.4603  0.7628 -1.3667
 8257TIP3    H246187   1.428   6.409   1.851 -1.1862  0.4796 -0.1332
 8258TIP3   OH246188   6.409   4.482  16.772  0.1612  0.7692  0.5612
 8258TIP3    H146189   6.427   4.397  16.731 -0.2360  1.6826 -1.6434
 8258TIP3    H246190   6.340   4.464  16.836  0.6543 -0.6846  0.7324
 8259TIP3   OH246191   6.736   3.966  11.074  0.1181  0.2516 -0.1676
 8259TIP3    H146192   6.650   4.010  11.074 -0.6623 -1.1573  0.9322
 8259TIP3    H246193   6.765   3.972  11.165 -0.0416 -1.4636  0.0426
 8260TIP3   OH246194   3.911   0.524   2.643 -0.4972 -0.3110 -0.0803
 8260TIP3    H146195   3.923   0.521   2.548 -0.9378 -1.2023 -0.1266
 8260TIP3    H246196   3.987   0.571   2.675 -0.9346  1.0654 -0.9589
 8261TIP3   OH246197   5.889   0.128   0.418 -0.3300  0.2308 -0.0096
 8261TIP3    H146198   5.944   0.089   0.350 -0.7772  0.5228 -0.5467
 8261TIP3    H246199   5.925   0.216   0.430  0.3172 -0.1240  0.7927
 8262TIP3   OH246200   5.895   3.661   6.729 -0.2410 -0.5895 -0.1216
 8262TIP3    H146201   5.878   3.588   6.669  1.1880  0.4959 -1.9600
 8262TIP3    H246202   5.990   3.670   6.729 -0.3819  1.2528  0.0414
 8263TIP3   OH246203   0.021   0.930  12.857  0.4780 -0.1129 -0.2096
 8263TIP3    H146204   0.031   0.849  12.907 -0.4745  0.2128  0.5384
 8263TIP3    H246205   0.110   0.963  12.846  0.8992 -1.3594 -0.7098
 8264TIP3   OH246206   0.942   6.197  15.318  0.5045  0.0404  0.9597
 8264TIP3    H146207   0.865   6.147  15.292  0.7819 -1.0061  2.0969
 8264TIP3    H246208   0.909   6.259  15.383  0.4836  0.1725  0.8256
 8265TIP3   OH246209   3.021   3.767  16.194  0.2149 -0.4973  0.3240
 8265TIP3    H146210   2.971   3.690  16.167  1.1311 -0.8394 -0.4463
 8265TIP3    H246211   2.999   3.834  16.129 -0.5448 -0.1025  0.9678
 8266TIP3   OH246212   2.055   2.202   5.650 -0.3880  0.0273 -0.7088
 8266TIP3    H146213   1.966   2.170   5.631 -1.0914  0.5712  1.3678
 8266TIP3    H246214   2.096   2.211   5.564 -3.1742  2.1152 -1.9649
 8267TIP3   OH246215   5.819   2.718  14.023 -0.2355 -0.5378  0.3831
 8267TIP3    H146216   5.915   2.723  14.026 -0.1467 -0.9339 -0.9997
 8267TIP3    H246217   5.795   2.674  14.105  0.8383 -1.2500  0.3385
 8268TIP3   OH246218   4.036   0.683  13.036  0.7017 -0.0576  0.4846
 8268TIP3    H146219   4.028   0.777  13.017  2.1389  0.0741  0.4410
 8268TIP3    H246220   3.991   0.640  12.963 -1.4822  0.5802  1.3583
 8269TIP3   OH246221   2.634   1.293   2.419 -0.4075 -0.0526 -0.5831
 8269TIP3    H146222   2.712   1.300   2.364  0.5674  0.8029  0.8165
 8269TIP3    H246223   2.561   1.287   2.358  0.5197  1.8933 -2.0006
 8270TIP3   OH246224   5.638   1.463  16.646 -0.3426 -0.1992  0.0197
 8270TIP3    H146225   5.614   1.470  16.738 -2.4526 -0.5534 -0.4423
 8270TIP3    H246226   5.723   1.506  16.640 -0.4588  0.4264  2.0047
 8271TIP3   OH246227   6.041   6.554  13.786  0.0683 -0.8359  0.1978
 8271TIP3    H146228   5.984   6.628  13.766  0.5757 -1.3767 -4.3240
 8271TIP3    H246229   5.994   6.503  13.852 -1.9990  1.5195  0.6702
 8272TIP3   OH246230   6.733   3.143   6.096 -0.2418 -0.1914 -0.1190
 8272TIP3    H146231   6.696   3.123   6.182 -0.0898 -1.9316 -0.4414
 8272TIP3    H246232   6.791   3.070   6.076  0.1976  0.4843 -1.4412
 8273TIP3   OH246233   4.306   0.735   2.941 -0.3570 -0.3530 -0.2085
 8273TIP3    H146234   4.270   0.800   3.001 -0.1084 -1.0374  0.7009
 8273TIP3    H246235   4.368   0.785   2.887  0.1637  0.0847  0.7744
 8274TIP3   OH246236   6.181   6.578  14.891 -0.2038 -0.0595 -0.1806
 8274TIP3    H146237   6.260   6.524  14.898 -0.8835 -1.5291 -2.6318
 8274TIP3    H246238   6.208   6.664  14.922  2.1428 -0.7157 -0.2101
 8275TIP3   OH246239   1.603   3.909  16.211 -0.1815 -0.3970 -0.8646
 8275TIP3    H146240   1.535   3.973  16.232 -0.6827 -1.2333  0.1635
 8275TIP3    H246241   1.605   3.907  16.115 -0.0839  1.1988 -0.9272
 8276TIP3   OH246242   3.340   3.068  16.251 -0.3609  0.3564 -0.1928
 8276TIP3    H146243   3.418   3.074  16.195 -0.7899 -2.1224 -1.2031
 8276TIP3    H246244   3.315   3.159  16.267  2.0511  1.2103 -0.7913
 8277TIP3   OH246245   4.191   3.813   3.177 -0.9521  0.1995 -0.1237
 8277TIP3    H146246   4.185   3.871   3.102  1.0742  1.5849  0.7100
 8277TIP3    H246247   4.142   3.735   3.151 -0.5724  0.7497 -2.7449
 8278TIP3   OH246248   3.585   2.422   0.888 -0.3171  0.0875 -0.1001
 8278TIP3    H146249   3.595   2.458   0.976 -0.2616 -1.2544  0.4569
 8278TIP3    H246250   3.664   2.449   0.842  0.2711 -0.3228  0.6583
 8279TIP3   OH246251   1.979   5.449  12.157 -0.3332 -0.3191  0.5528
 8279TIP3    H146252   1.892   5.424  12.188 -0.6036 -0.5033 -0.3363
 8279TIP3    H246253   2.027   5.366  12.153 -0.8840 -0.5910 -1.3112
 8280TIP3   OH246254   5.939   2.179   1.080 -0.5498  0.4180  0.1950
 8280TIP3    H146255   5.847   2.165   1.100 -0.7645 -0.5858 -1.3280
 8280TIP3    H246256   5.939   2.210   0.989  0.6951 -1.4991 -0.5286
 8281TIP3   OH246257   0.967   1.774  16.298 -0.4381  0.5103 -0.3135
 8281TIP3    H146258   0.935   1.701  16.246 -1.7988  1.8234 -1.4035
 8281TIP3    H246259   0.948   1.749  16.389  0.8586 -1.2749 -0.4710
 8282TIP3   OH246260   2.954   0.057  12.911 -0.2148  0.1528  0.2306
 8282TIP3    H146261   2.982   0.136  12.866  1.3741 -0.1156  0.7019
 8282TIP3    H246262   3.028   0.033  12.967  0.0064 -2.5378 -1.0405
 8283TIP3   OH246263   0.427   3.473  14.128  0.1578 -0.0949  0.5013
 8283TIP3    H146264   0.467   3.527  14.196 -0.3404  0.8456  0.0693
 8283TIP3    H246265   0.501   3.435  14.081  0.5348  0.7635  0.3832
 8284TIP3   OH246266   0.844   6.715   3.019  0.0211  0.1802  0.1560
 8284TIP3    H146267   0.823   6.693   2.928 -0.6534 -0.9055  0.5551
 8284TIP3    H246268   0.792   6.793   3.037  0.0014  0.2812 -0.3221
 8285TIP3   OH246269   1.909   5.624  12.801 -0.3520  0.2359 -0.4378
 8285TIP3    H146270   1.902   5.659  12.712  1.6254 -0.1027 -0.7640
 8285TIP3    H246271   1.973   5.553  12.794 -1.2383 -0.7632  0.9971
 8286TIP3   OH246272   4.457   4.905  13.887 -0.4064  0.5547  0.1984
 8286TIP3    H146273   4.538   4.865  13.920 -1.5094 -2.4037 -0.3559
 8286TIP3    H246274   4.422   4.952  13.963  1.2594  0.9781  0.7599
 8287TIP3   OH246275   0.020   0.586   3.170 -0.2532  0.0585 -0.9019
 8287TIP3    H146276  -0.012   0.676   3.183  0.6546  0.5126 -1.6605
 8287TIP3    H246277  -0.010   0.563   3.082 -0.2039 -0.2616 -0.8342
 8288TIP3   OH246278   0.854   4.083  14.479  0.3341 -0.4070 -0.1010
 8288TIP3    H146279   0.770   4.127  14.468  0.6820  0.1518 -0.6026
 8288TIP3    H246280   0.919   4.154  14.474  0.7998 -0.7422  0.9482
 8289TIP3   OH246281   0.055   1.123  14.218 -0.2141 -0.5796  0.1192
 8289TIP3    H146282   0.042   1.036  14.181 -0.4458 -0.5476  0.1198
 8289TIP3    H246283   0.148   1.128  14.237 -0.1960 -0.8179  0.0953
 8290TIP3   OH246284   1.883   3.524   4.862  0.0556  0.0995  0.4029
 8290TIP3    H146285   1.972   3.497   4.839 -0.6854 -1.1752 -1.1903
 8290TIP3    H246286   1.891   3.561   4.950  2.0971 -0.2345  0.4090
 8291TIP3   OH246287   3.823   6.013   1.651 -0.0686  0.4615 -0.0779
 8291TIP3    H146288   3.758   6.056   1.706  2.0871  0.2546  2.8314
 8291TIP3    H246289   3.907   6.046   1.683  1.3748 -0.1853 -2.8904
 8292TIP3   OH246290   1.096   3.785   3.879 -0.4551  0.3661 -0.2225
 8292TIP3    H146291   1.148   3.712   3.913 -2.7051 -1.0684  0.2976
 8292TIP3    H246292   1.158   3.859   3.877  1.9145 -1.4890 -0.7858
 8293TIP3   OH246293   2.113   2.313   5.975  0.2989 -0.1233  0.6319
 8293TIP3    H146294   2.087   2.404   5.992 -0.3220 -0.4001  1.2417
 8293TIP3    H246295   2.208   2.314   5.974  0.3450  0.2256  2.5011
 8294TIP3   OH246296   1.247   2.540  14.472  0.8663 -0.0052  0.0829
 8294TIP3    H146297   1.290   2.553  14.387 -0.2610 -0.9418 -0.6665
 8294TIP3    H246298   1.182   2.472  14.455 -0.8231  1.2562  1.1944
 8295TIP3   OH246299   0.437   4.588  13.019 -0.6778 -0.1520 -0.2977
 8295TIP3    H146300   0.369   4.553  13.077 -0.8413  0.4251 -0.1398
 8295TIP3    H246301   0.450   4.678  13.048  2.6314 -1.1593  2.0264
 8296TIP3   OH246302   5.840   3.201   5.747  0.0663  0.0141  0.3985
 8296TIP3    H146303   5.755   3.160   5.763 -0.4701  0.4803 -1.1012
 8296TIP3    H246304   5.867   3.168   5.662 -0.1990  2.3502 -0.6933
 8297TIP3   OH246305   0.440   5.213  11.677  0.3453 -0.2451 -0.2048
 8297TIP3    H146306   0.433   5.220  11.773 -0.5618 -0.4121 -0.2498
 8297TIP3    H246307   0.491   5.290  11.651 -1.7964  1.3957  0.1597
 8298TIP3   OH246308   0.830   6.741  11.614  0.2444  0.0478 -0.4292
 8298TIP3    H146309   0.835   6.818  11.558 -0.0269  0.4995  0.1568
 8298TIP3    H246310   0.919   6.729  11.647  0.3116  0.0383 -0.6105
 8299TIP3   OH246311   3.276   2.442   6.584 -0.2136 -0.2417  0.7387
 8299TIP3    H146312   3.227   2.459   6.664  1.0480  0.1097  1.4568
 8299TIP3    H246313   3.358   2.490   6.595 -0.3185  0.4300 -1.0910
 8300TIP3   OH246314   1.944   5.817   4.242 -0.8207 -0.2298  0.6378
 8300TIP3    H146315   1.884   5.889   4.262 -1.2289 -0.5182  0.4446
 8300TIP3    H246316   1.915   5.745   4.297 -1.7106 -0.9071 -0.6750
 8301TIP3   OH246317   6.060   1.614  14.171 -0.4678  0.4508  0.0186
 8301TIP3    H146318   6.054   1.690  14.229 -4.3242 -1.2147  2.1902
 8301TIP3    H246319   5.977   1.614  14.123 -1.3180 -3.1326  1.2368
 8302TIP3   OH246320   0.567   0.961   5.747 -0.3915 -0.5193 -0.7872
 8302TIP3    H146321   0.513   0.888   5.775 -1.6417  0.5850 -0.1994
 8302TIP3    H246322   0.629   0.974   5.819 -0.9257 -0.2696 -0.3694
 8303TIP3   OH246323   5.230   0.098   1.064 -0.1460 -0.0306  0.1408
 8303TIP3    H146324   5.217   0.087   0.970 -0.8140 -1.1420  0.3441
 8303TIP3    H246325   5.325   0.105   1.075 -0.1080  0.9390 -0.6889
 8304TIP3   OH246326   0.699   3.213  11.231 -0.5060  0.1154  0.1542
 8304TIP3    H146327   0.650   3.181  11.307 -0.8033  0.9599  0.3257
 8304TIP3    H246328   0.778   3.252  11.268 -1.7307  2.6414  0.2701
 8305TIP3   OH246329   2.026   0.204  14.510  1.1844  0.4701  0.6502
 8305TIP3    H146330   1.969   0.260  14.562  2.0023  2.5256 -0.4962
 8305TIP3    H246331   1.967   0.144  14.465 -0.0043  1.8400  0.2978
 8306TIP3   OH246332   3.465   2.088   2.552 -0.5147 -0.0552  0.2646
 8306TIP3    H146333   3.471   2.173   2.508  0.4423 -0.7684 -1.0354
 8306TIP3    H246334   3.416   2.107   2.633  1.6007  2.1696  1.1494
 8307TIP3   OH246335   3.803   0.776   0.899 -0.6469  0.3407  0.2967
 8307TIP3    H146336   3.750   0.764   0.820 -1.4512  1.0721  0.7068
 8307TIP3    H246337   3.800   0.870   0.916 -0.4214  0.2020  1.1495
 8308TIP3   OH246338   0.413   4.446  14.619  0.7369 -0.1733 -0.3927
 8308TIP3    H146339   0.419   4.503  14.696  2.8126  1.6337 -1.7781
 8308TIP3    H246340   0.451   4.363  14.647 -1.8294 -0.8263  1.5019
 8309TIP3   OH246341   3.076   4.513  13.551 -0.3916 -0.0676 -0.2838
 8309TIP3    H146342   3.091   4.422  13.575 -1.6257 -0.1680  0.1807
 8309TIP3    H246343   3.014   4.545  13.616 -0.4341  0.9329 -0.7953
 8310TIP3   OH246344   4.417   1.557   4.657  0.4089 -0.5134  1.0596
 8310TIP3    H146345   4.355   1.537   4.587  0.3571  0.0259  0.9471
 8310TIP3    H246346   4.498   1.581   4.611 -0.3025  2.2173  1.0732
 8311TIP3   OH246347   0.513   4.661  11.130  0.0293 -0.3951  0.4467
 8311TIP3    H146348   0.439   4.648  11.070  1.6863 -0.1873 -1.7531
 8311TIP3    H246349   0.585   4.613  11.091  1.3596  0.2325  2.0083
 8312TIP3   OH246350   1.637   5.605  12.903 -0.0358  0.0365  0.4032
 8312TIP3    H146351   1.704   5.674  12.899  0.2070 -0.2203 -0.0562
 8312TIP3    H246352   1.614   5.589  12.812  1.0558 -1.5903  0.3833
 8313TIP3   OH246353   1.540   3.018   5.173  0.2427 -0.3928  0.7381
 8313TIP3    H146354   1.619   2.988   5.217  0.3603 -1.4091 -0.1188
 8313TIP3    H246355   1.495   3.073   5.237  2.3169  1.3448  0.7944
 8314TIP3   OH246356   2.073   1.891  16.617  0.1296 -0.3061  0.2549
 8314TIP3    H146357   2.064   1.941  16.698 -0.9581  1.4616 -0.9079
 8314TIP3    H246358   1.987   1.851  16.604 -1.3752  3.3103 -2.4023
 8315TIP3   OH246359   1.472   4.086  16.575  0.1267  0.0842 -0.3260
 8315TIP3    H146360   1.467   4.150  16.646  0.4337 -1.5773  1.2824
 8315TIP3    H246361   1.550   4.034  16.595 -0.4523 -1.1799 -1.2197
 8316TIP3   OH246362   1.806   0.444   1.449 -0.3889 -0.3486  0.0328
 8316TIP3    H146363   1.759   0.527   1.443  0.4685  0.1723  0.2980
 8316TIP3    H246364   1.778   0.408   1.533 -0.7458 -0.3188 -0.0699
 8317TIP3   OH246365   6.172   2.030  16.762 -0.2193  0.3252 -0.3955
 8317TIP3    H146366   6.245   2.072  16.715 -0.4341 -0.8750 -1.9062
 8317TIP3    H246367   6.162   2.081  16.842  1.1657  1.5623 -0.9620
 8318TIP3   OH246368   2.638   5.568  16.231  0.4483  0.6719  0.8372
 8318TIP3    H146369   2.549   5.533  16.227  0.8574 -0.2712 -0.5914
 8318TIP3    H246370   2.674   5.534  16.313  0.3449 -1.0817  0.1791
 8319TIP3   OH246371   4.969   5.568  15.887 -0.3944 -0.2913  0.3067
 8319TIP3    H146372   5.011   5.634  15.941 -1.2822 -0.8694  1.7621
 8319TIP3    H246373   5.018   5.568  15.805 -1.1754  3.1036 -0.2836
 8320TIP3   OH246374   5.561   1.350   2.693 -0.4035  0.2542  0.2169
 8320TIP3    H146375   5.500   1.419   2.668  0.3537  0.7280 -0.3611
 8320TIP3    H246376   5.567   1.356   2.789 -0.6954  0.6758  0.2091
 8321TIP3   OH246377   0.420   6.813  11.513  0.1959 -0.6524 -0.5116
 8321TIP3    H146378   0.341   6.808  11.460  1.1416 -3.0671 -1.8457
 8321TIP3    H246379   0.433   6.724  11.546  0.3033  0.4740  2.9459
 8322TIP3   OH246380   4.759   2.010   1.121  0.2978 -0.5373 -0.0117
 8322TIP3    H146381   4.717   1.929   1.091 -1.8639  0.7166 -0.5426
 8322TIP3    H246382   4.768   2.063   1.043  2.5287 -0.5401  0.1753
 8323TIP3   OH246383   4.353   1.136  13.356  0.0801 -0.1829 -0.0114
 8323TIP3    H146384   4.338   1.043  13.369  0.3822 -0.3247 -0.6369
 8323TIP3    H246385   4.284   1.164  13.296 -0.7617  0.2733  1.1267
 8324TIP3   OH246386   3.057   0.211   4.289 -0.5491  0.4706  0.0089
 8324TIP3    H146387   2.983   0.201   4.348  0.6582  0.9206  1.6693
 8324TIP3    H246388   3.051   0.302   4.258  0.1155  0.9799  1.3185
 8325TIP3   OH246389   2.582   2.674  14.409 -0.2200  0.2322  0.4807
 8325TIP3    H146390   2.584   2.694  14.316 -0.0859 -0.5430  0.3096
 8325TIP3    H246391   2.502   2.716  14.441 -1.3551 -1.1488 -0.3996
 8326TIP3   OH246392   5.097   4.681  10.792  0.6053 -0.4957  0.4969
 8326TIP3    H146393   5.129   4.650  10.707 -0.2541 -0.8471  0.2881
 8326TIP3    H246394   5.051   4.606  10.829 -2.3748  0.7059 -0.4449
 8327TIP3   OH246395   2.559   1.511  11.884 -0.0579 -0.3336  0.0075
 8327TIP3    H146396   2.534   1.532  11.794 -1.5447  0.6953  0.6058
 8327TIP3    H246397   2.650   1.482  11.878 -0.0737 -0.1432 -1.7961
 8328TIP3   OH246398   2.120   4.867   4.344 -0.1504  0.0646 -0.0501
 8328TIP3    H146399   2.122   4.857   4.439 -0.4036 -0.6877 -0.1211
 8328TIP3    H246400   2.073   4.950   4.330  0.3893  0.4760  0.4891
 8329TIP3   OH246401   5.195   4.903  11.148 -0.1198 -0.2919 -0.6603
 8329TIP3    H146402   5.122   4.887  11.209  0.9173 -2.0955  0.1834
 8329TIP3    H246403   5.268   4.853  11.184  1.8053  2.0404 -1.0711
 8330TIP3   OH246404   6.227   0.715  10.573  0.0843 -0.0119  0.6542
 8330TIP3    H146405   6.303   0.770  10.556 -0.3410  0.8318  1.4180
 8330TIP3    H246406   6.186   0.705  10.487  0.6627  0.1091  0.3552
 8331TIP3   OH246407   1.734   2.315  12.741 -0.4384  0.1486 -0.2358
 8331TIP3    H146408   1.746   2.334  12.834 -0.2025 -1.1824  0.0206
 8331TIP3    H246409   1.805   2.363  12.698  0.3504 -0.4065  0.4148
 8332TIP3   OH246410   6.328   4.549   5.805 -0.0622 -0.2384 -0.0618
 8332TIP3    H146411   6.253   4.502   5.842 -0.2806  0.2698  0.1490
 8332TIP3    H246412   6.306   4.642   5.814  0.3368 -0.0904 -0.5344
 8333TIP3   OH246413   0.795   1.668   1.202  0.4992 -0.5612 -0.5371
 8333TIP3    H146414   0.717   1.663   1.148  1.2950 -1.3272 -1.6526
 8333TIP3    H246415   0.845   1.741   1.165  0.4176 -0.2091  0.0360
 8334TIP3   OH246416   3.947   5.068  12.588 -0.3249  0.2473  0.2660
 8334TIP3    H146417   4.007   5.138  12.560  0.8352 -0.0007  1.9976
 8334TIP3    H246418   3.987   4.988  12.555 -0.1176  0.1524  0.7426
 8335TIP3   OH246419   1.202   1.195   0.239  0.5295 -0.5663  0.3648
 8335TIP3    H146420   1.197   1.258   0.167 -1.5515 -2.6065 -1.4268
 8335TIP3    H246421   1.295   1.190   0.260  0.7404  3.8004  1.3827
 8336TIP3   OH246422   5.405   0.462   6.283  0.6244 -0.2620  0.4917
 8336TIP3    H146423   5.331   0.511   6.248  0.2206 -1.3509 -0.2145
 8336TIP3    H246424   5.482   0.512   6.255  0.1868  0.9204  1.2965
 8337TIP3   OH246425   1.338   5.416  12.851 -0.5612 -0.5162  0.0600
 8337TIP3    H146426   1.374   5.492  12.806 -1.3990  0.1326  0.4616
 8337TIP3    H246427   1.356   5.432  12.944  0.3722 -1.4205  0.0530
 8338TIP3   OH246428   3.425   1.484   0.484 -0.4426  0.0052  0.0527
 8338TIP3    H146429   3.511   1.448   0.505 -0.0032  0.4883 -0.8685
 8338TIP3    H246430   3.379   1.487   0.568  1.1206  1.5189  0.9139
 8339TIP3   OH246431   2.208   2.014   5.334 -0.2521 -0.5239  0.4573
 8339TIP3    H146432   2.293   2.016   5.289  0.6249 -1.3452  1.9878
 8339TIP3    H246433   2.203   2.098   5.381 -0.0231 -0.6952  0.7951
 8340TIP3   OH246434   6.274   4.290  15.349  0.8837  0.1477  0.2365
 8340TIP3    H146435   6.359   4.281  15.307  0.6563 -1.0511 -0.0049
 8340TIP3    H246436   6.294   4.318  15.439  1.4981  0.3180  0.0506
 8341TIP3   OH246437   5.801   3.464  12.953  0.7653 -0.1871 -0.1944
 8341TIP3    H146438   5.857   3.479  12.876  2.0158  0.9980  0.8964
 8341TIP3    H246439   5.860   3.431  13.020  0.1214  0.8857  0.9338
 8342TIP3   OH246440   4.070   5.544  16.935 -0.2679  0.0434  0.0866
 8342TIP3    H146441   4.086   5.515  16.845  1.1883 -1.8615  0.9016
 8342TIP3    H246442   4.003   5.485  16.968  0.7726 -0.7171  0.9105
 8343TIP3   OH246443   2.390   3.820  15.076  0.3369 -0.3149 -0.2861
 8343TIP3    H146444   2.328   3.763  15.121  0.4698 -1.7820 -1.8744
 8343TIP3    H246445   2.343   3.852  15.000  1.0077 -0.1578 -0.6423
 8344TIP3   OH246446   6.309   0.267   5.833  0.5395 -0.0710  0.1747
 8344TIP3    H146447   6.398   0.251   5.865 -0.1590  2.4080  4.1137
 8344TIP3    H246448   6.254   0.207   5.883 -0.2681  0.5897  0.0969
 8345TIP3   OH246449   0.382   4.201  11.653  0.1180 -0.3410 -0.1045
 8345TIP3    H146450   0.468   4.169  11.625 -0.8028 -2.1244 -1.0839
 8345TIP3    H246451   0.363   4.151  11.732 -0.0865 -0.0401  0.0375
 8346TIP3   OH246452   0.060   1.642   3.267 -0.1012 -0.2435  0.0055
 8346TIP3    H146453   0.139   1.607   3.227 -0.9128 -1.6943 -0.4260
 8346TIP3    H246454   0.067   1.617   3.359  0.0935 -0.0791  0.0357
 8347TIP3   OH246455   2.458   3.030   0.917  0.2333 -0.2292  0.0321
 8347TIP3    H146456   2.449   2.934   0.913 -0.4001 -0.1623 -0.2752
 8347TIP3    H246457   2.515   3.052   0.843  1.3917 -0.4770  0.8280
 8348TIP3   OH246458   6.698   5.924   5.645  0.9208 -0.7154  0.2289
 8348TIP3    H146459   6.714   5.973   5.726  0.3989 -0.3855  0.1435
 8348TIP3    H246460   6.636   5.979   5.597  1.7563 -0.5810 -0.7049
 8349TIP3   OH246461   3.844   3.092   1.365 -0.0525 -0.1678  0.3267
 8349TIP3    H146462   3.792   3.078   1.286  1.5694 -0.7563 -0.6860
 8349TIP3    H246463   3.797   3.043   1.433 -0.6424 -0.9496 -0.6205
 8350TIP3   OH246464   1.840   0.925   3.079 -0.2446 -0.1115  0.3660
 8350TIP3    H146465   1.754   0.959   3.053  0.0237  0.0963 -0.2736
 8350TIP3    H246466   1.898   0.950   3.007  0.5625  0.6418  1.2529
 8351TIP3   OH246467   4.433   6.136   0.891  0.7482 -0.0729  0.1218
 8351TIP3    H146468   4.450   6.042   0.877  0.3121 -0.0997 -0.2525
 8351TIP3    H246469   4.339   6.141   0.907  0.3846  0.5122 -1.9039
 8352TIP3   OH246470   0.254   2.165   3.248  1.1067  0.8462 -0.7370
 8352TIP3    H146471   0.318   2.161   3.320 -0.7105 -0.4459  0.9306
 8352TIP3    H246472   0.300   2.128   3.173  2.0141 -1.1609  0.7059
 8353TIP3   OH246473   0.829   5.637  10.651  0.2715 -0.1925  0.1134
 8353TIP3    H146474   0.908   5.583  10.641 -0.3726 -1.1511  0.0722
 8353TIP3    H246475   0.833   5.668  10.742  1.7420  1.4890 -0.4730
 8354TIP3   OH246476   3.699   6.374  14.440  0.3280  1.0926 -0.1807
 8354TIP3    H146477   3.673   6.450  14.387 -0.7281  1.2304  0.5033
 8354TIP3    H246478   3.692   6.404  14.530 -1.5694 -0.2326  0.1697
 8355TIP3   OH246479   2.912   1.796  16.795 -0.4141  0.1193  0.1192
 8355TIP3    H146480   2.825   1.792  16.836 -2.2465  0.5576 -3.3230
 8355TIP3    H246481   2.905   1.868  16.731  2.2073 -0.3960 -0.8738
 8356TIP3   OH246482   5.297   0.647   1.492 -0.6382 -0.1678 -0.1960
 8356TIP3    H146483   5.217   0.621   1.446 -1.6944 -0.5019  1.7057
 8356TIP3    H246484   5.368   0.614   1.438 -1.8190 -1.2943 -1.1256
 8357TIP3   OH246485   0.346   3.032  13.990  0.1182 -0.4318  0.1925
 8357TIP3    H146486   0.341   3.038  14.085  0.7937  0.2396  0.1969
 8357TIP3    H246487   0.348   3.123  13.960  1.0630 -0.6296 -0.3888
 8358TIP3   OH246488   2.561   0.995   4.858  0.0616  0.0778 -0.0542
 8358TIP3    H146489   2.573   1.047   4.778  1.0292  1.5140  0.9766
 8358TIP3    H246490   2.544   0.907   4.826  0.5012  0.5861 -1.8511
 8359TIP3   OH246491   0.095   6.031   5.531  0.0397 -0.2272 -0.0120
 8359TIP3    H146492   0.036   5.996   5.598  1.1946 -1.6580  0.3156
 8359TIP3    H246493   0.105   6.124   5.553 -3.1455  0.4371 -0.9241
 8360TIP3   OH246494   6.061   1.607   3.706  0.0532 -0.9551  0.0603
 8360TIP3    H146495   6.000   1.535   3.695 -1.8324  0.3448  1.2633
 8360TIP3    H246496   6.073   1.643   3.618 -0.2460 -1.7452 -0.3096
 8361TIP3   OH246497   1.950   5.435   0.898  0.4763 -0.4295  0.0476
 8361TIP3    H146498   1.942   5.520   0.855  0.0795 -1.6002 -2.3085
 8361TIP3    H246499   2.004   5.383   0.840  0.2579 -1.9828  1.1739
 8362TIP3   OH246500   5.948   2.683   2.839 -0.1605  0.1067 -0.4076
 8362TIP3    H146501   5.986   2.621   2.901  0.0980  0.0637 -0.6082
 8362TIP3    H246502   5.901   2.745   2.894 -0.4136 -0.2591 -0.2031
 8363TIP3   OH246503   1.501   1.709   0.783 -0.0822 -0.7495 -0.2158
 8363TIP3    H146504   1.490   1.661   0.865 -1.4155 -0.2207 -0.0465
 8363TIP3    H246505   1.422   1.689   0.733 -0.7768  1.3245 -0.0675
 8364TIP3   OH246506   2.433   2.564   5.670 -0.3062  0.4056 -0.5146
 8364TIP3    H146507   2.345   2.527   5.662 -0.6206  0.6529  1.3101
 8364TIP3    H246508   2.419   2.658   5.673  0.1773  0.5290 -1.7117
 8365TIP3   OH246509   4.924   6.365  14.069 -0.4750 -0.4872  0.0892
 8365TIP3    H146510   4.991   6.430  14.093 -1.3820 -0.0556  1.5621
 8365TIP3    H246511   4.894   6.329  14.152 -2.7899  0.0645 -0.4219
 8366TIP3   OH246512   5.707   2.343   1.607  0.0624 -0.3662  0.3317
 8366TIP3    H146513   5.683   2.407   1.539  0.9919 -0.8112 -0.4436
 8366TIP3    H246514   5.670   2.378   1.687 -0.7242  0.3874 -0.3359
 8367TIP3   OH246515   4.467   6.256   2.554 -0.3615 -0.8097 -0.1300
 8367TIP3    H146516   4.546   6.305   2.574 -0.4252 -0.6577 -0.2470
 8367TIP3    H246517   4.455   6.198   2.629  0.8375 -2.0945 -0.8844
 8368TIP3   OH246518   2.383   1.030   0.625 -0.3878  0.8981  0.4058
 8368TIP3    H146519   2.375   0.998   0.715  0.2978  0.8699  0.4592
 8368TIP3    H246520   2.380   0.950   0.571  0.0562  0.8462  0.4580
 8369TIP3   OH246521   4.497   5.335  10.741  0.2960 -0.0548  0.3325
 8369TIP3    H146522   4.447   5.345  10.660 -1.2092  0.2277  1.2525
 8369TIP3    H246523   4.552   5.413  10.745  0.0831  0.1261 -0.2221
 8370TIP3   OH246524   3.225   1.146   1.089  0.2056  0.6697 -0.1313
 8370TIP3    H146525   3.299   1.129   1.147 -0.4309 -1.1580  0.2299
 8370TIP3    H246526   3.264   1.159   1.003  0.9214 -2.2932 -0.3547
 8371TIP3   OH246527   1.827   6.760   4.650 -0.7993 -0.3445  0.4451
 8371TIP3    H146528   1.861   6.832   4.597  0.5005  0.8280  2.7146
 8371TIP3    H246529   1.898   6.695   4.651 -0.8678 -0.4173  0.6395
 8372TIP3   OH246530   3.738   3.203   5.147 -0.4064  0.2374 -0.0730
 8372TIP3    H146531   3.787   3.250   5.215 -0.6442 -1.1735  1.1244
 8372TIP3    H246532   3.652   3.245   5.147 -0.5110  0.0546  0.7496
 8373TIP3   OH246533   4.982   5.053  14.664 -0.3758 -0.2763 -0.3442
 8373TIP3    H146534   4.915   5.121  14.650 -0.2871 -0.2950 -0.8994
 8373TIP3    H246535   5.062   5.102  14.683 -0.2425 -0.2042 -1.0449
 8374TIP3   OH246536   1.244   2.221   5.540 -0.4356  0.1947  0.1046
 8374TIP3    H146537   1.283   2.266   5.465  0.9372  0.6154  1.0271
 8374TIP3    H246538   1.216   2.137   5.505  3.1741 -1.0270 -0.2841
 8375TIP3   OH246539   0.732   6.060  14.635 -0.5363  0.8171 -0.0129
 8375TIP3    H146540   0.697   6.103  14.713 -1.0768  0.1308  0.1345
 8375TIP3    H246541   0.738   6.130  14.570 -0.9070  1.2252  0.3840
 8376TIP3   OH246542   3.767   6.034   2.059  0.2124  0.2460  0.0865
 8376TIP3    H146543   3.798   5.951   2.025 -1.3473 -0.8044  1.0971
 8376TIP3    H246544   3.844   6.072   2.103  0.8893 -0.7390 -0.2089
 8377TIP3   OH246545   6.567   5.607  16.444  0.3189  0.4273  0.1445
 8377TIP3    H146546   6.511   5.630  16.518 -0.2244  0.6597 -0.3273
 8377TIP3    H246547   6.543   5.517  16.422  1.2546 -0.0306  0.9273
 8378TIP3   OH246548   6.455   2.408   2.634  0.2407  0.1493  0.4195
 8378TIP3    H146549   6.515   2.402   2.560  0.0304 -0.2610  0.2791
 8378TIP3    H246550   6.437   2.317   2.658  0.8305  0.2713  1.3991
 8379TIP3   OH246551   5.958   3.532   5.407  0.5200 -0.3447 -0.3873
 8379TIP3    H146552   5.930   3.460   5.350  4.0193 -2.0719 -0.1621
 8379TIP3    H246553   5.919   3.512   5.492 -0.5436 -0.5714 -0.9132
 8380TIP3   OH246554   1.938   0.200   5.427 -0.4800 -0.5059  0.5691
 8380TIP3    H146555   1.887   0.146   5.487 -0.2483 -1.0023  0.3262
 8380TIP3    H246556   1.967   0.274   5.480  0.3462 -1.3055  1.2772
 8381TIP3   OH246557   4.056   2.385  11.691 -0.0882 -0.6235 -0.0400
 8381TIP3    H146558   4.112   2.459  11.667 -1.3170  0.3260 -0.0533
 8381TIP3    H246559   4.077   2.317  11.627  0.7084 -0.1259 -0.3247
 8382TIP3   OH246560   2.461   2.148   3.897 -0.2164  0.0379 -0.2924
 8382TIP3    H146561   2.445   2.165   3.990  2.8727 -2.4353  0.8841
 8382TIP3    H246562   2.514   2.223   3.868 -1.8335  1.2038 -0.3490
 8383TIP3   OH246563   0.182   1.414  14.179 -0.2552 -0.1436  0.5791
 8383TIP3    H146564   0.110   1.475  14.163 -0.5701 -0.5158  0.5665
 8383TIP3    H246565   0.207   1.430  14.270  1.0314  1.4433 -0.0044
 8384TIP3   OH246566   4.967   5.754   6.402  0.1551  0.0800 -0.1350
 8384TIP3    H146567   4.954   5.660   6.419  0.0447  0.3583  1.4993
 8384TIP3    H246568   4.887   5.795   6.436  1.6888  1.0714  2.5314
 8385TIP3   OH246569   0.963   4.334   3.643  0.2494 -0.0910 -0.3786
 8385TIP3    H146570   0.971   4.238   3.641  0.5274 -0.1137  0.9157
 8385TIP3    H246571   1.039   4.363   3.693 -1.2084  0.5917  1.5938
 8386TIP3   OH246572   2.108   4.969  12.400  0.2863  0.3711  0.4649
 8386TIP3    H146573   2.026   4.994  12.442  0.8841  0.0153  1.8826
 8386TIP3    H246574   2.088   4.884  12.359 -0.6025  1.2207 -0.9660
 8387TIP3   OH246575   2.284   4.352  13.512  0.1708  0.2123  0.7393
 8387TIP3    H146576   2.189   4.352  13.519  0.2563 -0.6918  2.3736
 8387TIP3    H246577   2.308   4.260  13.507  0.9594  0.4292  0.4593
 8388TIP3   OH246578   0.692   1.295   0.401  0.2014 -0.0852  0.5785
 8388TIP3    H146579   0.760   1.311   0.466  0.7008 -0.9867  0.2821
 8388TIP3    H246580   0.731   1.235   0.338 -1.0112 -0.9882  0.6530
 8389TIP3   OH246581   5.073   1.983   4.760  0.1967 -0.7614 -0.0676
 8389TIP3    H146582   4.989   2.028   4.752 -0.7427 -1.6532  3.1309
 8389TIP3    H246583   5.051   1.898   4.798  2.1781 -2.9651 -3.2731
 8390TIP3   OH246584   2.099   3.661   4.685  0.1626 -0.1447 -0.2288
 8390TIP3    H146585   2.183   3.661   4.639  0.4649 -1.2023  0.2998
 8390TIP3    H246586   2.082   3.569   4.705 -0.5803  0.1631  0.6450
 8391TIP3   OH246587   0.543   1.679  16.341  0.0106 -0.6499 -0.0117
 8391TIP3    H146588   0.531   1.750  16.404  1.4546  0.0483 -0.4728
 8391TIP3    H246589   0.473   1.617  16.360 -0.3857  0.1955  1.3765
 8392TIP3   OH246590   2.731   3.895   4.977 -0.2309  0.1660 -0.1610
 8392TIP3    H146591   2.761   3.978   5.015  1.3268 -0.3171 -0.2353
 8392TIP3    H246592   2.795   3.877   4.907 -0.0779 -1.4539  0.3583
 8393TIP3   OH246593   1.207   6.373   3.937 -0.4327  0.1646  0.0449
 8393TIP3    H146594   1.248   6.414   4.013 -0.9989  0.4493  0.2007
 8393TIP3    H246595   1.232   6.280   3.943  0.4415  0.3856 -0.0372
 8394TIP3   OH246596   1.606   4.782  11.890  0.3917 -0.7462  0.1169
 8394TIP3    H146597   1.541   4.796  11.959  1.5910 -2.4485  1.6964
 8394TIP3    H246598   1.615   4.867  11.847 -0.2164  0.4468  2.2383
 8395TIP3   OH246599   5.143   3.183   5.576 -0.0983  0.2378  0.0600
 8395TIP3    H146600   5.050   3.159   5.576  0.0436 -0.3826  1.0609
 8395TIP3    H246601   5.144   3.276   5.555 -0.9270  0.1763 -0.2922
 8396TIP3   OH246602   4.932   0.882  15.702 -0.3810  0.9859 -0.0429
 8396TIP3    H146603   4.963   0.972  15.688  0.7933  0.2591 -3.1811
 8396TIP3    H246604   5.011   0.828  15.691 -1.2656 -0.4927  0.5545
 8397TIP3   OH246605   0.611   0.245  10.725  0.0772  0.5695 -0.1549
 8397TIP3    H146606   0.703   0.251  10.751 -0.0122  1.7458 -0.0248
 8397TIP3    H246607   0.613   0.213  10.635  0.3919 -3.6382  1.1515
 8398TIP3   OH246608   0.890   5.101  11.766  0.0352  0.2807 -0.0973
 8398TIP3    H146609   0.834   5.070  11.837 -0.2289  0.3454 -0.2774
 8398TIP3    H246610   0.844   5.177  11.730 -0.8170 -0.9135 -1.6234
 8399TIP3   OH246611   5.066   4.040  11.180 -0.2727  0.1654  0.3338
 8399TIP3    H146612   4.978   4.003  11.187 -1.0244  1.6805 -0.6037
 8399TIP3    H246613   5.067   4.086  11.096  1.1163  0.9158  0.7198
 8400TIP3   OH246614   1.614   3.575  11.250 -0.2865 -0.0539 -0.2978
 8400TIP3    H146615   1.675   3.645  11.272  0.9888 -1.6202  1.4638
 8400TIP3    H246616   1.553   3.615  11.188  0.3160  2.6182  0.7037
 8401TIP3   OH246617   3.104   0.428   3.951 -0.1083 -0.5131  0.0974
 8401TIP3    H146618   3.032   0.374   3.917  1.4420 -1.4103 -1.9729
 8401TIP3    H246619   3.107   0.503   3.892  1.4407 -1.1370 -0.6508
 8402TIP3   OH246620   2.953   4.358  13.786 -0.0175  0.8697 -0.2699
 8402TIP3    H146621   2.895   4.323  13.853 -2.4095 -0.8872 -3.0210
 8402TIP3    H246622   2.943   4.453  13.791 -1.2660  0.6958  0.9064
 8403TIP3   OH246623   4.406   6.064   2.361 -0.5404  0.3158 -0.5292
 8403TIP3    H146624   4.452   6.115   2.427  1.6497 -1.1668 -0.7984
 8403TIP3    H246625   4.333   6.120   2.334  1.2764  2.9604 -0.3034
 8404TIP3   OH246626   4.752   5.419   3.758  0.4818 -0.4568  0.1980
 8404TIP3    H146627   4.699   5.497   3.740  0.6585 -0.5762 -0.9105
 8404TIP3    H246628   4.841   5.446   3.738  0.5459 -0.9351 -0.1843
 8405TIP3   OH246629   1.818   4.808  13.331  0.0013 -0.4853  0.5187
 8405TIP3    H146630   1.891   4.860  13.298 -0.4246 -0.0714  0.2195
 8405TIP3    H246631   1.842   4.789  13.422  0.7116 -0.7783  0.2804
 8406TIP3   OH246632   5.429   1.386  14.759 -0.2998 -0.2535 -0.6651
 8406TIP3    H146633   5.335   1.366  14.761 -0.6261  1.1919 -0.2994
 8406TIP3    H246634   5.444   1.423  14.672 -0.0653 -0.4238 -0.6994
 8407TIP3   OH246635   5.428   3.640   2.453 -0.5378  0.1880 -0.7797
 8407TIP3    H146636   5.339   3.606   2.456 -0.7749  0.7728 -0.9114
 8407TIP3    H246637   5.420   3.724   2.407 -0.1204  0.8684  0.3426
 8408TIP3   OH246638   0.745   2.329  15.684  0.0119 -0.4505 -0.1962
 8408TIP3    H146639   0.806   2.341  15.611 -1.4961 -0.5439 -1.4989
 8408TIP3    H246640   0.662   2.305  15.643 -1.5971  2.0093  1.3681
 8409TIP3   OH246641   1.843   5.254  13.229 -0.6860  0.2692 -0.1878
 8409TIP3    H146642   1.921   5.290  13.186 -0.4416 -0.3035 -0.2334
 8409TIP3    H246643   1.769   5.295  13.184 -0.4229  0.0044 -0.8691
 8410TIP3   OH246644   4.546   2.449   6.395  0.8860 -0.1195  0.0006
 8410TIP3    H146645   4.501   2.393   6.458  1.3592 -2.1963 -1.4408
 8410TIP3    H246646   4.610   2.497   6.448  0.2224 -0.6372  1.3303
 8411TIP3   OH246647   4.849   0.226  13.804 -0.1067 -0.0955  0.7554
 8411TIP3    H146648   4.877   0.135  13.801 -0.4464 -0.1813 -0.4761
 8411TIP3    H246649   4.759   0.225  13.770 -0.6032  0.5341  1.9925
 8412TIP3   OH246650   0.224   0.556  16.803  0.0826 -0.1633  0.6475
 8412TIP3    H146651   0.234   0.581  16.895  0.8585  1.7991  0.0745
 8412TIP3    H246652   0.304   0.508  16.783  0.0821 -0.2660  0.8798
 8413TIP3   OH246653   6.672   2.949  15.810 -1.0437  0.3944 -0.3094
 8413TIP3    H146654   6.703   2.902  15.733 -0.3836  1.0442 -0.4499
 8413TIP3    H246655   6.726   3.029  15.813 -1.4196  0.6272  0.5204
 8414TIP3   OH246656   2.979   6.752  16.684  0.3185  0.2355  0.3809
 8414TIP3    H146657   2.978   6.822  16.749  2.0500  0.5867  0.0850
 8414TIP3    H246658   2.981   6.798  16.600 -2.5232 -0.2057 -0.0250
 8415TIP3   OH246659   0.349   1.598   1.693 -0.1237  0.3253  0.5686
 8415TIP3    H146660   0.278   1.654   1.662 -1.7684 -1.2371  1.3743
 8415TIP3    H246661   0.330   1.583   1.785  0.8897 -0.6396  0.6412
 8416TIP3   OH246662   3.311   2.378  15.134 -0.0943 -0.0273  0.4343
 8416TIP3    H146663   3.236   2.336  15.092 -0.4491 -0.5519  1.5386
 8416TIP3    H246664   3.383   2.367  15.073 -0.4126 -1.3983  0.2806
 8417TIP3   OH246665   0.147   1.850   0.630  0.3286 -0.0300 -0.4497
 8417TIP3    H146666   0.178   1.927   0.678  0.9570 -1.1940  1.1041
 8417TIP3    H246667   0.227   1.800   0.613  0.0175  0.0051 -2.1294
 8418TIP3   OH246668   5.530   4.398  13.297 -0.1546 -0.0305  0.1537
 8418TIP3    H146669   5.524   4.320  13.242  0.5243 -0.2520  0.3832
 8418TIP3    H246670   5.601   4.379  13.358 -0.2900  0.5839  0.5155
 8419TIP3   OH246671   3.499   0.380  12.698  0.1611  0.0111 -0.1051
 8419TIP3    H146672   3.460   0.441  12.760 -1.8374 -0.4750 -0.8300
 8419TIP3    H246673   3.429   0.317  12.678  0.9810 -0.3048 -2.2451
 8420TIP3   OH246674   1.538   6.005   1.049 -0.2135 -0.0411 -0.0667
 8420TIP3    H146675   1.496   6.006   1.135 -0.0677  0.6303  0.0012
 8420TIP3    H246676   1.471   6.038   0.989 -0.5374 -1.1238 -0.3273
 8421TIP3   OH246677   5.383   2.292  11.759 -0.2831  0.2274  0.3805
 8421TIP3    H146678   5.377   2.196  11.753  0.7158  0.1239  0.7082
 8421TIP3    H246679   5.382   2.322  11.668  1.8486 -0.3132  0.1063
 8422TIP3   OH246680   5.538   3.156  16.361 -0.5939  0.0982  0.1290
 8422TIP3    H146681   5.497   3.074  16.389  0.8498 -0.4804  0.6703
 8422TIP3    H246682   5.466   3.209  16.329 -1.4846 -1.6717 -0.9838
 8423TIP3   OH246683   5.583   4.053  12.147  0.4935 -0.4311 -0.3349
 8423TIP3    H146684   5.673   4.070  12.176  0.0414  0.1116  0.8056
 8423TIP3    H246685   5.562   4.129  12.092  0.7295 -0.5672 -0.6194
 8424TIP3   OH246686   1.976   0.612   5.216  1.0174 -0.8154  0.2029
 8424TIP3    H146687   1.919   0.561   5.158  0.4164  1.6832 -1.5745
 8424TIP3    H246688   1.927   0.619   5.298  0.0345 -1.0597 -0.3468
 8425TIP3   OH246689   4.905   1.921  11.917  0.4533  0.0771  0.1895
 8425TIP3    H146690   4.896   2.005  11.962  0.8059  0.1958  0.0461
 8425TIP3    H246691   4.970   1.938  11.848  1.0673 -0.4967  0.6104
 8426TIP3   OH246692   2.456   3.947  16.571 -0.2174 -0.1382  0.3729
 8426TIP3    H146693   2.450   4.042  16.581 -0.7820 -0.2916  1.6444
 8426TIP3    H246694   2.549   3.931  16.553  0.1208  0.5624  1.3969
 8427TIP3   OH246695   6.811   3.279  17.008 -0.3061 -0.4559 -0.5208
 8427TIP3    H146696   6.723   3.309  17.028  0.1428  0.5334  0.0273
 8427TIP3    H246697   6.868   3.354  17.028  0.5834 -0.8057 -1.6087
 8428TIP3   OH246698   6.650   0.660   4.075  0.3678  0.0973 -0.3002
 8428TIP3    H146699   6.640   0.577   4.122  1.5977  0.8945  1.4839
 8428TIP3    H246700   6.689   0.720   4.140  2.6523  1.1288 -2.4466
 8429TIP3   OH246701   4.791   5.807  15.152  0.5867  0.0858  0.0826
 8429TIP3    H146702   4.726   5.822  15.083  0.1734 -2.2775 -0.1316
 8429TIP3    H246703   4.816   5.894  15.181 -1.6655  1.1006 -0.7948
 8430TIP3   OH246704   4.100   2.932  12.097 -0.2250  0.3230 -0.5748
 8430TIP3    H146705   4.057   2.872  12.157 -1.0129  1.4201  0.0069
 8430TIP3    H246706   4.100   3.016  12.144  3.8328  0.1547  0.0750
 8431TIP3   OH246707   0.944   2.657   3.881  0.1953 -0.7431 -0.3283
 8431TIP3    H146708   0.849   2.665   3.869  0.3240 -0.5011 -1.2806
 8431TIP3    H246709   0.981   2.679   3.795  1.0723 -1.6947 -0.2114
 8432TIP3   OH246710   0.594   2.496  13.706  0.0957  0.8997  0.4237
 8432TIP3    H146711   0.568   2.581  13.671 -0.1034  0.0703 -1.6213
 8432TIP3    H246712   0.689   2.501  13.712  0.2422  0.8255 -1.1634
 8433TIP3   OH246713   6.607   2.684   5.060 -0.2486  0.1359  0.1033
 8433TIP3    H146714   6.629   2.591   5.050 -0.9000  0.1807 -2.4072
 8433TIP3    H246715   6.603   2.698   5.154  2.9075 -1.6456  0.6471
 8434TIP3   OH246716   2.529   4.795   2.305 -0.4752  0.3316  0.0394
 8434TIP3    H146717   2.571   4.797   2.219  2.8322 -0.8199  1.4783
 8434TIP3    H246718   2.533   4.703   2.333  0.9961  1.0434  2.4686
 8435TIP3   OH246719   3.180   4.582  12.707 -0.2752 -0.1357  0.1149
 8435TIP3    H146720   3.207   4.625  12.626  3.3063  0.2292  1.2927
 8435TIP3    H246721   3.253   4.524  12.728 -2.0002 -1.7469  2.0771
 8436TIP3   OH246722   6.340   6.590  12.772 -0.0824  0.1918  0.3415
 8436TIP3    H146723   6.302   6.557  12.691  2.7187 -1.1276 -0.5363
 8436TIP3    H246724   6.333   6.517  12.834 -1.0216  0.7487  0.9224
 8437TIP3   OH246725   2.978   2.369   0.395 -0.3663 -0.3287 -0.1051
 8437TIP3    H146726   2.914   2.305   0.425 -0.1749 -0.0678  0.8669
 8437TIP3    H246727   3.061   2.342   0.435  0.1524 -0.6683 -1.3556
 8438TIP3   OH246728   0.050   2.482   2.035 -0.5479 -0.0926 -0.4581
 8438TIP3    H146729  -0.009   2.555   2.016 -1.0408 -0.0984  0.8920
 8438TIP3    H246730   0.116   2.485   1.966 -2.5692 -0.5892 -2.5222
 8439TIP3   OH246731   2.182   5.054  12.748 -0.4632 -0.1120  0.6346
 8439TIP3    H146732   2.218   5.142  12.751  2.1362 -1.0382 -0.5874
 8439TIP3    H246733   2.102   5.062  12.696 -0.6647  1.5969  1.1548
 8440TIP3   OH246734   2.484   1.716  14.634 -0.3031 -0.5514  0.0292
 8440TIP3    H146735   2.542   1.665  14.690  0.1485  0.9379  0.9758
 8440TIP3    H246736   2.541   1.748  14.564  0.1014  0.9975  1.0158
 8441TIP3   OH246737   6.278   2.081   3.252  0.1939  0.2540  0.2432
 8441TIP3    H146738   6.264   2.176   3.248  0.7646  0.4946  2.6445
 8441TIP3    H246739   6.366   2.071   3.288 -0.3449 -1.1755  1.2607
 8442TIP3   OH246740   1.192   1.205  15.913  0.0234 -0.3581  0.1518
 8442TIP3    H146741   1.166   1.163  15.831  0.3692  0.8555 -0.6136
 8442TIP3    H246742   1.256   1.145  15.951  0.1780 -0.7440 -0.6868
 8443TIP3   OH246743   1.617   6.438  10.970  0.2259 -0.0770  0.0255
 8443TIP3    H146744   1.638   6.456  10.878  0.7571  1.1184  0.3605
 8443TIP3    H246745   1.546   6.498  10.991 -0.8538 -1.3051  0.0405
 8444TIP3   OH246746   6.468   6.427  15.525  0.2046  0.5442  0.3028
 8444TIP3    H146747   6.416   6.505  15.544  1.2730  1.0849  1.0899
 8444TIP3    H246748   6.471   6.380  15.608  0.7282  0.3735  0.1901
 8445TIP3   OH246749   5.978   4.971  16.011  0.2213 -0.4327 -0.0449
 8445TIP3    H146750   6.048   4.953  16.075  0.1191 -0.5108  0.0456
 8445TIP3    H246751   6.020   5.025  15.944  0.7322 -1.6111 -0.7007
 8446TIP3   OH246752   0.923   0.272   1.959  0.1187 -0.1673 -0.5280
 8446TIP3    H146753   0.851   0.279   1.896  1.1886 -0.1571 -1.7683
 8446TIP3    H246754   0.879   0.264   2.044 -1.3436  0.3019 -1.2113
 8447TIP3   OH246755   0.244   3.685  16.425 -0.8474  0.0703  0.1565
 8447TIP3    H146756   0.299   3.722  16.356  0.1242  1.2537  1.5045
 8447TIP3    H246757   0.155   3.708  16.400 -0.5883 -0.1986 -1.0765
 8448TIP3   OH246758   3.867   5.267  16.791 -0.5055  0.1994 -0.5216
 8448TIP3    H146759   3.822   5.208  16.730 -0.0108  1.9962 -2.7438
 8448TIP3    H246760   3.831   5.353  16.772  0.5852  1.0053  0.8803
 8449TIP3   OH246761   3.828   6.274  11.740  0.0699  0.1568 -0.3817
 8449TIP3    H146762   3.785   6.338  11.797 -1.9136 -1.3690 -0.0513
 8449TIP3    H246763   3.919   6.271  11.770  0.3954  3.1498 -0.7739
 8450TIP3   OH246764   6.471   3.921   3.187  0.1692 -0.3815 -0.5129
 8450TIP3    H146765   6.417   3.874   3.251 -2.7139  0.5190 -2.0986
 8450TIP3    H246766   6.445   3.884   3.103  3.0010 -0.7181 -1.3258
 8451TIP3   OH246767   6.487   4.517   1.814 -0.0346 -0.3462 -0.3195
 8451TIP3    H146768   6.548   4.558   1.875  0.3982  0.2360 -1.1131
 8451TIP3    H246769   6.496   4.423   1.829  0.4594 -0.2292  0.1313
 8452TIP3   OH246770   3.901   3.470  15.140  0.4035 -0.4581 -0.4846
 8452TIP3    H146771   3.990   3.440  15.120 -0.1334 -1.5667 -1.3588
 8452TIP3    H246772   3.863   3.400  15.193 -0.1750 -0.3245 -0.7155
 8453TIP3   OH246773   6.695   1.215  14.407 -0.0920  0.2412  0.3183
 8453TIP3    H146774   6.656   1.300  14.387  0.2600 -0.1878 -2.6884
 8453TIP3    H246775   6.749   1.195  14.331  1.2321 -1.9188  1.7065
 8454TIP3   OH246776   2.982   5.060  15.915 -0.8379  0.1542 -0.0562
 8454TIP3    H146777   2.957   5.150  15.940  0.4860  0.2936  0.9092
 8454TIP3    H246778   2.902   5.022  15.880 -1.8970  1.1645  1.1299
 8455TIP3   OH246779   1.982   6.159  16.461  0.2989 -0.0740 -0.1509
 8455TIP3    H146780   1.992   6.233  16.401 -1.3450 -0.4450 -0.9361
 8455TIP3    H246781   2.006   6.195  16.547  1.1903  0.8869 -0.7668
 8456TIP3   OH246782   2.014   2.177   1.836 -0.0266 -0.1179  0.2646
 8456TIP3    H146783   2.024   2.228   1.917 -0.6911 -0.1927  0.3980
 8456TIP3    H246784   2.064   2.097   1.852 -2.0835 -1.2466  1.5691
 8457TIP3   OH246785   2.635   3.742   1.944 -0.3060 -0.2264  0.4521
 8457TIP3    H146786   2.706   3.805   1.932 -0.3184 -0.4241 -0.7379
 8457TIP3    H246787   2.674   3.657   1.922 -0.9681 -0.3016 -0.4848
 8458TIP3   OH246788   4.654   0.877  13.666  0.5258 -0.1511  0.9956
 8458TIP3    H146789   4.586   0.937  13.696  1.0949  1.6338 -1.0650
 8458TIP3    H246790   4.609   0.793  13.654 -0.7461  0.3746  1.8830
 8459TIP3   OH246791   2.832   2.069  14.391  0.1751 -0.0822  0.3473
 8459TIP3    H146792   2.892   2.143  14.383 -0.0116  0.1101  0.6878
 8459TIP3    H246793   2.751   2.099  14.349  0.0379 -0.0215  0.6505
 8460TIP3   OH246794   5.095   0.993  12.594 -0.5312  0.0201 -0.0634
 8460TIP3    H146795   5.021   1.049  12.619  0.3847  1.5219 -0.5727
 8460TIP3    H246796   5.083   0.913  12.646 -1.0819  1.2719  1.8662
 8461TIP3   OH246797   0.349   6.470  14.949 -0.0407 -0.0544 -0.0100
 8461TIP3    H146798   0.262   6.437  14.972  0.2100  0.7875  2.5061
 8461TIP3    H246799   0.401   6.392  14.932 -1.0301 -0.6149 -0.5481
 8462TIP3   OH246800   3.583   6.480   3.181  0.3578 -0.4861 -0.2388
 8462TIP3    H146801   3.552   6.436   3.102  0.8986 -1.3544  0.0153
 8462TIP3    H246802   3.508   6.479   3.240 -0.1904  0.5739 -0.8921
 8463TIP3   OH246803   5.575   6.757  16.401 -0.4814  0.6223 -0.6463
 8463TIP3    H146804   5.497   6.703  16.387 -0.2597  0.3519 -0.8679
 8463TIP3    H246805   5.648   6.695  16.394 -0.2533  0.8581 -0.3538
 8464TIP3   OH246806   0.719   4.978  16.444 -0.4157  0.8617  0.1762
 8464TIP3    H146807   0.800   4.953  16.488 -0.8867  0.7350  0.9797
 8464TIP3    H246808   0.745   5.047  16.383  0.6290 -0.4053 -0.8978
 8465TIP3   OH246809   5.164   2.955  14.477  0.3499 -0.6919  0.0298
 8465TIP3    H146810   5.258   2.973  14.475  0.6631 -2.1883 -0.7320
 8465TIP3    H246811   5.157   2.864  14.446 -1.4508 -0.2000 -1.1713
 8466TIP3   OH246812   1.877   4.357  11.836 -0.0109  0.2768 -0.2277
 8466TIP3    H146813   1.919   4.290  11.890 -0.0512 -1.8188 -2.6131
 8466TIP3    H246814   1.794   4.375  11.881  0.3000 -0.7997  0.8224
 8467TIP3   OH246815   3.877   5.720   0.699 -0.6776  0.3391 -0.2142
 8467TIP3    H146816   3.801   5.662   0.703  0.0912 -0.7001 -0.0567
 8467TIP3    H246817   3.919   5.699   0.615 -0.2167  0.4369 -0.0118
 8468TIP3   OH246818   0.210   4.872  16.032  0.5498 -0.3070  0.6021
 8468TIP3    H146819   0.288   4.826  16.064  1.7101  0.6693 -0.7046
 8468TIP3    H246820   0.169   4.907  16.111  0.5803 -2.0955  1.4597
 8469TIP3   OH246821   0.665   2.454   1.858  0.0839 -0.5648 -0.4847
 8469TIP3    H146822   0.667   2.423   1.948 -2.1965 -3.3091 -1.2240
 8469TIP3    H246823   0.756   2.449   1.829  0.7417 -0.3576  1.3939
 8470TIP3   OH246824   0.871   6.739   3.488 -0.2958 -0.1555 -0.3250
 8470TIP3    H146825   0.799   6.732   3.425  0.0949  0.8960 -0.9222
 8470TIP3    H246826   0.918   6.656   3.480 -1.1824 -0.6906 -0.2224
 8471TIP3   OH246827   2.183   5.146  16.750  0.5465 -0.7624 -0.4551
 8471TIP3    H146828   2.240   5.137  16.827  0.7518 -0.7476 -0.6060
 8471TIP3    H246829   2.193   5.063  16.703 -0.5198 -1.2590  0.1679
 8472TIP3   OH246830   1.561   2.029  16.795 -0.2323 -0.6087 -0.0011
 8472TIP3    H146831   1.483   2.027  16.738 -0.6820 -3.3912  0.5367
 8472TIP3    H246832   1.617   2.096  16.757 -0.9719 -1.5755 -3.1391
 8473TIP3   OH246833   3.212   4.942  13.794 -0.1576  0.3437 -0.7370
 8473TIP3    H146834   3.262   4.948  13.713 -0.3587 -1.2136 -1.0064
 8473TIP3    H246835   3.274   4.967  13.863  0.9514 -1.2732 -1.0897
 8474TIP3   OH246836   3.304   5.006   3.756 -0.1117  0.1427 -0.2343
 8474TIP3    H146837   3.386   5.033   3.797 -0.2580 -0.4337  0.4750
 8474TIP3    H246838   3.315   5.027   3.663  0.7202  0.3378 -0.1011
 8475TIP3   OH246839   5.568   6.521   4.192 -0.0271 -0.4626 -0.3788
 8475TIP3    H146840   5.596   6.568   4.270  0.2033 -0.4328 -0.4783
 8475TIP3    H246841   5.644   6.524   4.134  0.1521 -1.3430 -0.2043
 8476TIP3   OH246842   5.393   1.144  13.490  0.3613 -0.4459  0.0579
 8476TIP3    H146843   5.396   1.049  13.486  0.5986 -0.4451  0.2141
 8476TIP3    H246844   5.465   1.168  13.548  0.4857 -0.1549 -0.2145
 8477TIP3   OH246845   2.326   3.634  11.174  0.2443 -0.7607  0.0827
 8477TIP3    H146846   2.418   3.611  11.158  0.2359 -2.2873  1.8393
 8477TIP3    H246847   2.328   3.725  11.202  1.2963 -0.8976  0.5059
 8478TIP3   OH246848   5.086   5.139  12.632 -0.8571 -0.4551  0.1178
 8478TIP3    H146849   5.138   5.188  12.568  0.7349 -1.4200  0.6165
 8478TIP3    H246850   5.079   5.198  12.707  1.6957 -1.1935  1.0116
 8479TIP3   OH246851   0.274   0.421  16.220  0.1154 -0.0406 -0.2038
 8479TIP3    H146852   0.282   0.515  16.235  1.3574 -0.3174  1.0361
 8479TIP3    H246853   0.313   0.408  16.133  2.4390  0.2678  0.7395
 8480TIP3   OH246854   2.612   0.029   6.704 -1.0497  0.9118  0.1222
 8480TIP3    H146855   2.682   0.017   6.767 -1.1547  2.0200  0.4632
 8480TIP3    H246856   2.647   0.089   6.639 -0.1694 -1.7933 -2.1268
 8481TIP3   OH246857   1.310   1.160   2.465  0.4196  0.1301  0.1825
 8481TIP3    H146858   1.308   1.230   2.400  0.5541 -1.1927 -1.3096
 8481TIP3    H246859   1.358   1.089   2.422 -0.0246 -1.0066  1.5083
 8482TIP3   OH246860   3.837   3.260  16.456 -0.7841 -0.3179  0.0258
 8482TIP3    H146861   3.836   3.355  16.453 -0.5181 -0.2500  1.4872
 8482TIP3    H246862   3.917   3.237  16.502 -1.5029 -1.1840  0.9140
 8483TIP3   OH246863   4.942   2.015  13.500 -0.6780 -0.6986 -0.7940
 8483TIP3    H146864   4.878   2.058  13.443  0.1700 -1.0052 -2.0308
 8483TIP3    H246865   4.989   1.955  13.442  3.2074  2.0658 -0.8856
 8484TIP3   OH246866   1.115   6.071  16.489 -0.2529  0.5611  0.1697
 8484TIP3    H146867   1.079   6.043  16.405 -0.2963 -0.5043  0.5324
 8484TIP3    H246868   1.204   6.101  16.468  0.1999 -0.8971 -0.0779
 8485TIP3   OH246869   6.725   2.003   0.632 -0.1421  0.1559 -0.4421
 8485TIP3    H146870   6.814   1.975   0.654 -0.2803 -0.0670 -0.1556
 8485TIP3    H246871   6.723   2.001   0.536 -0.5502 -2.1703 -0.4400
 8486TIP3   OH246872   6.254   0.481   3.686  0.0013  0.2534 -0.0452
 8486TIP3    H146873   6.308   0.438   3.619  1.6551  0.3158  1.1779
 8486TIP3    H246874   6.306   0.475   3.766 -1.4699  1.0895  1.0221
 8487TIP3   OH246875   0.334   4.777   0.973  0.4085 -0.2600  0.2999
 8487TIP3    H146876   0.294   4.757   0.888 -0.5183  1.6318  0.2124
 8487TIP3    H246877   0.318   4.700   1.027 -2.4100 -0.0599 -0.1130
 8488TIP3   OH246878   0.254   5.484  12.835 -1.1575  0.1840  0.4788
 8488TIP3    H146879   0.234   5.420  12.904 -0.2374 -1.1330 -0.4255
 8488TIP3    H246880   0.252   5.433  12.754 -1.3394  1.5182 -0.3850
 8489TIP3   OH246881   1.087   4.581  14.959  0.4834 -0.4534  0.4626
 8489TIP3    H146882   1.182   4.585  14.966  0.3849 -0.6671  2.2759
 8489TIP3    H246883   1.068   4.488  14.950  0.3821 -0.5133  1.2855
 8490TIP3   OH246884   2.917   4.652  12.827  0.8312  0.1387 -0.3563
 8490TIP3    H146885   2.984   4.617  12.767  0.6717 -1.1015  0.1523
 8490TIP3    H246886   2.853   4.695  12.770  2.0472  1.3535 -0.8496
 8491TIP3   OH246887   4.036   3.907   2.057  0.0991 -0.4487  0.0070
 8491TIP3    H146888   4.043   3.826   2.008 -0.5126 -0.5244  0.0358
 8491TIP3    H246889   4.045   3.976   1.991  3.9755 -0.4105  0.3433
 8492TIP3   OH246890   1.643   1.432  14.424  0.4877  0.4174 -0.1220
 8492TIP3    H146891   1.702   1.444  14.350 -1.1125 -3.1173 -2.2508
 8492TIP3    H246892   1.672   1.350  14.464 -2.4205 -1.1307 -0.8784
 8493TIP3   OH246893   4.680   4.597  15.165  0.0324  0.1949  0.0826
 8493TIP3    H146894   4.660   4.556  15.249  0.5422 -0.3984 -0.0715
 8493TIP3    H246895   4.775   4.610  15.167 -0.0129  0.5801 -0.2224
 8494TIP3   OH246896   5.464   3.637  15.905  0.5884  0.3614 -0.2907
 8494TIP3    H146897   5.490   3.724  15.935  1.3840 -0.3759  1.2796
 8494TIP3    H246898   5.446   3.589  15.985  1.0759 -1.1968 -1.0791
 8495TIP3   OH246899   4.578   0.118  13.088  0.1173 -0.1591 -0.0534
 8495TIP3    H146900   4.661   0.106  13.134 -0.2491  0.7440  0.8887
 8495TIP3    H246901   4.554   0.209  13.105 -0.0829  0.1910 -2.0032
 8496TIP3   OH246902   3.628   4.672   1.753  0.3113 -0.3381  0.0009
 8496TIP3    H146903   3.640   4.749   1.809  0.3354 -1.1786  1.2087
 8496TIP3    H246904   3.634   4.598   1.814  1.0053 -1.3322 -1.2305
 8497TIP3   OH246905   2.098   5.576  11.548 -0.1589  0.4703  0.2393
 8497TIP3    H146906   2.085   5.608  11.459 -2.1928  0.2908  0.4258
 8497TIP3    H246907   2.192   5.585  11.563  0.1203  1.2059 -1.6442
 8498TIP3   OH246908   5.581   5.628   4.220  0.0604  0.4223  0.2781
 8498TIP3    H146909   5.529   5.641   4.141 -1.4520 -0.1254  1.1474
 8498TIP3    H246910   5.609   5.536   4.216 -1.1232  0.0117  0.9900
 8499TIP3   OH246911   5.405   6.702  10.443  0.1862 -0.1803 -0.2998
 8499TIP3    H146912   5.350   6.705  10.365 -2.0510  1.3012  1.2130
 8499TIP3    H246913   5.347   6.670  10.512  1.9366 -0.8794  0.9136
 8500TIP3   OH246914   4.804   3.172   3.241 -0.0315 -0.4347  0.1413
 8500TIP3    H146915   4.822   3.161   3.335  1.9819  0.7014 -0.0588
 8500TIP3    H246916   4.889   3.161   3.199 -0.8646 -0.6759 -1.5626
 8501TIP3   OH246917   6.209   4.471   0.638 -0.2928  0.3384 -0.4695
 8501TIP3    H146918   6.283   4.481   0.697  0.2684  1.8665 -1.3905
 8501TIP3    H246919   6.132   4.486   0.693  0.2697  3.8412 -0.4136
 8502TIP3   OH246920   3.907   4.223   1.343  0.1311  0.2204  0.4348
 8502TIP3    H146921   3.967   4.208   1.270  1.0994  0.3747  1.1754
 8502TIP3    H246922   3.937   4.305   1.381 -0.4484  0.2044  0.9418
 8503TIP3   OH246923   0.944   6.093   4.670  0.3794  0.2258 -0.6942
 8503TIP3    H146924   0.855   6.059   4.654 -0.2505  1.6761 -0.4515
 8503TIP3    H246925   0.993   6.070   4.591 -1.5482  3.6754 -3.1398
 8504TIP3   OH246926   0.156   6.585  11.630 -0.3295 -0.6088  0.3390
 8504TIP3    H146927   0.168   6.678  11.608 -0.6637 -0.1667  1.8821
 8504TIP3    H246928   0.233   6.542  11.594 -0.3908  0.1860 -0.8082
 8505TIP3   OH246929   2.621   5.292   6.506 -0.7128  0.1780  0.7050
 8505TIP3    H146930   2.643   5.384   6.492  0.6275 -0.1525  0.5176
 8505TIP3    H246931   2.548   5.294   6.568 -2.2734  1.4319 -1.0332
 8506TIP3   OH246932   3.733   3.745   6.422  0.2471  0.3144  0.5264
 8506TIP3    H146933   3.803   3.685   6.396 -0.1119  0.8480 -1.9317
 8506TIP3    H246934   3.745   3.821   6.364 -1.3104  1.1563  1.2665
 8507TIP3   OH246935   2.454   6.044   5.273 -0.3315 -0.2810  0.1040
 8507TIP3    H146936   2.412   5.993   5.343 -0.2532 -1.0579 -0.4005
 8507TIP3    H246937   2.529   5.991   5.247 -1.0681 -0.6191 -1.4295
 8508TIP3   OH246938   4.852   3.266   0.367 -0.3140 -0.4662 -0.3011
 8508TIP3    H146939   4.804   3.229   0.293  0.0185  0.5285 -1.0363
 8508TIP3    H246940   4.811   3.352   0.380 -0.1260 -0.4871  0.4363
 8509TIP3   OH246941   5.887   0.515  16.754  0.6007 -0.0609 -0.3183
 8509TIP3    H146942   5.814   0.572  16.729  1.4413  1.1165 -0.1469
 8509TIP3    H246943   5.895   0.527  16.849  1.2347  0.0923 -0.3871
 8510TIP3   OH246944   4.414   6.664  16.571  0.5635 -0.1554  0.2555
 8510TIP3    H146945   4.344   6.612  16.532  1.1388 -0.2141 -0.7153
 8510TIP3    H246946   4.389   6.672  16.664 -0.9812  0.2542 -0.1665
 8511TIP3   OH246947   3.778   5.449  15.738  0.0273 -0.0153 -0.2775
 8511TIP3    H146948   3.852   5.389  15.745 -1.5492 -1.8875  1.7233
 8511TIP3    H246949   3.732   5.421  15.659 -0.2198 -0.8856  0.1682
 8512TIP3   OH246950   6.428   0.070  15.667  0.0019 -0.5686  0.1553
 8512TIP3    H146951   6.523   0.068  15.670  0.0617  1.2818  0.5095
 8512TIP3    H246952   6.401   0.101  15.753 -1.0620 -2.8201  0.7219
 8513TIP3   OH246953   1.988   3.419  16.836 -0.1152 -0.2000 -0.2579
 8513TIP3    H146954   1.993   3.363  16.759  0.3493 -0.5295  0.0087
 8513TIP3    H246955   2.071   3.466  16.837  0.2276 -0.8057  0.5013
 8514TIP3   OH246956   1.566   1.747  13.719  0.4436 -0.5285  0.1505
 8514TIP3    H146957   1.606   1.769  13.634 -1.6616 -0.2655 -0.8496
 8514TIP3    H246958   1.608   1.806  13.781 -0.0805  1.4673 -1.2674
 8515TIP3   OH246959   0.391   6.091   4.284  0.0451 -0.3641  0.0323
 8515TIP3    H146960   0.449   6.137   4.223  0.6313 -2.1971 -0.8845
 8515TIP3    H246961   0.367   6.011   4.238  0.3633 -1.7522  2.1273
 8516TIP3   OH246962   0.370   3.422   1.411 -0.5819 -0.0131 -0.0403
 8516TIP3    H146963   0.353   3.506   1.454 -0.4185  0.1130 -0.2175
 8516TIP3    H246964   0.360   3.441   1.317 -0.8806 -0.2701 -0.0615
 8517TIP3   OH246965   1.388   5.074  13.912  0.1642  0.6517  0.4627
 8517TIP3    H146966   1.476   5.108  13.930  0.2910  0.1664  0.7772
 8517TIP3    H246967   1.399   4.979  13.906 -0.4426  0.5235  1.1499
 8518TIP3   OH246968   6.561   1.342   0.346 -0.4583  0.1532  0.7493
 8518TIP3    H146969   6.598   1.253   0.343  0.6953  0.6231 -2.2356
 8518TIP3    H246970   6.595   1.379   0.427  0.7964 -1.4343  0.9965
 8519TIP3   OH246971   4.635   4.531  15.432 -0.7003  0.2228  0.1959
 8519TIP3    H146972   4.547   4.519  15.467 -0.8173  1.0255  0.1896
 8519TIP3    H246973   4.690   4.474  15.486 -1.2393 -0.4308  0.0785
 8520TIP3   OH246974   0.457   4.922  13.619  0.0797 -0.6426 -0.7204
 8520TIP3    H146975   0.547   4.894  13.636  0.7615  1.7517 -0.0238
 8520TIP3    H246976   0.466   4.986  13.548 -0.9350  0.3802  0.0562
 8521TIP3   OH246977   3.897   4.228   3.082 -0.6666 -0.1036  0.2117
 8521TIP3    H146978   3.832   4.180   3.133  1.5548 -0.8132  2.6233
 8521TIP3    H246979   3.967   4.164   3.067 -0.7027  0.4182 -2.8893
 8522TIP3   OH246980   6.769   4.268   5.303  0.1933 -0.1441 -0.2049
 8522TIP3    H146981   6.853   4.275   5.256 -0.0373 -0.3019 -0.6380
 8522TIP3    H246982   6.706   4.242   5.236 -0.4351  1.1113 -0.1364
 8523TIP3   OH246983   5.954   3.253   3.711  0.0880  0.3891  0.0520
 8523TIP3    H146984   5.923   3.165   3.734 -0.6424  0.0573 -2.0016
 8523TIP3    H246985   5.998   3.284   3.790 -1.7384 -0.8512  1.6666
 8524TIP3   OH246986   6.295   5.260   3.294 -0.1141  0.3380  0.6743
 8524TIP3    H146987   6.321   5.329   3.354  1.0324  1.9195 -1.4977
 8524TIP3    H246988   6.201   5.273   3.280  0.0057  1.1829  0.6385
 8525TIP3   OH246989   2.906   2.682   0.916 -0.9080 -0.0098  0.4129
 8525TIP3    H146990   2.822   2.728   0.907 -0.2043  1.2477  0.1930
 8525TIP3    H246991   2.910   2.658   1.009 -1.2882  0.3511  0.5253
 8526TIP3   OH246992   3.361   0.750  13.116 -0.1110 -0.4501 -0.2547
 8526TIP3    H146993   3.379   0.795  13.198 -0.8381  0.3176 -0.4997
 8526TIP3    H246994   3.346   0.659  13.141 -1.1442 -0.0696  0.5783
 8527TIP3   OH246995   3.791   3.755  14.613  0.3327  0.3311 -0.2393
 8527TIP3    H146996   3.727   3.825  14.616 -0.7732 -0.6407 -0.4589
 8527TIP3    H246997   3.748   3.681  14.655  1.7692 -0.0082  0.7427
 8528TIP3   OH246998   1.272   3.363   5.031 -0.0519  0.1166  0.1730
 8528TIP3    H146999   1.258   3.450   5.069 -0.8741  0.6467 -1.2693
 8528TIP3    H247000   1.196   3.312   5.061  1.2879 -0.6933  2.4689
 8529TIP3   OH247001   5.957   3.781   5.297 -0.3507 -0.2925 -0.6840
 8529TIP3    H147002   5.864   3.800   5.299  0.1075  2.4376 -0.3195
 8529TIP3    H247003   5.965   3.692   5.329 -2.7028  0.0499  1.1331
 8530TIP3   OH247004   0.946   3.846  11.493  0.4652  0.0570 -0.1861
 8530TIP3    H147005   0.948   3.760  11.535  1.0521 -0.5651 -1.4358
 8530TIP3    H247006   0.912   3.829  11.406  1.6882  0.9061 -0.8579
 8531TIP3   OH247007   2.047   2.104  16.801  0.2638  0.6580 -0.4651
 8531TIP3    H147008   1.957   2.096  16.832  0.5348  1.8226  0.6924
 8531TIP3    H247009   2.041   2.164  16.726  0.0231  0.4217 -0.6333
 8532TIP3   OH247010   4.434   0.329   1.933  0.4796 -0.0871 -0.6102
 8532TIP3    H147011   4.449   0.323   2.027  0.8293 -2.2629 -0.7511
 8532TIP3    H247012   4.423   0.423   1.916  0.7460  0.3782  1.5236
 8533TIP3   OH247013   5.354   1.345   3.930 -1.3130  0.8329 -0.2758
 8533TIP3    H147014   5.277   1.343   3.873 -2.0795 -2.3658  0.6651
 8533TIP3    H247015   5.322   1.381   4.012 -1.6218  0.3397 -0.1710
 8534TIP3   OH247016   1.170   2.867  11.283 -0.0660 -0.6523 -0.1404
 8534TIP3    H147017   1.204   2.937  11.227 -0.6080 -0.2822 -0.0150
 8534TIP3    H247018   1.206   2.885  11.369 -0.4754 -0.3269 -0.0336
 8535TIP3   OH247019   5.028   0.987   0.396  0.4329  0.2190 -0.5088
 8535TIP3    H147020   5.062   0.922   0.335 -0.0819  0.5728 -1.1830
 8535TIP3    H247021   5.025   1.069   0.346 -0.8703  0.3182 -0.3193
 8536TIP3   OH247022   0.527   6.362   1.162 -0.5607 -0.4523 -0.1707
 8536TIP3    H147023   0.599   6.307   1.193 -0.4362  0.5035  1.3270
 8536TIP3    H247024   0.480   6.307   1.099 -0.1501 -2.1009  0.8891
 8537TIP3   OH247025   4.607   5.631  13.240  0.5075  0.0874  0.0684
 8537TIP3    H147026   4.529   5.671  13.281 -0.5550 -1.6558 -0.1552
 8537TIP3    H247027   4.666   5.614  13.313 -0.2864 -0.6221  0.5648
 8538TIP3   OH247028   4.455   3.243  15.441 -0.5511  0.6699 -0.2614
 8538TIP3    H147029   4.420   3.160  15.474 -3.3305  1.3013 -1.3971
 8538TIP3    H247030   4.400   3.310  15.480  0.6642  1.9259 -0.6093
 8539TIP3   OH247031   1.646   6.276   3.221  0.0039  0.0639  0.4288
 8539TIP3    H147032   1.609   6.322   3.297 -0.5666  0.9044 -0.3304
 8539TIP3    H247033   1.592   6.305   3.147 -0.1931 -1.6239 -0.1334
 8540TIP3   OH247034   2.498   5.465  13.479 -0.5191 -0.0829 -0.1481
 8540TIP3    H147035   2.548   5.395  13.521 -0.8548  1.2447  2.6945
 8540TIP3    H247036   2.536   5.473  13.392  1.7755 -1.5212  0.6497
 8541TIP3   OH247037   5.526   4.653  15.504 -0.0912 -0.5033  0.2299
 8541TIP3    H147038   5.472   4.704  15.565 -1.2036 -1.1839 -0.1518
 8541TIP3    H247039   5.602   4.627  15.555  0.4085  1.3603  0.4979
 8542TIP3   OH247040   4.424   2.328  12.849 -0.5120 -0.4911 -0.5467
 8542TIP3    H147041   4.479   2.350  12.774 -1.3986  1.0942 -0.7739
 8542TIP3    H247042   4.367   2.258  12.818  0.7556 -1.5406 -0.5779
 8543TIP3   OH247043   3.016   4.459  15.330 -0.2116 -0.2730 -0.5218
 8543TIP3    H147044   3.109   4.455  15.308  0.4058  2.2539  1.1377
 8543TIP3    H247045   3.013   4.510  15.411 -3.0592 -0.3113 -0.5029
 8544TIP3   OH247046   6.457   2.084  14.096  0.3377  0.4703 -0.1158
 8544TIP3    H147047   6.497   2.161  14.055  0.1843 -0.0834 -1.3578
 8544TIP3    H247048   6.487   2.087  14.187  0.9742  1.5568 -0.3420
 8545TIP3   OH247049   4.935   4.948  13.616 -0.5379  0.3551  0.0831
 8545TIP3    H147050   4.959   4.856  13.604 -1.1974  0.1908  0.0101
 8545TIP3    H247051   4.939   4.962  13.711 -0.0818  0.3522  0.0671
 8546TIP3   OH247052   3.508   4.125  15.893 -0.3979 -0.3188 -0.6910
 8546TIP3    H147053   3.420   4.089  15.882 -0.4899 -0.5298  0.5508
 8546TIP3    H247054   3.520   4.130  15.988  0.0851  1.7646 -0.8017
 8547TIP3   OH247055   0.798   5.548   2.884  0.0275 -0.0466  0.0524
 8547TIP3    H147056   0.869   5.573   2.825 -2.3653  2.1179 -2.1848
 8547TIP3    H247057   0.790   5.623   2.943  0.3086 -0.7954  1.0649
 8548TIP3   OH247058   5.190   3.091   2.728  0.3631 -0.5953 -0.0810
 8548TIP3    H147059   5.124   3.119   2.665 -1.8177  0.8817  2.6499
 8548TIP3    H247060   5.252   3.163   2.730  1.2833 -1.2883 -1.4831
 8549TIP3   OH247061   6.458   1.561   2.797 -0.0891  0.8952 -1.1270
 8549TIP3    H147062   6.463   1.471   2.765  0.3357  0.5332 -0.0927
 8549TIP3    H247063   6.545   1.579   2.833 -1.0965  0.4816  1.7859
 8550TIP3   OH247064   0.379   1.782   3.882  0.4151  0.0795 -0.1447
 8550TIP3    H147065   0.298   1.733   3.900  0.9503 -1.7278 -2.2375
 8550TIP3    H247066   0.444   1.744   3.941 -0.2339  1.7619  1.7844
 8551TIP3   OH247067   0.477   6.505  10.887  0.0966 -0.1994 -0.2213
 8551TIP3    H147068   0.467   6.544  10.800  1.9737 -1.9445 -1.2868
 8551TIP3    H247069   0.424   6.425  10.884  0.8362 -0.7042 -0.0666
 8552TIP3   OH247070   1.102   1.099   6.526 -0.6181  0.3448  0.2735
 8552TIP3    H147071   1.080   1.102   6.433 -2.1343 -0.5023  0.5649
 8552TIP3    H247072   1.019   1.077   6.569  0.1514  0.2915  1.7898
 8553TIP3   OH247073   6.512   4.847  14.832 -0.0057 -0.0850 -0.2781
 8553TIP3    H147074   6.606   4.863  14.827  0.0748  0.0219  1.0940
 8553TIP3    H247075   6.486   4.882  14.918 -1.4535  0.6692 -0.9841
 8554TIP3   OH247076   2.245   2.600   0.171  0.4237  0.6625 -0.6763
 8554TIP3    H147077   2.168   2.596   0.228 -0.7084  0.0851 -2.1845
 8554TIP3    H247078   2.294   2.675   0.202  0.6136 -0.4519  1.9684
 8555TIP3   OH247079   1.802   3.660  14.588  0.2081 -0.4376 -0.2659
 8555TIP3    H147080   1.760   3.702  14.663 -0.3232  0.8189 -1.2278
 8555TIP3    H247081   1.834   3.576  14.622 -1.6623 -0.7397  0.9093
 8556TIP3   OH247082   4.858   3.158   4.007 -0.3982  0.0425  0.6590
 8556TIP3    H147083   4.780   3.205   4.034 -1.2385 -2.3137  2.7815
 8556TIP3    H247084   4.925   3.226   3.996 -1.5235  1.7779  3.4006
 8557TIP3   OH247085   5.877   5.062   0.440 -0.3776 -0.4703  0.1255
 8557TIP3    H147086   5.874   5.112   0.358 -3.6980  0.6863  0.7886
 8557TIP3    H247087   5.788   5.066   0.474  0.4408 -2.4907  2.9109
 8558TIP3   OH247088   0.063   4.179   5.916 -0.5469 -0.2774  0.0525
 8558TIP3    H147089  -0.002   4.194   5.985  1.1182  1.7574  1.2971
 8558TIP3    H247090   0.049   4.250   5.853 -1.0854 -1.2728 -1.0031
 8559TIP3   OH247091   2.994   4.010  16.682  0.6551  0.2583 -0.6478
 8559TIP3    H147092   2.968   3.965  16.602 -2.3969 -1.4671  1.1282
 8559TIP3    H247093   3.020   3.940  16.741  2.8424  1.5014 -0.0389
 8560TIP3   OH247094   0.079   4.002   3.472  0.3410  0.5408 -0.2280
 8560TIP3    H147095   0.007   3.949   3.503  0.1541  0.0504 -1.4484
 8560TIP3    H247096   0.144   3.998   3.542  0.0933 -0.8186 -0.0518
 8561TIP3   OH247097   4.153   6.178  14.527  0.4036  0.2129  0.1091
 8561TIP3    H147098   4.225   6.191  14.466 -0.1827  0.5730 -0.5171
 8561TIP3    H247099   4.092   6.250  14.509  0.5126  0.7165  1.5540
 8562TIP3   OH247100   5.140   0.451  16.227  0.7424 -0.2789  0.2556
 8562TIP3    H147101   5.091   0.486  16.302 -0.4596  0.9943 -1.0664
 8562TIP3    H247102   5.188   0.526  16.192  1.1538 -0.8206 -0.3771
 8563TIP3   OH247103   3.635   2.067  15.723  0.1559 -0.0666  0.5523
 8563TIP3    H147104   3.654   2.106  15.808 -0.2500 -0.5378  0.8678
 8563TIP3    H247105   3.709   2.090  15.668  1.1124 -0.9366  1.4269
 8564TIP3   OH247106   2.441   3.935   6.152 -0.6095 -0.2727  0.1808
 8564TIP3    H147107   2.519   3.891   6.117  0.1337  1.1665 -0.0537
 8564TIP3    H247108   2.474   4.019   6.184 -1.5226 -0.8965  3.0193
 8565TIP3   OH247109   2.120   2.982   6.134 -0.7924  0.0179 -0.0290
 8565TIP3    H147110   2.162   3.049   6.187 -2.0965  0.8409  0.0117
 8565TIP3    H247111   2.110   2.908   6.195  0.3937 -0.1377  0.0029
 8566TIP3   OH247112   1.719   6.293  13.876  0.3581  0.1420 -0.4561
 8566TIP3    H147113   1.783   6.272  13.807  2.0551  1.9332  0.4599
 8566TIP3    H247114   1.707   6.388  13.868  0.4670  0.3621  1.5885
 8567TIP3   OH247115   2.719   5.977   3.379 -0.3490 -0.0625 -0.7211
 8567TIP3    H147116   2.639   5.958   3.427  0.4949 -0.8830  0.4233
 8567TIP3    H247117   2.785   5.991   3.447  0.2710  1.6874 -1.6086
 8568TIP3   OH247118   5.262   4.365  13.231 -0.1340  0.4670 -0.0718
 8568TIP3    H147119   5.347   4.407  13.239  0.7092 -1.2099  0.2756
 8568TIP3    H247120   5.200   4.428  13.268  1.2450  0.8554  1.6908
 8569TIP3   OH247121   5.644   3.205   6.222 -0.0591  0.1542  0.1043
 8569TIP3    H147122   5.726   3.233   6.262 -0.5683 -1.3707  2.4547
 8569TIP3    H247123   5.591   3.284   6.215  0.5635  0.6978  1.3107
 8570TIP3   OH247124   0.554   4.468   1.970 -0.1873  0.2541 -0.6070
 8570TIP3    H147125   0.545   4.393   1.911  0.2395 -0.2244 -0.0790
 8570TIP3    H247126   0.532   4.544   1.917 -0.4908 -0.2374 -1.1888
 8571TIP3   OH247127   5.573   3.809  15.543  0.1978 -0.0815 -0.2193
 8571TIP3    H147128   5.486   3.840  15.520  0.3479 -0.3105 -1.1407
 8571TIP3    H247129   5.591   3.849  15.628 -0.7158  0.1329 -0.1167
 8572TIP3   OH247130   5.955   2.985  14.593 -0.0196 -0.0061  0.0076
 8572TIP3    H147131   5.968   2.896  14.560  0.1939 -0.6613  1.7347
 8572TIP3    H247132   6.036   3.031  14.572  1.7195 -1.5100  2.8428
 8573TIP3   OH247133   3.456   5.482  12.570 -0.2624 -0.2479  0.2689
 8573TIP3    H147134   3.392   5.447  12.632 -0.2378  2.4320  1.9544
 8573TIP3    H247135   3.407   5.487  12.487 -2.0949  1.0001  1.3313
 8574TIP3   OH247136   2.220   5.776  11.775 -0.2324  0.3788  0.0616
 8574TIP3    H147137   2.286   5.794  11.843  1.2915 -1.5838 -0.7851
 8574TIP3    H247138   2.255   5.700  11.728 -0.8766  1.9692 -3.3282
 8575TIP3   OH247139   1.356   0.467   3.481 -0.2400  0.2263  0.1010
 8575TIP3    H147140   1.396   0.545   3.520 -0.3659  1.0811 -1.3867
 8575TIP3    H247141   1.429   0.421   3.440 -0.4898  0.8972 -1.1546
 8576TIP3   OH247142   1.698   5.903   0.586  0.5732 -0.3372  0.4068
 8576TIP3    H147143   1.782   5.930   0.550  0.5785 -0.4523  0.3336
 8576TIP3    H247144   1.633   5.942   0.528  0.5866 -0.7860  0.0872
 8577TIP3   OH247145   2.286   2.695   6.050  0.5124 -0.1138 -0.0334
 8577TIP3    H147146   2.234   2.616   6.060 -0.1361 -0.0482 -2.2568
 8577TIP3    H247147   2.257   2.753   6.120 -2.2521 -0.1867 -0.9928
 8578TIP3   OH247148   6.758   1.822  13.464  0.1869  0.1736  0.0538
 8578TIP3    H147149   6.772   1.890  13.398  0.9514 -0.6779 -0.6924
 8578TIP3    H247150   6.752   1.869  13.547  5.3746  1.0190  0.2831
 8579TIP3   OH247151   5.658   5.600   2.257 -0.7542  0.4040 -0.4304
 8579TIP3    H147152   5.709   5.618   2.178  1.7803 -1.4500  0.6552
 8579TIP3    H247153   5.721   5.605   2.328 -2.3657 -0.7170  1.1631
 8580TIP3   OH247154   4.065   4.983   1.460 -0.0956  0.8538 -0.0738
 8580TIP3    H147155   4.141   5.040   1.472 -0.5476  1.6741 -0.8908
 8580TIP3    H247156   4.085   4.904   1.509  1.0417  1.2831  0.1749
 8581TIP3   OH247157   0.245   6.766  12.813 -0.3051 -0.1616  0.5816
 8581TIP3    H147158   0.173   6.822  12.784  0.7684 -0.3356 -2.8826
 8581TIP3    H247159   0.296   6.820  12.873 -1.7190  0.9785  0.7804
 8582TIP3   OH247160   5.198   0.434  11.757  0.0472  0.4441 -0.0226
 8582TIP3    H147161   5.293   0.446  11.765 -0.0575  0.8174  0.7306
 8582TIP3    H247162   5.165   0.441  11.846 -0.4255 -2.1869  0.1047
 8583TIP3   OH247163   2.872   5.121  13.084 -0.1228 -0.0002 -0.5067
 8583TIP3    H147164   2.803   5.147  13.145 -0.6938 -2.7521  0.1832
 8583TIP3    H247165   2.835   5.047  13.036  1.7820 -0.5261 -1.2734
 8584TIP3   OH247166   5.355   3.299   5.831  0.0962 -0.2451  0.3237
 8584TIP3    H147167   5.273   3.254   5.808  0.0080  0.4290 -0.7741
 8584TIP3    H247168   5.333   3.392   5.824  0.5949 -0.0367  1.3940
 8585TIP3   OH247169   6.015   5.055  10.967 -0.8393 -0.1741  0.3090
 8585TIP3    H147170   5.955   4.993  10.927  0.2981 -1.0902 -0.0412
 8585TIP3    H247171   6.097   5.045  10.919 -1.0500  2.8301 -0.9131
 8586TIP3   OH247172   2.557   5.685   5.685  0.0164 -0.0028 -0.0242
 8586TIP3    H147173   2.481   5.666   5.741  0.0965  0.0223  0.0925
 8586TIP3    H247174   2.587   5.771   5.713 -0.1757  0.1775 -0.3633
 8587TIP3   OH247175   3.675   5.087  15.279 -0.3915  0.5217 -0.4817
 8587TIP3    H147176   3.689   5.166  15.331 -0.9878  1.7917 -2.1568
 8587TIP3    H247177   3.581   5.088  15.259 -0.2907 -0.2575 -1.0443
 8588TIP3   OH247178   1.821   2.700  10.399 -0.2398  0.1526  0.1418
 8588TIP3    H147179   1.851   2.754  10.326 -0.5603  3.0283  1.9712
 8588TIP3    H247180   1.770   2.760  10.454 -1.8681 -2.4054  1.6441
 8589TIP3   OH247181   0.315   2.198   0.382 -0.7456  0.0611 -0.2686
 8589TIP3    H147182   0.306   2.226   0.473  0.8784  2.7255 -0.7915
 8589TIP3    H247183   0.232   2.221   0.341 -1.4715 -1.1290  0.5185
 8590TIP3   OH247184   1.705   0.695  11.292  0.2185 -0.2623  0.1855
 8590TIP3    H147185   1.762   0.772  11.296  0.8856 -0.6479 -1.2773
 8590TIP3    H247186   1.707   0.668  11.200 -2.9841  0.1575 -0.1193
 8591TIP3   OH247187   3.130   2.606  13.538 -0.5058  0.6762  0.5772
 8591TIP3    H147188   3.136   2.601  13.633 -0.3983 -1.0669  0.5079
 8591TIP3    H247189   3.220   2.621  13.509 -0.3126 -0.1611  0.7101
 8592TIP3   OH247190   3.661   0.125  12.810  0.6263  0.5639 -0.2383
 8592TIP3    H147191   3.587   0.180  12.834 -0.6542 -0.4308 -1.7018
 8592TIP3    H247192   3.679   0.073  12.888 -0.4210  0.6253  0.0588
 8593TIP3   OH247193   0.557   5.653   5.852  0.0423  0.0327  0.0310
 8593TIP3    H147194   0.624   5.691   5.909 -0.0416 -1.9361  1.5737
 8593TIP3    H247195   0.510   5.591   5.909 -0.0891 -2.0255 -2.1564
 8594TIP3   OH247196   0.963   1.438   1.901 -0.2848  0.3262 -0.0874
 8594TIP3    H147197   0.924   1.459   1.816  0.6800  1.9760 -0.1723
 8594TIP3    H247198   1.024   1.367   1.882 -1.1576 -0.3439 -0.4736
 8595TIP3   OH247199   1.664   3.795   3.301  0.4305  0.0386 -0.6188
 8595TIP3    H147200   1.738   3.851   3.326  0.7714 -0.9888  0.8036
 8595TIP3    H247201   1.592   3.856   3.287  1.5905  1.1010 -2.3863
 8596TIP3   OH247202   4.358   4.650  15.753  0.3302 -0.0213 -0.0768
 8596TIP3    H147203   4.304   4.643  15.832  1.6844 -2.6050  0.7370
 8596TIP3    H247204   4.390   4.740  15.754 -0.0059  0.1324  2.1402
 8597TIP3   OH247205   2.604   3.623  10.922  0.6393 -0.2576 -0.7276
 8597TIP3    H147206   2.626   3.535  10.892 -0.7633 -0.3597 -1.5426
 8597TIP3    H247207   2.534   3.651  10.864  0.5502  1.1089  0.0038
 8598TIP3   OH247208   5.366   4.125  14.875 -0.0802  0.2450 -0.4979
 8598TIP3    H147209   5.444   4.179  14.879 -0.1639  0.2959  1.5859
 8598TIP3    H247210   5.398   4.035  14.884 -0.1385  0.1089 -1.5087
 8599TIP3   OH247211   4.914   4.128   2.286  0.0788 -0.0854 -0.0327
 8599TIP3    H147212   4.835   4.079   2.306  0.0729 -0.0973 -0.0855
 8599TIP3    H247213   4.926   4.186   2.361 -0.7269  0.8669 -0.6220
 8600TIP3   OH247214   6.363   5.990   3.206 -0.5311 -0.0529 -0.1984
 8600TIP3    H147215   6.284   5.960   3.251 -1.7546 -0.4666 -2.4641
 8600TIP3    H247216   6.339   6.076   3.171 -0.2620 -0.4736 -1.4866
 8601TIP3   OH247217   1.494   6.108  15.629 -0.0658  0.1814 -0.1381
 8601TIP3    H147218   1.588   6.126  15.638  0.1841 -1.5272  1.2841
 8601TIP3    H247219   1.473   6.055  15.705 -2.0132 -0.2024 -0.8990
 8602TIP3   OH247220   4.704   0.205  16.704 -0.6029  0.0968 -0.0356
 8602TIP3    H147221   4.620   0.250  16.708 -1.3861 -1.3325  0.7102
 8602TIP3    H247222   4.687   0.126  16.652  0.2581 -0.2384  0.1705
 8603TIP3   OH247223   5.938   1.256  13.038  0.0266  0.3520  0.4030
 8603TIP3    H147224   5.843   1.244  13.044  0.1162 -0.2209  0.7403
 8603TIP3    H247225   5.972   1.169  13.021  0.4651  0.6272 -0.1608
 8604TIP3   OH247226   2.996   6.645   4.614  0.5779 -0.2350  0.1813
 8604TIP3    H147227   3.068   6.706   4.596  1.0086 -1.1567 -1.5668
 8604TIP3    H247228   2.928   6.669   4.550 -0.3157  0.0438  1.2134
 8605TIP3   OH247229   6.476   2.962  13.167 -0.3308 -0.6309 -0.3774
 8605TIP3    H147230   6.425   3.042  13.185 -0.6239 -0.3071 -2.4119
 8605TIP3    H247231   6.560   2.994  13.135  0.2482 -1.1664  0.5776
 8606TIP3   OH247232   3.815   5.895  11.459  0.6664 -0.0099  0.4849
 8606TIP3    H147233   3.897   5.910  11.506  0.7030 -0.0390  0.4307
 8606TIP3    H247234   3.842   5.855  11.376  0.5092 -1.2832  1.0327
 8607TIP3   OH247235   2.389   4.648  11.139 -0.5473 -0.1579 -0.4733
 8607TIP3    H147236   2.321   4.699  11.095 -1.0143 -1.2815 -1.0891
 8607TIP3    H247237   2.396   4.568  11.087  0.0168 -0.8212  0.6031
 8608TIP3   OH247238   1.723   5.159   0.885 -0.4403  0.3713  0.3585
 8608TIP3    H147239   1.817   5.164   0.870 -0.1467 -1.7733  1.0758
 8608TIP3    H247240   1.696   5.249   0.902  1.3842  1.0884 -0.3637
 8609TIP3   OH247241   6.821   2.030   3.228  0.2327 -0.4259  0.5759
 8609TIP3    H147242   6.894   2.089   3.247 -0.1276  0.7476 -1.4557
 8609TIP3    H247243   6.861   1.956   3.183  0.5930 -1.4986  2.5478
 8610TIP3   OH247244   1.165   2.564   5.599  0.3496 -0.3187  0.0225
 8610TIP3    H147245   1.097   2.497   5.602 -0.1833  0.2028 -0.3184
 8610TIP3    H247246   1.211   2.554   5.683 -1.4758  0.6974  1.2112
 8611TIP3   OH247247   6.029   0.416  10.529 -1.0639 -0.0373 -0.1915
 8611TIP3    H147248   6.011   0.428  10.436  0.2033  0.8902 -0.3373
 8611TIP3    H247249   5.985   0.489  10.572 -0.9840 -0.0095 -0.1551
 8612TIP3   OH247250   5.013   5.919  11.448 -0.6748  0.1762 -0.1496
 8612TIP3    H147251   4.998   6.010  11.424  1.0929 -0.1077 -2.6958
 8612TIP3    H247252   5.062   5.923  11.531  0.4837  1.6104 -0.8615
 8613TIP3   OH247253   1.219   5.284  11.048  0.2873  0.0622 -0.0211
 8613TIP3    H147254   1.132   5.264  11.013  0.6293  0.5145 -1.1850
 8613TIP3    H247255   1.273   5.298  10.971  1.4580 -0.4276  0.6844
 8614TIP3   OH247256   5.460   0.497  14.706 -0.1810 -0.2906  0.2771
 8614TIP3    H147257   5.537   0.500  14.648 -0.7724 -0.3012 -0.5214
 8614TIP3    H247258   5.496   0.476  14.792  0.8908  1.2618  0.2405
 8615TIP3   OH247259   6.134   5.694   1.882 -0.2411 -0.5963 -0.2238
 8615TIP3    H147260   6.052   5.664   1.920 -0.0081 -1.8943 -0.6809
 8615TIP3    H247261   6.114   5.780   1.845 -1.3114 -0.7628 -0.0597
 8616TIP3   OH247262   0.586   1.110   1.627  0.1067  0.4733  0.0130
 8616TIP3    H147263   0.506   1.159   1.608  0.5986  1.0606 -0.5646
 8616TIP3    H247264   0.657   1.167   1.597  0.7046 -0.4527 -0.3652
 8617TIP3   OH247265   0.403   1.283  13.948  0.2721 -0.7038  0.3449
 8617TIP3    H147266   0.407   1.368  13.905 -0.1077  0.0931  1.8194
 8617TIP3    H247267   0.309   1.264  13.956  0.2585 -0.1213  2.0893
 8618TIP3   OH247268   0.492   6.371  12.543  0.1697  0.1460 -0.0797
 8618TIP3    H147269   0.494   6.370  12.639  0.3011  0.7459 -0.0680
 8618TIP3    H247270   0.572   6.325  12.516  0.4290  0.4777  0.1090
 8619TIP3   OH247271   3.697   4.446   1.618  0.2377  0.2157  0.1852
 8619TIP3    H147272   3.613   4.431   1.576  0.1473  0.7280  0.1739
 8619TIP3    H247273   3.691   4.536   1.652 -0.1287 -0.5674  2.3107
 8620TIP3   OH247274   5.106   1.852  12.806  0.1516  0.4309  1.3242
 8620TIP3    H147275   5.116   1.757  12.799 -1.2395  0.3748 -0.4835
 8620TIP3    H247276   5.181   1.887  12.756 -0.0758  0.2502  0.8469
 8621TIP3   OH247277   4.325   5.361  16.542  0.0946 -0.0037  0.6052
 8621TIP3    H147278   4.321   5.286  16.601  0.0017  0.6979  1.5072
 8621TIP3    H247279   4.363   5.326  16.461  1.7667 -0.6382  1.6199
 8622TIP3   OH247280   2.969   2.025   2.255 -0.0492  0.0454  0.5646
 8622TIP3    H147281   3.017   2.107   2.265  0.7353 -0.6164  2.8422
 8622TIP3    H247282   2.878   2.052   2.239  0.2689  1.3503  0.8646
 8623TIP3   OH247283   0.178   5.298   3.748  0.8733 -0.4634  0.2961
 8623TIP3    H147284   0.201   5.356   3.675  1.7475 -1.0975  0.0569
 8623TIP3    H247285   0.173   5.211   3.709 -0.4917 -0.5689  0.6449
 8624TIP3   OH247286   5.474   0.680   5.687  0.3566  0.1635  0.9872
 8624TIP3    H147287   5.507   0.686   5.598  0.8329 -0.2726  1.1333
 8624TIP3    H247288   5.487   0.767   5.724 -0.0648  0.4093  0.5534
 8625TIP3   OH247289   6.490   5.961   0.248 -0.0652  0.0117 -0.5232
 8625TIP3    H147290   6.448   6.011   0.317  1.7999  0.6808  0.2042
 8625TIP3    H247291   6.485   5.870   0.278 -0.7153  0.1183 -0.3104
 8626TIP3   OH247292   1.337   1.066   1.804  0.3476  0.1469  0.7321
 8626TIP3    H147293   1.419   1.110   1.783  0.0985 -0.6934 -2.5629
 8626TIP3    H247294   1.362   0.996   1.865  2.1417 -0.2219 -0.3702
 8627TIP3   OH247295   0.966   5.927  16.283  0.5815  0.5113 -0.1764
 8627TIP3    H147296   0.874   5.904  16.272  0.6578  0.0359  0.1549
 8627TIP3    H247297   1.014   5.858  16.237  0.8161 -0.1154  0.9697
 8628TIP3   OH247298   6.281   4.963   2.395  0.4134 -0.6554  0.6462
 8628TIP3    H147299   6.336   5.012   2.334 -2.4745 -0.2452 -1.8458
 8628TIP3    H247300   6.272   4.876   2.355 -0.8915 -0.6374  0.8541
 8629TIP3   OH247301   5.249   5.035  15.356  0.2907  0.2300  0.2382
 8629TIP3    H147302   5.324   5.067  15.408  0.5327 -0.3481  0.2508
 8629TIP3    H247303   5.288   4.974  15.294 -0.4092 -1.7844  1.6645
 8630TIP3   OH247304   3.112   3.805  15.681  0.0623 -0.0819  0.2504
 8630TIP3    H147305   3.019   3.830  15.681  0.1853  0.4179  0.8072
 8630TIP3    H247306   3.129   3.777  15.771  0.1174 -1.5197 -0.1856
 8631TIP3   OH247307   5.199   2.251   1.813  0.5997 -0.7630  0.2570
 8631TIP3    H147308   5.149   2.289   1.886  0.4235  0.3577 -0.4129
 8631TIP3    H247309   5.234   2.327   1.767  0.3499 -1.4342 -1.0794
 8632TIP3   OH247310   5.942   2.240   3.809  0.1736 -0.5453 -0.5797
 8632TIP3    H147311   5.903   2.274   3.889  1.2816 -0.4828 -0.0535
 8632TIP3    H247312   5.871   2.245   3.744 -0.8868 -1.0705  0.4968
 8633TIP3   OH247313   3.039   4.507   3.555  0.0592 -0.3336 -0.1378
 8633TIP3    H147314   3.024   4.582   3.613 -1.5410  0.0173 -0.9303
 8633TIP3    H247315   3.114   4.534   3.501  1.2658 -0.4787  1.3875
 8634TIP3   OH247316   2.078   6.340  14.151  0.1838  0.0202  0.0580
 8634TIP3    H147317   2.004   6.338  14.212  0.0075  1.0408 -0.0915
 8634TIP3    H247318   2.151   6.373  14.204  0.4878 -0.8024  0.1575
 8635TIP3   OH247319   0.751   5.171   1.293 -0.3909 -0.1225 -0.3118
 8635TIP3    H147320   0.677   5.148   1.238 -1.1971  0.8033  0.3484
 8635TIP3    H247321   0.720   5.161   1.382  0.5831 -0.6368 -0.0166
 8636TIP3   OH247322   3.978   3.971  15.838 -0.3685 -0.0221 -0.2867
 8636TIP3    H147323   3.988   4.065  15.822 -0.8984  0.2502  0.9071
 8636TIP3    H247324   3.946   3.936  15.755 -1.3637  1.0524 -0.3815
 8637TIP3   OH247325   3.825   3.258  15.303 -0.1387 -1.2452 -0.0059
 8637TIP3    H147326   3.881   3.184  15.280  1.0973 -0.8341  1.4431
 8637TIP3    H247327   3.814   3.251  15.398  0.1337  0.4882  0.1926
 8638TIP3   OH247328   4.045   5.073  15.789 -0.0193 -0.0595 -0.0352
 8638TIP3    H147329   4.115   5.029  15.837  1.0079 -0.0050 -1.4018
 8638TIP3    H247330   3.994   5.002  15.751 -0.9312 -0.1067  1.2080
 8639TIP3   OH247331   1.006   4.225   6.410  0.2442  0.3229  0.4557
 8639TIP3    H147332   1.051   4.259   6.333 -0.2909  2.3238  0.9831
 8639TIP3    H247333   0.963   4.300   6.448  0.0529 -0.7208  2.4369
 8640TIP3   OH247334   6.807   5.793   4.777  0.4232  0.1796 -0.3603
 8640TIP3    H147335   6.756   5.862   4.737 -0.4702 -0.6826 -0.7553
 8640TIP3    H247336   6.821   5.729   4.707 -0.5606 -1.0242  0.4871
 8641TIP3   OH247337   3.709   3.986  12.452 -0.3554  0.2457 -0.2801
 8641TIP3    H147338   3.729   3.950  12.538  1.9264 -0.7700 -1.1601
 8641TIP3    H247339   3.745   4.074  12.454 -0.7801  0.4150 -0.0265
 8642TIP3   OH247340   5.530   1.461  13.076 -0.4973  0.2577 -0.0017
 8642TIP3    H147341   5.485   1.382  13.046 -2.4594  0.1177  2.8149
 8642TIP3    H247342   5.579   1.432  13.153  2.2332  1.0174 -1.3648
 8643TIP3   OH247343   0.215   2.193  16.600 -0.5292 -0.3929  0.0823
 8643TIP3    H147344   0.210   2.120  16.662 -1.0047 -1.0384 -0.6911
 8643TIP3    H247345   0.303   2.230  16.614 -0.8421 -0.1383  1.5368
 8644TIP3   OH247346   0.529   0.606   1.413  0.2083  0.0295 -0.0823
 8644TIP3    H147347   0.576   0.585   1.494  0.6658 -0.2186 -0.4034
 8644TIP3    H247348   0.593   0.591   1.344 -0.1392  0.3651 -0.4843
 8645TIP3   OH247349   1.865   2.914  16.658  0.2632 -0.1086 -0.0792
 8645TIP3    H147350   1.851   2.977  16.587  3.0190 -1.6746 -2.1666
 8645TIP3    H247351   1.780   2.872  16.670 -0.6759  1.3631 -1.2223
 8646TIP3   OH247352   2.253   4.422  11.719  0.4709  0.1065 -0.1528
 8646TIP3    H147353   2.233   4.335  11.752 -0.3130 -0.3458 -1.7217
 8646TIP3    H247354   2.257   4.477  11.797 -0.3885 -1.0697  0.7581
 8647TIP3   OH247355   0.837   5.032   3.678 -0.3724  0.3170 -0.2120
 8647TIP3    H147356   0.872   4.949   3.710  1.4170  0.9104 -0.5240
 8647TIP3    H247357   0.859   5.033   3.585 -0.1859  1.2233 -0.1661
 8648TIP3   OH247358   6.648   6.622  16.719  0.6103 -0.1068 -0.4465
 8648TIP3    H147359   6.666   6.580  16.635  0.7765  0.5196 -0.7292
 8648TIP3    H247360   6.608   6.706  16.695 -2.3440 -1.2370  0.1326
 8649TIP3   OH247361   5.630   4.217  14.980 -0.0936 -0.5238  0.1253
 8649TIP3    H147362   5.722   4.229  15.003  0.8375 -3.1992 -1.7095
 8649TIP3    H247363   5.631   4.153  14.909 -3.3010  0.5235 -1.0546
 8650TIP3   OH247364   2.426   5.477   1.649  0.1238 -0.4721  0.6464
 8650TIP3    H147365   2.391   5.426   1.576  2.5100 -0.8165 -0.3744
 8650TIP3    H247366   2.464   5.411   1.707  2.6635 -0.0190 -0.3597
 8651TIP3   OH247367   3.951   1.113   3.745  0.5057  0.1280 -0.7562
 8651TIP3    H147368   3.870   1.082   3.785  0.6894  0.3065 -0.2455
 8651TIP3    H247369   4.020   1.065   3.790  0.7346  0.5754 -0.6309
 8652TIP3   OH247370   5.263   1.783  11.161  0.0672 -0.2902 -0.0445
 8652TIP3    H147371   5.320   1.797  11.236 -0.2242 -1.8563  0.5030
 8652TIP3    H247372   5.224   1.697  11.176 -0.5708 -0.3101 -1.6201
 8653TIP3   OH247373   6.531   6.089  16.401  0.4154 -0.1978 -0.3379
 8653TIP3    H147374   6.529   6.020  16.334 -0.2253  0.4266 -0.9716
 8653TIP3    H247375   6.504   6.045  16.481 -0.8046 -0.5192 -0.9024
 8654TIP3   OH247376   2.825   5.896   1.730  0.2152 -0.9495  0.3088
 8654TIP3    H147377   2.833   5.856   1.817 -0.0685  1.0086  1.3081
 8654TIP3    H247378   2.746   5.949   1.736  1.1671  0.6322 -0.5181
 8655TIP3   OH247379   2.047   3.984   0.747 -0.8467  0.0510 -0.1402
 8655TIP3    H147380   2.059   4.032   0.829  0.7632 -1.2213  0.4214
 8655TIP3    H247381   2.111   4.023   0.687 -0.0619 -0.8417  0.0901
 8656TIP3   OH247382   6.430   1.576   2.454 -0.3147 -0.6540  0.4838
 8656TIP3    H147383   6.483   1.654   2.438  0.6424 -1.2624  0.6086
 8656TIP3    H247384   6.349   1.609   2.493  0.0225  0.2826  0.4069
 8657TIP3   OH247385   2.072   1.899  14.814  0.1570  0.0445 -0.0748
 8657TIP3    H147386   2.076   1.986  14.855 -0.5636  1.1208 -2.1784
 8657TIP3    H247387   1.979   1.881  14.804  0.2921 -1.0898  0.4924
 8658TIP3   OH247388   3.050   6.663   6.014 -0.6727 -0.2629  0.4097
 8658TIP3    H147389   3.003   6.710   6.083  0.1870  1.0912  0.0996
 8658TIP3    H247390   3.142   6.665   6.041  0.1801  2.9883 -2.1474
 8659TIP3   OH247391   3.392   1.211   1.941  0.3867 -0.8178 -0.8427
 8659TIP3    H147392   3.448   1.212   1.864 -1.6226 -0.3652 -2.3875
 8659TIP3    H247393   3.429   1.277   1.999 -0.8584  2.5862 -3.6352
 8660TIP3   OH247394   0.501   4.911  11.973 -0.1679  0.1730  0.2189
 8660TIP3    H147395   0.423   4.966  11.973 -0.0122  0.4037 -0.2668
 8660TIP3    H247396   0.468   4.821  11.969 -0.4213  0.2300  0.9220
 8661TIP3   OH247397   0.576   3.905   4.116  0.0641 -0.3280  0.2839
 8661TIP3    H147398   0.518   3.973   4.149  0.5996 -0.1440  0.8528
 8661TIP3    H247399   0.664   3.943   4.120 -0.0081  0.7866 -3.8824
 8662TIP3   OH247400   5.525   2.977   3.418  0.1931  0.0388  0.0557
 8662TIP3    H147401   5.591   2.998   3.351  0.2224  1.0829  0.4018
 8662TIP3    H247402   5.537   3.044   3.485 -0.1420 -0.7363  0.9020
 8663TIP3   OH247403   4.148   5.831   5.340 -0.0940  0.4785 -0.2056
 8663TIP3    H147404   4.155   5.832   5.436  0.5636 -0.5758 -0.2326
 8663TIP3    H247405   4.226   5.878   5.310  1.0004 -1.2935 -0.2552
 8664TIP3   OH247406   6.691   5.944   3.533 -0.0886  0.0765  0.1798
 8664TIP3    H147407   6.639   5.912   3.607  0.5694  0.9791  1.0687
 8664TIP3    H247408   6.740   6.018   3.569  1.2227 -0.2634 -0.8210
 8665TIP3   OH247409   2.450   1.459  12.760  0.3435  0.1699 -0.0243
 8665TIP3    H147410   2.469   1.446  12.853 -2.1633 -1.8288  0.3268
 8665TIP3    H247411   2.459   1.553  12.747  2.9680  0.2745  1.6233
 8666TIP3   OH247412   4.827   5.317  12.503 -0.3111 -0.2011  0.2276
 8666TIP3    H147413   4.737   5.327  12.536 -0.1943  0.9834  0.2241
 8666TIP3    H247414   4.838   5.222  12.494 -1.7600 -0.3558 -0.2993
 8667TIP3   OH247415   6.583   6.508  15.135  0.2699 -0.1931  0.2088
 8667TIP3    H147416   6.503   6.525  15.184 -0.2182  0.8355 -0.9137
 8667TIP3    H247417   6.601   6.589  15.088  1.3843 -0.7602 -0.3962
 8668TIP3   OH247418   0.718   4.672  14.880  0.1730  0.4088  0.0754
 8668TIP3    H147419   0.786   4.733  14.909  0.7558 -0.5260  0.7180
 8668TIP3    H247420   0.745   4.587  14.914 -2.3137  0.3065  2.0839
 8669TIP3   OH247421   5.356   6.296  14.787 -0.2209 -0.5305  0.1612
 8669TIP3    H147422   5.355   6.328  14.697  0.8227 -1.7256 -0.3110
 8669TIP3    H247423   5.375   6.203  14.779 -0.2387 -0.6813  1.6177
 8670TIP3   OH247424   2.857   1.171  12.180  0.6392  0.5225  0.4599
 8670TIP3    H147425   2.783   1.216  12.140 -0.4087 -1.4387  0.0531
 8670TIP3    H247426   2.868   1.214  12.265 -0.7971  1.0362  0.4198
 8671TIP3   OH247427   4.480   4.431   0.972  0.0092  0.5906 -0.1936
 8671TIP3    H147428   4.399   4.470   1.006  0.3607 -0.2521  1.7555
 8671TIP3    H247429   4.518   4.386   1.048  1.7451  0.0365 -1.3457
 8672TIP3   OH247430   3.684   3.124  17.075 -0.2016  0.0112  0.2245
 8672TIP3    H147431   3.640   3.173  17.005 -0.1970 -0.1121  0.1353
 8672TIP3    H247432   3.742   3.064  17.029 -0.0480  0.0698  0.3418
 8673TIP3   OH247433   4.098   6.267  11.681 -0.3680  0.0990  0.4092
 8673TIP3    H147434   4.077   6.355  11.714  1.2721  0.5219  0.4004
 8673TIP3    H247435   4.079   6.271  11.587  0.4228  0.6990  0.2661
 8674TIP3   OH247436   3.556   6.358  13.290  0.1282 -0.1186  0.1410
 8674TIP3    H147437   3.580   6.341  13.381 -0.4547 -0.3751  0.2521
 8674TIP3    H247438   3.578   6.450  13.275 -0.5710  0.1561  0.7949
 8675TIP3   OH247439   6.324   2.039  11.103  0.0243 -0.2317  0.1937
 8675TIP3    H147440   6.295   2.114  11.051 -0.3004 -0.5485 -0.0837
 8675TIP3    H247441   6.244   2.005  11.142  0.3073  0.1965  1.1675
 8676TIP3   OH247442   2.891   2.189  10.911  0.0803 -0.4152  0.0816
 8676TIP3    H147443   2.856   2.162  10.996 -0.8572  0.3828 -0.0432
 8676TIP3    H247444   2.909   2.106  10.866 -0.1932 -0.8439  0.7352
 8677TIP3   OH247445   2.966   4.089   2.912 -0.2261  0.0753  0.1549
 8677TIP3    H147446   2.877   4.068   2.885 -0.7734  1.9901  0.2716
 8677TIP3    H247447   3.008   4.005   2.926 -1.7946 -0.8789 -0.6159
 8678TIP3   OH247448   4.797   0.378   6.249  0.2328 -0.1529  0.9939
 8678TIP3    H147449   4.857   0.347   6.182 -2.2766 -0.8676 -1.0752
 8678TIP3    H247450   4.850   0.382   6.329  3.2194  0.2141 -0.8577
 8679TIP3   OH247451   0.379   6.596   0.957  0.5960 -0.4228  0.0745
 8679TIP3    H147452   0.351   6.532   1.024 -1.2070  0.1223 -0.1102
 8679TIP3    H247453   0.426   6.663   1.007 -1.1867  0.2563  0.9622
 8680TIP3   OH247454   5.379   1.630   2.112 -0.1324 -0.6248 -0.0598
 8680TIP3    H147455   5.380   1.662   2.202  0.8416 -2.4797  0.6477
 8680TIP3    H247456   5.300   1.575   2.107 -1.6412  1.4936 -1.1772
 8681TIP3   OH247457   1.180   1.213   5.154  0.6256  0.6011  0.5532
 8681TIP3    H147458   1.093   1.190   5.122  1.0699  0.0934 -0.3049
 8681TIP3    H247459   1.165   1.245   5.243 -0.4519  0.6648  0.3570
 8682TIP3   OH247460   1.113   1.422  16.028  0.5042  0.1145  0.2010
 8682TIP3    H147461   1.201   1.453  16.052  0.6077 -0.5683  0.7208
 8682TIP3    H247462   1.129   1.343  15.977  0.2016  0.3576 -0.2810
 8683TIP3   OH247463   1.976   1.005   2.592 -0.3834 -0.1490  0.3250
 8683TIP3    H147464   1.988   1.000   2.497 -0.0509  0.3474  0.3367
 8683TIP3    H247465   1.922   0.929   2.613 -0.0632 -0.5308 -0.1968
 8684TIP3   OH247466   2.186   5.749  12.954  0.1252 -0.0626  0.8392
 8684TIP3    H147467   2.189   5.817  12.888 -0.2077 -0.8687 -0.0330
 8684TIP3    H247468   2.255   5.773  13.016 -0.3453  1.3433  0.8517
 8685TIP3   OH247469   2.682   3.747   3.467 -0.1327  0.2099  0.7389
 8685TIP3    H147470   2.748   3.803   3.507  0.5351  0.2589 -0.3789
 8685TIP3    H247471   2.653   3.689   3.537  1.1470  0.1489  1.2354
 8686TIP3   OH247472   1.876   6.492   4.929  0.4338 -0.1752  0.0894
 8686TIP3    H147473   1.953   6.438   4.945  1.3046  1.0361  0.1416
 8686TIP3    H247474   1.830   6.494   5.013  0.6848 -0.3866  0.2328
 8687TIP3   OH247475   2.034   3.959   2.628 -0.1987  0.3455 -0.1121
 8687TIP3    H147476   2.057   3.955   2.535  0.2251 -0.6423  0.0245
 8687TIP3    H247477   2.084   3.888   2.668  0.5364  1.4907  1.0763
 8688TIP3   OH247478   5.988   0.723   2.869 -0.2199  0.4416  0.0784
 8688TIP3    H147479   6.032   0.807   2.875  2.0685 -0.6256 -0.5577
 8688TIP3    H247480   6.052   0.665   2.826 -1.4075 -1.8204  1.1631
 8689TIP3   OH247481   6.669   4.551  14.269  0.2430  0.3407 -0.1377
 8689TIP3    H147482   6.596   4.551  14.332 -0.1460 -0.3160 -0.5811
 8689TIP3    H247483   6.728   4.619  14.302  0.0617 -0.0094  0.9607
 8690TIP3   OH247484   6.412   0.171   3.715 -0.0974  0.6386 -0.1252
 8690TIP3    H147485   6.432   0.206   3.628 -0.4655  2.2657  0.4147
 8690TIP3    H247486   6.452   0.232   3.776  1.0589 -1.0433  0.8907
 8691TIP3   OH247487   5.818   0.479  12.357 -0.5562  0.1552 -0.7765
 8691TIP3    H147488   5.859   0.392  12.363 -0.1438  0.3522 -0.6974
 8691TIP3    H247489   5.860   0.530  12.426 -2.6689 -0.3178  0.9557
 8692TIP3   OH247490   2.369   1.533  17.080 -0.1156  0.1485  0.2786
 8692TIP3    H147491   2.355   1.618  17.121 -0.4101  0.5865 -0.6796
 8692TIP3    H247492   2.423   1.553  17.003  0.1268 -0.5853  0.2521
 8693TIP3   OH247493   0.193   5.763  12.978 -0.1202  0.5991 -0.2574
 8693TIP3    H147494   0.287   5.778  12.985 -0.1475  0.5863  0.1898
 8693TIP3    H247495   0.184   5.687  12.921  0.0743  1.5203 -1.5729
 8694TIP3   OH247496   6.258   5.404   1.308 -0.6105 -0.0793  0.2752
 8694TIP3    H147497   6.251   5.455   1.388 -0.9751 -0.0803  0.2473
 8694TIP3    H247498   6.204   5.452   1.245 -1.1815 -0.6470  0.3258
 8695TIP3   OH247499   5.728   4.939  16.316  0.6251 -0.1573  0.0752
 8695TIP3    H147500   5.668   5.006  16.282  0.4868 -0.2265  0.1782
 8695TIP3    H247501   5.810   4.986  16.333  0.5511 -0.0280  0.0796
 8696TIP3   OH247502   5.074   1.031   3.264  0.0417  0.0873 -0.0612
 8696TIP3    H147503   5.103   1.062   3.178 -2.5479  1.6586 -0.4735
 8696TIP3    H247504   5.057   1.111   3.313 -2.6044 -0.6614  0.3981
 8697TIP3   OH247505   1.848   6.370  14.537  0.2852  0.2722  0.0517
 8697TIP3    H147506   1.797   6.344  14.614 -1.4056 -0.5437 -1.2604
 8697TIP3    H247507   1.883   6.288  14.502 -1.3809  0.1883 -1.6161
 8698TIP3   OH247508   5.282   3.129  15.636  0.3985  0.2544 -0.0374
 8698TIP3    H147509   5.205   3.107  15.584  0.3205 -0.0965  0.2203
 8698TIP3    H247510   5.250   3.189  15.703  0.7898  1.9747 -1.3200
 8699TIP3   OH247511   5.303   5.711  17.079 -0.3265 -0.0128 -0.3799
 8699TIP3    H147512   5.391   5.742  17.061 -0.1962 -0.5927 -0.7676
 8699TIP3    H247513   5.304   5.687  17.172  0.0201 -0.3186 -0.4598
 8700TIP3   OH247514   2.378   2.856  12.821  0.2588 -0.2873 -0.3603
 8700TIP3    H147515   2.328   2.858  12.740 -1.2035 -1.7494  0.4427
 8700TIP3    H247516   2.419   2.769  12.822 -2.9468 -2.0148  2.1636
 8701TIP3   OH247517   5.384   1.882   0.856 -0.5958 -0.4671 -0.4611
 8701TIP3    H147518   5.415   1.900   0.767  1.0263  0.4390  0.2333
 8701TIP3    H247519   5.463   1.855   0.904 -1.5542 -1.5621  0.5513
 8702TIP3   OH247520   2.274   2.640  14.449 -0.2529  0.3027 -0.3745
 8702TIP3    H147521   2.323   2.558  14.452  0.8442  0.9768  0.6760
 8702TIP3    H247522   2.269   2.662  14.356 -1.2653 -1.3443 -0.7498
 8703TIP3   OH247523   1.116   0.842   4.462 -0.6026 -0.3657  0.1860
 8703TIP3    H147524   1.038   0.830   4.409 -0.9907 -0.9809  0.8797
 8703TIP3    H247525   1.108   0.931   4.498 -1.2278 -0.6088  0.6486
 8704TIP3   OH247526   1.331   4.276   0.051 -0.2537  0.0743 -0.2481
 8704TIP3    H147527   1.257   4.322   0.012 -0.5509  1.0615  1.3928
 8704TIP3    H247528   1.313   4.277   0.145  1.6773  0.0780  0.1639
 8705TIP3   OH247529   0.979   1.946   1.478 -0.0519 -0.6101 -0.6393
 8705TIP3    H147530   0.982   1.888   1.554 -0.5176  0.2638  0.0631
 8705TIP3    H247531   0.893   1.931   1.440  0.2437 -1.1676 -1.0991
 8706TIP3   OH247532   5.474   1.209   2.147  0.3304  0.0706 -0.1640
 8706TIP3    H147533   5.490   1.186   2.056  1.3423  0.0343  0.0220
 8706TIP3    H247534   5.556   1.246   2.178 -0.3611  1.2365  0.3860
 8707TIP3   OH247535   0.105   4.273   4.926  0.2230 -0.3061  0.1452
 8707TIP3    H147536   0.155   4.245   4.850 -1.0288 -0.6752 -0.5618
 8707TIP3    H247537   0.128   4.210   4.995 -0.9627 -1.8615 -0.8190
 8708TIP3   OH247538   2.734   1.979   2.625 -0.1619 -0.0430 -0.7502
 8708TIP3    H147539   2.674   1.942   2.690  0.1508 -0.4531 -0.6889
 8708TIP3    H247540   2.725   1.922   2.549 -2.5275  1.9450 -2.1091
 8709TIP3   OH247541   4.386   6.543   0.293  0.3262 -0.3019 -0.2348
 8709TIP3    H147542   4.367   6.449   0.293  0.1961 -0.3258  1.8726
 8709TIP3    H247543   4.456   6.553   0.228 -1.2807 -1.4343 -2.2748
 8710TIP3   OH247544   2.997   0.692   2.290  0.2324  0.0971  0.2824
 8710TIP3    H147545   2.917   0.710   2.240 -0.0739  0.1722  0.7920
 8710TIP3    H247546   3.063   0.749   2.251  0.8881 -2.1682 -2.2106
 8711TIP3   OH247547   4.253   3.579  16.520  0.3428 -0.4208  0.4328
 8711TIP3    H147548   4.335   3.615  16.484  0.9625  0.9710  2.9597
 8711TIP3    H247549   4.193   3.654  16.520 -0.0622 -0.7424  0.9974
 8712TIP3   OH247550   0.959   6.079   2.125  0.7523 -0.0156 -0.8727
 8712TIP3    H147551   0.938   6.061   2.033 -3.2379  1.0776 -0.3880
 8712TIP3    H247552   0.968   5.993   2.165  1.4999 -0.5128 -2.0471
 8713TIP3   OH247553   6.283   1.281   2.993  0.1888  0.1892 -0.2311
 8713TIP3    H147554   6.211   1.302   2.933  0.3048 -0.1003 -0.4779
 8713TIP3    H247555   6.316   1.196   2.962 -0.5884 -0.6046  1.0307
 8714TIP3   OH247556   3.678   1.178   5.297  0.2065  0.9144  0.4059
 8714TIP3    H147557   3.671   1.186   5.202  1.2441  2.4060  0.4241
 8714TIP3    H247558   3.587   1.167   5.326 -0.1668  0.8550 -0.7200
 8715TIP3   OH247559   1.861   0.221   2.585 -0.1418  0.3803 -0.0506
 8715TIP3    H147560   1.854   0.137   2.540  2.6444  0.5918 -1.0904
 8715TIP3    H247561   1.845   0.201   2.677 -1.8321 -0.8136 -0.5680
 8716TIP3   OH247562   2.423   4.014   1.409  0.1791 -0.2617 -0.3617
 8716TIP3    H147563   2.507   4.053   1.383 -1.1253  2.5822 -0.7052
 8716TIP3    H247564   2.438   3.980   1.497  1.3114  1.7928  0.3204
 8717TIP3   OH247565   1.837   6.499  16.334 -0.5944  0.1469  0.1631
 8717TIP3    H147566   1.828   6.541  16.419 -1.7645  1.0232 -0.3705
 8717TIP3    H247567   1.884   6.562  16.280  2.6573 -1.4718  0.8391
 8718TIP3   OH247568   1.439   4.373   4.899  0.0544  0.0379 -0.1120
 8718TIP3    H147569   1.440   4.285   4.938  0.5142 -0.1723 -0.5830
 8718TIP3    H247570   1.346   4.397   4.896 -0.1161 -0.6386 -0.4270
 8719TIP3   OH247571   1.983   3.653   5.589  0.3650  0.4505  0.0647
 8719TIP3    H147572   2.061   3.607   5.557  1.1644  3.0895 -2.2262
 8719TIP3    H247573   2.018   3.734   5.627 -1.1516  0.6117  1.1830
 8720TIP3   OH247574   4.363   1.487   5.778  0.2790 -0.1760  0.1068
 8720TIP3    H147575   4.358   1.469   5.685  1.2952  0.9008 -0.1804
 8720TIP3    H247576   4.423   1.419   5.812  0.3710 -0.2140 -0.1297
 8721TIP3   OH247577   4.200   6.730  12.289  0.5607 -0.7563 -0.1925
 8721TIP3    H147578   4.144   6.808  12.291  1.3705 -0.0614 -2.2600
 8721TIP3    H247579   4.203   6.701  12.380 -0.1825  1.3274  0.5684
 8722TIP3   OH247580   2.713   2.634   5.148  0.3306  0.6182  0.5630
 8722TIP3    H147581   2.647   2.640   5.080  0.0298 -0.5141  0.7388
 8722TIP3    H247582   2.765   2.714   5.139  0.1078  0.6244 -0.7970
 8723TIP3   OH247583   0.234   1.000  12.498  0.3716 -0.0324  0.5092
 8723TIP3    H147584   0.189   1.012  12.414 -1.7964  0.6683  1.7094
 8723TIP3    H247585   0.315   0.954  12.474 -0.8067 -1.1137 -1.8110
 8724TIP3   OH247586   6.332   1.293  17.069  0.1574 -0.2841  0.0459
 8724TIP3    H147587   6.410   1.308  17.122 -1.1581  1.1493  1.6785
 8724TIP3    H247588   6.331   1.366  17.006  0.2127 -0.3971 -0.0875
 8725TIP3   OH247589   5.592   1.749   4.034  0.3491  0.4025  0.0151
 8725TIP3    H147590   5.576   1.776   3.944  0.8347 -2.0618 -0.9033
 8725TIP3    H247591   5.522   1.789   4.085 -0.4128  1.1844 -1.5871
 8726TIP3   OH247592   5.394   3.417  11.229 -0.1667 -1.1917  0.0358
 8726TIP3    H147593   5.468   3.471  11.203 -1.4276  0.7037  0.2079
 8726TIP3    H247594   5.433   3.343  11.276  1.5142  1.0862  2.4699
 8727TIP3   OH247595   4.334   6.587   2.152  0.2767  0.3386  0.5252
 8727TIP3    H147596   4.268   6.530   2.191  0.5688  0.2385  0.8886
 8727TIP3    H247597   4.356   6.545   2.069  2.1791 -1.4341  1.7790
 8728TIP3   OH247598   4.894   3.410   5.704  0.0346 -0.5919 -0.1174
 8728TIP3    H147599   4.875   3.375   5.791 -1.2483 -0.6129 -0.3817
 8728TIP3    H247600   4.808   3.419   5.663  0.3035  2.3729 -0.2637
 8729TIP3   OH247601   4.723   5.024  15.754  0.1515  0.4109  0.1072
 8729TIP3    H147602   4.748   5.113  15.776 -1.2565  1.4222 -2.0388
 8729TIP3    H247603   4.786   4.996  15.688  0.0335  0.1521  0.0994
 8730TIP3   OH247604   1.069   2.123  12.490 -0.5940  0.1794  0.3148
 8730TIP3    H147605   1.122   2.202  12.478 -1.6233  0.7029 -1.1777
 8730TIP3    H247606   1.033   2.131  12.578 -0.5656  1.3334  0.2360
 8731TIP3   OH247607   3.352   5.039  11.661 -0.5582  0.2224 -0.0314
 8731TIP3    H147608   3.323   5.001  11.578  1.5886 -1.9763  0.1252
 8731TIP3    H247609   3.328   4.973  11.726  0.0937  0.7392  0.7461
 8732TIP3   OH247610   2.388   3.359  15.910  0.2642  0.3958  0.8098
 8732TIP3    H147611   2.374   3.448  15.944  1.8637  2.4739 -3.2733
 8732TIP3    H247612   2.328   3.352  15.836  0.9302 -1.5324  0.3993
 8733TIP3   OH247613   0.591   3.265   0.708  0.3031 -0.0366 -0.0483
 8733TIP3    H147614   0.512   3.318   0.721  0.9452  0.9365  0.0325
 8733TIP3    H247615   0.600   3.258   0.613 -0.3301 -0.8508 -0.0507
 8734TIP3   OH247616   4.042   3.890   4.671 -0.3424 -0.4006 -0.1218
 8734TIP3    H147617   4.128   3.927   4.653 -1.3448  0.8301 -3.1299
 8734TIP3    H247618   4.037   3.884   4.766  3.0274 -0.5764  0.1750
 8735TIP3   OH247619   4.511   2.971   5.869  0.4888  0.3213  0.2411
 8735TIP3    H147620   4.600   2.936   5.859  0.4816  0.3712 -0.0050
 8735TIP3    H247621   4.524   3.058   5.907  0.6294  0.8888 -1.0729
 8736TIP3   OH247622   0.263   1.844   6.170 -0.1472 -0.3628 -0.7317
 8736TIP3    H147623   0.231   1.753   6.164 -0.0988 -0.4005 -0.4038
 8736TIP3    H247624   0.351   1.840   6.132  1.4147 -1.2247  2.6253
 8737TIP3   OH247625   1.787   5.517  16.693  0.5791 -0.2328  0.2065
 8737TIP3    H147626   1.826   5.536  16.607 -1.0636 -1.9279 -0.9894
 8737TIP3    H247627   1.796   5.598  16.742  1.0019  0.9874 -1.7920
 8738TIP3   OH247628   4.874   0.140   4.386 -0.6077 -0.3712  0.3605
 8738TIP3    H147629   4.827   0.160   4.467 -0.4786  0.7499  0.1762
 8738TIP3    H247630   4.941   0.208   4.380  0.5716 -1.5190  0.2357
 8739TIP3   OH247631   3.330   0.060   5.001  0.7036 -0.2246 -0.0680
 8739TIP3    H147632   3.235   0.053   5.001  0.6772  0.1616  0.0181
 8739TIP3    H247633   3.360  -0.015   5.054  0.5637 -1.9930 -2.3080
 8740TIP3   OH247634   0.871   5.264   3.818  1.0730 -0.3567 -0.2898
 8740TIP3    H147635   0.905   5.192   3.765  2.8343  0.2862 -0.1331
 8740TIP3    H247636   0.793   5.230   3.860  1.3944 -1.8815 -0.8844
 8741TIP3   OH247637   0.197   1.623  10.609  0.8489  0.2716 -0.4241
 8741TIP3    H147638   0.159   1.681  10.675  0.6406  0.2858 -0.5532
 8741TIP3    H247639   0.279   1.593  10.647 -0.0795 -1.0993  0.6113
 8742TIP3   OH247640   6.577   5.461  15.465  0.4423 -0.3223 -0.1035
 8742TIP3    H147641   6.572   5.375  15.423 -1.8604 -0.5540  0.5549
 8742TIP3    H247642   6.601   5.443  15.556  0.7490 -0.1892 -0.1551
 8743TIP3   OH247643   3.553   5.614   4.653  0.2442 -0.2375 -0.5214
 8743TIP3    H147644   3.607   5.633   4.730  1.0474 -1.9455 -0.6212
 8743TIP3    H247645   3.609   5.636   4.578 -0.7241  1.9411 -0.6916
 8744TIP3   OH247646   6.536   5.664   0.866 -0.2298  0.0988  0.0204
 8744TIP3    H147647   6.592   5.665   0.789  1.4173  1.8932  1.1585
 8744TIP3    H247648   6.450   5.690   0.833 -0.4553 -2.5074 -1.7177
 8745TIP3   OH247649   2.421   1.715  11.217 -0.4471 -0.5636  0.0531
 8745TIP3    H147650   2.429   1.788  11.155 -1.3704 -1.6287 -1.3967
 8745TIP3    H247651   2.463   1.642  11.173 -3.3860 -2.0481 -0.5912
 8746TIP3   OH247652   6.493   5.080  15.923  0.3924 -0.4458 -0.7034
 8746TIP3    H147653   6.584   5.105  15.940 -0.1375  2.2650 -1.2795
 8746TIP3    H247654   6.442   5.136  15.981 -0.9495 -1.9058 -0.4054
 8747TIP3   OH247655   6.741   3.422   2.989  0.2801  0.1649 -0.0368
 8747TIP3    H147656   6.810   3.487   3.004  0.0726 -0.0445  2.2122
 8747TIP3    H247657   6.771   3.344   3.037 -1.3729 -0.0220  0.7693
 8748TIP3   OH247658   1.716   1.505   1.481 -0.2668 -0.0673  0.2069
 8748TIP3    H147659   1.632   1.546   1.460 -0.0476  0.7655  0.9148
 8748TIP3    H247660   1.693   1.425   1.528 -0.6873  1.7966  3.4332
 8749TIP3   OH247661   2.030   2.302   2.882 -0.0284  0.6263 -0.5031
 8749TIP3    H147662   1.996   2.253   2.957 -0.3617  2.2021  0.4385
 8749TIP3    H247663   2.093   2.363   2.920 -0.3623  1.6135 -1.4656
 8750TIP3   OH247664   5.442   4.917  16.011  0.2622  0.4285 -0.2433
 8750TIP3    H147665   5.494   4.894  15.935  0.4331 -0.1283  0.0372
 8750TIP3    H247666   5.459   4.846  16.074 -0.0831  0.7414  0.2075
 8751TIP3   OH247667   0.572   6.498   4.375 -0.5642  0.2260 -0.0817
 8751TIP3    H147668   0.530   6.528   4.295  2.1561  0.2382 -1.6324
 8751TIP3    H247669   0.595   6.578   4.422 -1.0971  0.2592  0.1253
 8752TIP3   OH247670   6.733   3.368  16.320  0.0294  0.1780  0.6652
 8752TIP3    H147671   6.749   3.276  16.297  0.3174  0.2707  0.4861
 8752TIP3    H247672   6.812   3.413  16.291  0.5539  0.2652  2.1320
 8753TIP3   OH247673   5.961   6.474  14.072 -0.2504  0.0057  0.4739
 8753TIP3    H147674   5.924   6.510  14.153  0.4999 -0.1430  0.8916
 8753TIP3    H247675   6.055   6.467  14.089 -0.2829 -1.5330  0.1687
 8754TIP3   OH247676   4.664   2.828   4.362 -0.4086 -0.3817 -0.0632
 8754TIP3    H147677   4.627   2.910   4.331  0.2108  0.1972  0.6895
 8754TIP3    H247678   4.675   2.775   4.283 -0.5887  0.3512 -0.5858
 8755TIP3   OH247679   0.045   1.447  15.514  0.3329  0.0701 -0.5328
 8755TIP3    H147680  -0.044   1.472  15.493  0.2600  0.3386  0.0605
 8755TIP3    H247681   0.099   1.484  15.444  0.2242  1.8704  0.2814
 8756TIP3   OH247682   5.044   5.846   3.355 -0.0844  0.0135 -0.2603
 8756TIP3    H147683   5.068   5.938   3.344 -0.8070  0.7046  2.8468
 8756TIP3    H247684   5.123   5.798   3.331  1.1550  1.6227  0.3707
 8757TIP3   OH247685   3.156   2.802  16.701 -0.4336 -0.4697 -0.3783
 8757TIP3    H147686   3.230   2.792  16.641  0.3072 -2.5146  0.7659
 8757TIP3    H247687   3.168   2.889  16.739  1.3326 -0.6872 -0.3413
 8758TIP3   OH247688   2.927   1.006  12.479  0.4538 -0.3302 -0.3859
 8758TIP3    H147689   2.856   1.031  12.538  0.0666  0.8938 -1.3245
 8758TIP3    H247690   2.986   0.952  12.532 -0.5645 -0.3597  0.7287
 8759TIP3   OH247691   6.644   3.589  13.284  0.1481 -0.1935  0.3140
 8759TIP3    H147692   6.629   3.677  13.317  1.2372 -0.6911  2.2731
 8759TIP3    H247693   6.736   3.571  13.301 -0.3551 -2.1936  1.2824
 8760TIP3   OH247694   6.718   1.938  16.924 -0.1560  0.1712 -0.0076
 8760TIP3    H147695   6.739   2.031  16.934 -1.0588  0.8046 -2.8679
 8760TIP3    H247696   6.706   1.927  16.829 -0.6629 -2.7409  0.3164
 8761TIP3   OH247697   2.601   5.297  16.358  0.3700  0.5346 -0.2059
 8761TIP3    H147698   2.593   5.231  16.427 -0.5025  1.8375  1.0045
 8761TIP3    H247699   2.534   5.274  16.295  1.0512 -0.5665 -0.5591
 8762TIP3   OH247700   3.407   5.377   3.432 -0.2828  0.7756 -0.2419
 8762TIP3    H147701   3.437   5.329   3.355 -1.1206 -1.4786  0.7460
 8762TIP3    H247702   3.347   5.317   3.476  0.6315  1.7273  2.4978
 8763TIP3   OH247703   4.035   0.386  16.043 -0.1031  0.0834 -0.2942
 8763TIP3    H147704   4.013   0.374  16.135  1.3104 -0.5411 -0.0140
 8763TIP3    H247705   3.993   0.313  15.998  2.4188 -1.9348  0.4282
 8764TIP3   OH247706   0.025   6.265  16.678 -0.5189 -0.1991  0.2398
 8764TIP3    H147707   0.018   6.241  16.586 -0.7842 -2.7209  0.8528
 8764TIP3    H247708   0.114   6.300  16.687  0.7530 -3.0439 -0.3767
 8765TIP3   OH247709   4.041   1.604   1.462  0.3422 -0.1904 -0.1288
 8765TIP3    H147710   4.010   1.690   1.489  0.4051  0.0103 -0.6697
 8765TIP3    H247711   3.963   1.560   1.428  0.5934  0.2403 -1.3041
 8766TIP3   OH247712   1.966   2.780  12.451  0.2146 -0.1369  0.2991
 8766TIP3    H147713   1.912   2.834  12.394 -0.0543 -0.0358  0.6431
 8766TIP3    H247714   2.005   2.714  12.393 -1.0767 -0.8491  0.1948
 8767TIP3   OH247715   2.750   0.324  12.510 -0.1444 -0.4971  0.8546
 8767TIP3    H147716   2.839   0.360  12.520 -0.4074  0.5599 -0.3524
 8767TIP3    H247717   2.694   0.388  12.553 -0.3886 -0.8712  1.0995
 8768TIP3   OH247718   5.583   2.945  13.304  0.0016  0.2681 -0.3018
 8768TIP3    H147719   5.549   2.888  13.372  1.1217 -0.0728 -0.0007
 8768TIP3    H247720   5.529   2.926  13.227 -0.1921 -0.5713  0.0334
 8769TIP3   OH247721   4.698   6.204  15.138  0.4553  0.4730  0.0293
 8769TIP3    H147722   4.714   6.202  15.232  0.6622 -2.8839  0.0294
 8769TIP3    H247723   4.784   6.192  15.098  0.3007  1.3664 -0.6080
 8770TIP3   OH247724   1.244   6.255   4.619 -0.2873 -0.1648  0.6185
 8770TIP3    H147725   1.328   6.292   4.646  0.0095 -0.8118  0.5794
 8770TIP3    H247726   1.209   6.213   4.698 -0.0015 -0.9631  0.3266
 8771TIP3   OH247727   1.296   1.746   5.739 -0.5323  0.1100 -0.1796
 8771TIP3    H147728   1.276   1.745   5.833 -1.2316  1.8158 -0.2768
 8771TIP3    H247729   1.235   1.683   5.701 -1.9442  1.1815  0.2301
 8772TIP3   OH247730   1.017   2.230  16.956  0.0444 -0.4255 -0.0999
 8772TIP3    H147731   0.934   2.256  16.996  1.2446  1.8183  1.1525
 8772TIP3    H247732   1.016   2.134  16.960 -1.5924 -0.4130  1.7632
 8773TIP3   OH247733   2.480   0.702  14.755 -0.2010 -0.6788 -0.0117
 8773TIP3    H147734   2.560   0.753  14.770 -1.5178  2.4064 -2.4436
 8773TIP3    H247735   2.503   0.642  14.684  0.3864 -0.9127  0.3741
 8774TIP3   OH247736   3.047   0.699   4.429 -0.2882 -0.7211  0.7964
 8774TIP3    H147737   3.025   0.771   4.368  1.0329  0.1625  1.3215
 8774TIP3    H247738   3.078   0.629   4.372 -0.0607 -0.2869  0.3732
 8775TIP3   OH247739   0.828   4.062   1.051  0.4608  0.2088 -0.1009
 8775TIP3    H147740   0.815   3.999   0.981  3.3178  0.3126 -0.8617
 8775TIP3    H247741   0.817   4.012   1.132  1.0683 -0.8878 -0.6790
 8776TIP3   OH247742   6.073   6.187  16.405  0.2259 -0.0278 -0.4601
 8776TIP3    H147743   6.110   6.121  16.463  1.5184 -0.6684 -1.9234
 8776TIP3    H247744   6.069   6.266  16.458  2.0985 -0.3942  0.3171
 8777TIP3   OH247745   6.473   3.717  15.321 -0.1067 -0.1792  0.2711
 8777TIP3    H147746   6.533   3.682  15.387  1.9020  0.1998 -1.2573
 8777TIP3    H247747   6.430   3.640  15.285  1.2990 -0.7369 -0.2842
 8778TIP3   OH247748   4.638   3.504  14.523  0.3120 -0.1652 -0.7149
 8778TIP3    H147749   4.544   3.521  14.537  0.0260 -1.0876 -1.3834
 8778TIP3    H247750   4.666   3.571  14.461  0.0601  0.0401 -0.6079
 8779TIP3   OH247751   6.127   4.257   2.410 -0.3270  0.0318  1.0413
 8779TIP3    H147752   6.182   4.206   2.469  1.4208  0.6059 -0.0250
 8779TIP3    H247753   6.040   4.219   2.420  0.6860 -2.4405  1.0635
 8780TIP3   OH247754   4.613   5.303  16.784 -0.0594 -0.1841  0.5737
 8780TIP3    H147755   4.635   5.391  16.754  0.3605 -1.0313 -1.9165
 8780TIP3    H247756   4.524   5.310  16.818 -0.4899  1.0067 -0.7080
 8781TIP3   OH247757   1.546   5.786  11.362 -0.5298  0.3596  0.1463
 8781TIP3    H147758   1.515   5.873  11.384 -1.2975  0.3507 -0.8303
 8781TIP3    H247759   1.634   5.799  11.327 -0.5464  0.7068  0.2369
 8782TIP3   OH247760   5.023   0.022   1.551 -0.7170 -0.1475 -0.4278
 8782TIP3    H147761   5.109   0.052   1.523 -1.1406  1.6864  0.0684
 8782TIP3    H247762   4.978  -0.002   1.470 -0.6013  1.3701 -0.9701
 8783TIP3   OH247763   1.677   1.355   4.270 -0.3621 -0.3327  0.0574
 8783TIP3    H147764   1.590   1.319   4.289 -1.7306  1.8497 -1.6290
 8783TIP3    H247765   1.711   1.299   4.200 -0.8399 -0.5755  0.0120
 8784TIP3   OH247766   1.697   1.894   1.634 -0.2535  0.0304  0.4596
 8784TIP3    H147767   1.749   1.974   1.642  1.0859 -0.6603 -0.8325
 8784TIP3    H247768   1.615   1.923   1.593  1.1639  0.4678 -2.2939
 8785TIP3   OH247769   4.151   0.993  13.611  0.3597  0.0027  0.2187
 8785TIP3    H147770   4.230   1.045  13.623 -0.1776  0.8544  0.1775
 8785TIP3    H247771   4.169   0.938  13.535  0.6498  0.6872 -0.2076
 8786TIP3   OH247772   0.272   3.301   5.405 -0.3579  0.0392 -0.6437
 8786TIP3    H147773   0.301   3.358   5.334  0.5788  1.1321  0.5682
 8786TIP3    H247774   0.331   3.226   5.401  0.7377  0.8360 -0.0845
 8787TIP3   OH247775   5.323   6.232  15.077 -0.1472  0.0420 -0.2385
 8787TIP3    H147776   5.367   6.289  15.140  1.1514 -1.6473  0.4690
 8787TIP3    H247777   5.310   6.287  15.000 -0.1174  1.6417  0.8526
 8788TIP3   OH247778   0.883   4.323   5.297  0.6732 -0.5724 -0.3017
 8788TIP3    H147779   0.900   4.233   5.326 -1.9706 -1.0992 -0.1397
 8788TIP3    H247780   0.827   4.314   5.220  2.0517  0.9534 -1.5594
 8789TIP3   OH247781   0.718   1.786   3.397 -0.5812  0.1257  0.1098
 8789TIP3    H147782   0.691   1.736   3.474 -1.1521  0.7992  0.3567
 8789TIP3    H247783   0.810   1.806   3.412 -0.6256  0.0398  0.5044
 8790TIP3   OH247784   0.994   1.455  12.557  0.0393  0.4244  0.5784
 8790TIP3    H147785   1.002   1.523  12.490  0.9415  1.9424  2.1240
 8790TIP3    H247786   1.083   1.423  12.570 -0.0308  0.5054  1.3592
 8791TIP3   OH247787   0.739   4.333  11.154  0.5726 -0.1095 -0.1965
 8791TIP3    H147788   0.678   4.271  11.113  0.1588 -0.8084  1.3915
 8791TIP3    H247789   0.734   4.411  11.098 -0.8097 -0.6132 -0.8439
 8792TIP3   OH247790   2.180   1.408   4.354 -0.5264  0.0852 -0.6680
 8792TIP3    H147791   2.205   1.404   4.447  0.8263 -0.4379 -1.0307
 8792TIP3    H247792   2.157   1.318   4.332 -0.0167  0.0395 -1.0396
 8793TIP3   OH247793   2.705   4.095  14.463 -0.5365 -0.3332  0.1547
 8793TIP3    H147794   2.736   4.032  14.529  1.2776  0.3159 -0.0125
 8793TIP3    H247795   2.653   4.042  14.403 -0.1948 -1.4235  0.7677
 8794TIP3   OH247796   4.098   2.741  12.823  0.3121  0.0711 -0.1270
 8794TIP3    H147797   4.187   2.728  12.857  0.2958  1.4147  0.4819
 8794TIP3    H247798   4.109   2.742  12.727  0.8363 -0.5052 -0.0796
 8795TIP3   OH247799   3.211   2.354   4.830 -0.1991  0.2613  0.0331
 8795TIP3    H147800   3.117   2.372   4.822 -0.2793  0.0542  0.4645
 8795TIP3    H247801   3.253   2.439   4.814 -0.4432  0.3002 -0.4300
 8796TIP3   OH247802   2.037   6.382   2.444 -0.0405  0.0182  0.5235
 8796TIP3    H147803   1.953   6.398   2.487 -1.0754  2.0097 -1.9820
 8796TIP3    H247804   2.014   6.356   2.355  2.0285 -1.3039  0.2968
 8797TIP3   OH247805   1.372   1.468   2.015 -0.4616 -0.2533 -0.1409
 8797TIP3    H147806   1.438   1.399   2.010 -0.4452 -0.2967  0.5801
 8797TIP3    H247807   1.411   1.533   2.073  0.0374  0.9413 -1.7157
 8798TIP3   OH247808   2.902   2.155  11.881 -0.1900 -0.1673  0.0131
 8798TIP3    H147809   2.958   2.102  11.824  0.8701 -0.1872  1.0218
 8798TIP3    H247810   2.923   2.125  11.970  1.4597  2.7720  0.7628
 8799TIP3   OH247811   6.048   3.485  13.109 -0.4663 -0.2575 -0.2960
 8799TIP3    H147812   6.040   3.538  13.188  0.8126  0.7976 -0.8320
 8799TIP3    H247813   6.124   3.430  13.125 -0.8459 -0.8092 -0.3728
 8800TIP3   OH247814   1.782   6.580   1.399 -0.6864 -0.1997  0.5156
 8800TIP3    H147815   1.772   6.498   1.350 -0.3735 -0.6363  1.1679
 8800TIP3    H247816   1.754   6.559   1.487 -0.0142  0.2306  0.8397
 8801TIP3   OH247817   0.001   2.939   0.599 -0.1926 -0.6429  0.0276
 8801TIP3    H147818   0.006   2.939   0.695 -2.2570 -0.3366  0.1945
 8801TIP3    H247819  -0.090   2.963   0.581  0.0418 -1.1643 -2.0082
 8802TIP3   OH247820   1.445   2.195   0.750  0.0436 -0.3548  0.2880
 8802TIP3    H147821   1.373   2.255   0.727  0.6179  0.0983 -0.3706
 8802TIP3    H247822   1.472   2.158   0.666 -1.4690 -2.9519  0.8248
 8803TIP3   OH247823   6.505   3.937   5.568 -0.2604  0.0664  0.3377
 8803TIP3    H147824   6.498   3.844   5.591 -2.5191  0.0463 -0.1794
 8803TIP3    H247825   6.515   3.981   5.652 -0.2628 -0.5748  0.6824
 8804TIP3   OH247826   1.623   6.776   4.857 -0.1215  0.1040  0.4952
 8804TIP3    H147827   1.573   6.740   4.785 -0.7999  1.9336  0.0019
 8804TIP3    H247828   1.715   6.770   4.829 -0.2940 -0.3134  0.0208
 8805TIP3   OH247829   2.278   5.961   4.350  0.5115  0.4235 -0.8238
 8805TIP3    H147830   2.201   5.906   4.358 -0.0474  1.4239  3.9617
 8805TIP3    H247831   2.352   5.901   4.359 -0.0631  0.0176  2.9305
 8806TIP3   OH247832   6.128   4.144  12.956  0.2153  0.2934  0.2555
 8806TIP3    H147833   6.209   4.182  12.920 -0.6382  1.3245 -0.6445
 8806TIP3    H247834   6.072   4.130  12.879 -0.5151 -0.2932  0.8792
 8807TIP3   OH247835   3.416   0.355  14.850 -0.0444 -0.0457 -0.3836
 8807TIP3    H147836   3.467   0.380  14.774 -1.7198  0.4784 -1.3708
 8807TIP3    H247837   3.399   0.262  14.838 -2.2647  0.4755 -1.9365
 8808TIP3   OH247838   4.260   3.624  16.879 -0.1169 -0.2937 -0.2725
 8808TIP3    H147839   4.290   3.564  16.811  2.1673 -0.1143  0.5014
 8808TIP3    H247840   4.164   3.624  16.870  0.0344 -1.1823 -2.6696
 8809TIP3   OH247841   2.457   3.191   1.983  0.4430 -0.0763  0.0881
 8809TIP3    H147842   2.514   3.178   2.059 -1.2203 -0.5467  1.3192
 8809TIP3    H247843   2.507   3.248   1.925  1.5234  0.8167  1.8079
 8810TIP3   OH247844   4.264   6.740  16.048  0.0013  0.1155 -0.8890
 8810TIP3    H147845   4.266   6.801  16.121 -1.2268  1.7299 -2.1296
 8810TIP3    H247846   4.332   6.772  15.988 -0.8304  0.4594 -1.6702
 8811TIP3   OH247847   3.839   6.393   2.168 -0.6991  0.9277  0.3540
 8811TIP3    H147848   3.784   6.366   2.241  1.1204 -2.1391  0.7536
 8811TIP3    H247849   3.907   6.326   2.162  2.5634  3.9707 -0.6555
 8812TIP3   OH247850   5.394   5.521   4.652  0.6565  0.1486 -0.5948
 8812TIP3    H147851   5.302   5.497   4.640  0.5555  0.0020  0.3952
 8812TIP3    H247852   5.403   5.535   4.746  0.5550  4.6244 -1.0091
 8813TIP3   OH247853   1.026   5.286  15.211  0.2203  0.1420 -0.3224
 8813TIP3    H147854   1.087   5.280  15.138  0.9809  1.4289  0.1618
 8813TIP3    H247855   0.967   5.212  15.200  0.0874  0.5005 -2.4402
 8814TIP3   OH247856   1.845   4.151   5.498  0.2854  0.1909  0.8807
 8814TIP3    H147857   1.852   4.229   5.554 -2.5714  0.0573  1.5742
 8814TIP3    H247858   1.788   4.092   5.546 -0.1776 -1.0148 -1.0396
 8815TIP3   OH247859   3.399   0.413  14.425 -0.3998  0.0377  0.8106
 8815TIP3    H147860   3.371   0.346  14.487 -0.2270 -0.3829  0.4395
 8815TIP3    H247861   3.363   0.385  14.341 -0.6969  0.6448  0.7331
 8816TIP3   OH247862   1.134   2.273   4.505  0.0915 -0.5331 -0.0226
 8816TIP3    H147863   1.140   2.282   4.410 -0.8354  1.7724  0.0803
 8816TIP3    H247864   1.220   2.240   4.532  1.9111  2.7304 -1.3021
 8817TIP3   OH247865   5.400   6.240  11.495 -0.3369  0.8950  0.0386
 8817TIP3    H147866   5.362   6.328  11.491  1.1552  1.5536 -0.3406
 8817TIP3    H247867   5.383   6.203  11.409  2.0869  2.1991 -1.1151
 8818TIP3   OH247868   0.959   6.231  12.031  0.1160  0.4189  0.1155
 8818TIP3    H147869   1.024   6.161  12.017  1.3550  1.6061 -0.2885
 8818TIP3    H247870   0.972   6.291  11.958  0.0445  1.7801  1.1692
 8819TIP3   OH247871   2.233   3.959   1.016  0.1614  0.1044 -0.3658
 8819TIP3    H147872   2.246   4.025   1.084  1.5706 -1.7507  1.2622
 8819TIP3    H247873   2.181   3.891   1.059  0.9599 -1.0361 -1.1599
 8820TIP3   OH247874   2.656   3.671   0.320  0.7396 -0.7657 -0.0490
 8820TIP3    H147875   2.565   3.661   0.292  0.5872  0.0101  0.1542
 8820TIP3    H247876   2.705   3.616   0.260  0.2572 -0.2734 -0.9220
 8821TIP3   OH247877   2.792   1.919   4.892  0.0201  0.4261 -0.3209
 8821TIP3    H147878   2.803   1.925   4.797  0.9598  1.6962 -0.1627
 8821TIP3    H247879   2.802   2.010   4.922 -1.3920  0.2100  0.8878
 8822TIP3   OH247880   2.553   6.246   3.995 -0.4360  0.1000 -0.1686
 8822TIP3    H147881   2.507   6.164   4.013  0.1861  0.0660  1.4734
 8822TIP3    H247882   2.532   6.302   4.070  0.2195  0.9603 -0.6139
 8823TIP3   OH247883   2.213   1.768  13.761 -0.4093  0.2630 -0.0496
 8823TIP3    H147884   2.282   1.726  13.812 -0.2869  2.7975  2.1067
 8823TIP3    H247885   2.138   1.772  13.821 -1.3900  0.3938 -1.2444
 8824TIP3   OH247886   2.481   5.880   1.172  0.2679 -0.1376 -0.3756
 8824TIP3    H147887   2.488   5.958   1.228 -0.7029  1.3335 -2.1904
 8824TIP3    H247888   2.531   5.903   1.094  0.4482 -1.6025 -0.7047
 8825TIP3   OH247889   0.070   3.159  14.801 -0.7827  0.2884  0.8393
 8825TIP3    H147890   0.119   3.223  14.749  1.8291 -1.5601  0.8588
 8825TIP3    H247891   0.009   3.119  14.739 -0.2547  0.6377  0.0878
 8826TIP3   OH247892   0.479   1.535  12.834  0.3974  0.6513  0.4157
 8826TIP3    H147893   0.571   1.549  12.812  0.1705 -0.4635 -1.4976
 8826TIP3    H247894   0.474   1.445  12.863 -0.2627  0.2582 -0.8180
 8827TIP3   OH247895   2.349   1.283   1.457 -0.6561  0.0638 -0.0357
 8827TIP3    H147896   2.314   1.369   1.479 -0.5837  0.0081  0.3138
 8827TIP3    H247897   2.439   1.285   1.491 -0.3642  0.1565 -0.7978
 8828TIP3   OH247898   0.915   1.514   0.145  0.3190 -0.6244 -0.2000
 8828TIP3    H147899   0.980   1.583   0.162  0.1864 -0.5952  0.1994
 8828TIP3    H247900   0.942   1.442   0.202  1.0413 -1.2884 -1.3374
 8829TIP3   OH247901   3.098   4.382   2.185 -0.3471 -0.5393 -0.5199
 8829TIP3    H147902   3.172   4.413   2.237 -0.6397 -2.2246  0.9960
 8829TIP3    H247903   3.136   4.362   2.099  0.3628  1.2430 -0.6671
 8830TIP3   OH247904   5.916   1.828   5.490  0.1783  0.1961  0.2245
 8830TIP3    H147905   5.989   1.781   5.450  0.6898  0.3490  0.9414
 8830TIP3    H247906   5.959   1.891   5.549 -0.4945  1.2427 -0.3664
 8831TIP3   OH247907   1.265   0.449   2.251 -0.0768 -0.0950 -0.0841
 8831TIP3    H147908   1.237   0.522   2.196  1.8365 -0.2025 -1.3279
 8831TIP3    H247909   1.256   0.372   2.195  1.2638 -0.2990 -0.0695
 8832TIP3   OH247910   5.259   4.610  17.073 -0.2119 -0.0009  0.1813
 8832TIP3    H147911   5.194   4.547  17.042  0.0752 -0.8082  1.1788
 8832TIP3    H247912   5.334   4.599  17.015 -0.7232  0.5092 -0.5954
 8833TIP3   OH247913   6.021   3.385   0.009 -0.3370  1.1719 -0.1911
 8833TIP3    H147914   6.056   3.311  -0.040  2.3083  2.8523 -1.0331
 8833TIP3    H247915   6.017   3.355   0.099  1.9152  0.3560 -0.3060
 8834TIP3   OH247916   5.694   0.345  12.689 -0.2262  0.0414 -0.2160
 8834TIP3    H147917   5.693   0.337  12.784  1.9857 -0.1348 -0.1678
 8834TIP3    H247918   5.724   0.435  12.673 -2.9469  0.9439 -0.8070
 8835TIP3   OH247919   0.964   0.259  12.135 -0.0720 -0.2953  0.2140
 8835TIP3    H147920   1.018   0.184  12.158  0.9101 -0.0288 -1.0755
 8835TIP3    H247921   0.950   0.306  12.217  0.9618 -0.8330  0.7065
 8836TIP3   OH247922   0.428   6.041  11.967  0.0799 -0.0778  0.4785
 8836TIP3    H147923   0.519   6.031  11.995 -0.3664  0.4444  2.2304
 8836TIP3    H247924   0.376   5.999  12.036 -1.0062 -0.6984 -0.6733
 8837TIP3   OH247925   5.204   0.552  13.070 -0.5079 -0.2115  0.7253
 8837TIP3    H147926   5.190   0.522  12.981 -0.2416  0.2568  0.5208
 8837TIP3    H247927   5.237   0.475  13.117  1.6698  0.0956 -0.1647
 8838TIP3   OH247928   6.498   6.472   3.832  0.0031  0.1748 -0.4305
 8838TIP3    H147929   6.507   6.567   3.838  1.0944  0.1426 -1.3961
 8838TIP3    H247930   6.405   6.456   3.851  0.1952  1.2343  1.7466
 8839TIP3   OH247931   1.181   0.330  11.382 -0.0554  0.5280 -0.2412
 8839TIP3    H147932   1.165   0.344  11.475  2.9555  1.1324  0.2743
 8839TIP3    H247933   1.156   0.239  11.367  1.5552 -0.3200  1.7469
 8840TIP3   OH247934   2.142   5.327  14.249 -0.0526 -0.4272  0.1962
 8840TIP3    H147935   2.120   5.364  14.335  0.2406  1.6820 -0.5936
 8840TIP3    H247936   2.238   5.324  14.248  0.0129  0.9224 -0.5516
 8841TIP3   OH247937   4.615   2.220   0.529 -0.3398  0.8555 -0.1821
 8841TIP3    H147938   4.613   2.153   0.461 -1.2423 -0.1303  0.7629
 8841TIP3    H247939   4.703   2.256   0.525  0.6064 -1.2582  0.0464
 8842TIP3   OH247940   6.101   5.552  11.848 -0.0660  0.2635 -0.2423
 8842TIP3    H147941   6.057   5.468  11.834  0.5812  0.0740 -1.2180
 8842TIP3    H247942   6.176   5.550  11.789  0.0412  1.4700 -0.1718
 8843TIP3   OH247943   6.284   2.027  10.466  0.1316 -0.4711  0.6844
 8843TIP3    H147944   6.359   2.085  10.454 -0.2251 -0.2882 -0.9428
 8843TIP3    H247945   6.321   1.946  10.500  1.0165 -0.2562  0.2516
 8844TIP3   OH247946   4.806   3.716  12.296  0.3317  0.5727 -1.2756
 8844TIP3    H147947   4.773   3.792  12.250  1.3244  1.4588 -0.5803
 8844TIP3    H247948   4.900   3.732  12.305  0.0591  1.0509  2.0268
 8845TIP3   OH247949   3.775   6.670  10.711  0.1416  0.4778  0.4315
 8845TIP3    H147950   3.817   6.587  10.687 -0.0273  1.1881 -2.8332
 8845TIP3    H247951   3.836   6.713  10.770  0.8843 -1.3245  1.0359
 8846TIP3   OH247952   6.445   6.799   2.709  0.2222  0.0091 -0.5197
 8846TIP3    H147953   6.534   6.832   2.704  0.7578 -1.0895  1.0794
 8846TIP3    H247954   6.447   6.717   2.659 -0.4359  0.9646 -2.1984
 8847TIP3   OH247955   2.158   5.579   2.266  0.0167 -0.0165 -0.0685
 8847TIP3    H147956   2.123   5.493   2.244 -1.2057  0.6720 -0.9433
 8847TIP3    H247957   2.181   5.573   2.359 -3.4294 -0.2440  0.8873
 8848TIP3   OH247958   2.937   1.189  15.899 -0.4397 -0.4317  0.6039
 8848TIP3    H147959   3.021   1.222  15.868 -0.1106  0.2298  2.0991
 8848TIP3    H247960   2.936   1.097  15.872  0.2120 -0.1260 -0.5033
 8849TIP3   OH247961   3.490   3.892   1.370 -0.2625 -0.4947  0.5252
 8849TIP3    H147962   3.586   3.891   1.376 -0.1878 -0.1227 -0.4323
 8849TIP3    H247963   3.472   3.885   1.276 -1.0932  2.3722  0.3830
 8850TIP3   OH247964   2.197   2.115  13.794  0.1819 -0.3929  0.2144
 8850TIP3    H147965   2.109   2.077  13.788  0.3446 -0.6673 -0.4959
 8850TIP3    H247966   2.207   2.166  13.714  0.3098  0.4242  0.7473
 8851TIP3   OH247967   4.784   6.739  16.592  0.4308 -0.3993 -0.3447
 8851TIP3    H147968   4.781   6.643  16.586  0.4478 -0.4154 -0.1051
 8851TIP3    H247969   4.775   6.769  16.501  2.3610 -0.6723 -0.6720
 8852TIP3   OH247970   6.190   2.100  16.410  0.0939 -0.0281  0.4382
 8852TIP3    H147971   6.218   2.171  16.354  0.3205 -1.1565 -0.9475
 8852TIP3    H247972   6.252   2.099  16.483  1.7793 -0.5040 -0.9471
 8853TIP3   OH247973   1.111   2.126  16.161  0.1782 -0.0116  0.6036
 8853TIP3    H147974   1.081   2.045  16.121 -1.2803 -0.1341  1.8475
 8853TIP3    H247975   1.097   2.193  16.094 -1.6140 -0.3033  0.6379
 8854TIP3   OH247976   0.175   2.432  15.736 -0.4315  0.1656 -0.8222
 8854TIP3    H147977   0.098   2.489  15.745 -1.3975 -1.3157  1.1281
 8854TIP3    H247978   0.154   2.355  15.789  2.3198 -0.4005 -0.3875
 8855TIP3   OH247979   2.061   5.669  15.487  0.0444  0.1311 -0.1986
 8855TIP3    H147980   2.131   5.730  15.510 -0.2888  0.2671  0.4617
 8855TIP3    H247981   1.980   5.718  15.505 -0.2437 -0.8813  1.4482
 8856TIP3   OH247982   5.061   6.141  13.903  0.1855 -0.0010  0.3936
 8856TIP3    H147983   5.055   6.231  13.933  0.3358 -0.1239  0.7991
 8856TIP3    H247984   5.104   6.146  13.818 -0.4041  0.3674  0.1138
 8857TIP3   OH247985   4.623   1.245   6.211  0.1865  0.2865  0.7570
 8857TIP3    H147986   4.641   1.152   6.198  0.1408  0.2350  1.0731
 8857TIP3    H247987   4.534   1.248   6.245 -1.1348  0.6269 -2.3701
 8858TIP3   OH247988   6.633   5.652   1.132 -0.1260 -0.0283  0.2325
 8858TIP3    H147989   6.598   5.735   1.164  0.3470  0.0788  0.4756
 8858TIP3    H247990   6.605   5.648   1.041 -0.6565  0.1190  0.3810
 8859TIP3   OH247991   6.467   1.948  12.562 -0.6573 -0.0717  0.0879
 8859TIP3    H147992   6.556   1.978  12.575 -0.4870 -0.5442  0.0293
 8859TIP3    H247993   6.422   2.022  12.520  0.2688 -0.5729 -1.9187
 8860TIP3   OH247994   2.106   5.374  13.898 -0.2771 -0.0841 -0.2943
 8860TIP3    H147995   2.130   5.283  13.918 -0.9878 -0.1745  0.1708
 8860TIP3    H247996   2.190   5.419  13.889  0.0811 -0.6079  0.3090
 8861TIP3   OH247997   1.475   4.646   0.738 -0.4685  0.6193 -0.3030
 8861TIP3    H147998   1.526   4.723   0.711 -0.2071  0.3294 -0.6440
 8861TIP3    H247999   1.538   4.590   0.783 -0.6422  0.5695 -0.1212
 8862TIP3   OH248000   0.157   2.353   5.365 -0.2889  0.0855 -0.0634
 8862TIP3    H148001   0.108   2.397   5.435 -0.1228  1.7777 -0.9581
 8862TIP3    H248002   0.230   2.311   5.411  0.7849  2.5522  0.6892
 8863TIP3   OH248003   6.364   1.422  11.926  0.2490  0.0636  0.4080
 8863TIP3    H148004   6.303   1.445  11.855  2.9876  2.1468 -1.5451
 8863TIP3    H248005   6.366   1.327  11.926 -1.5115 -0.0227 -0.8159
 8864TIP3   OH248006   2.277   0.028   1.030 -0.0503 -0.4429  0.3801
 8864TIP3    H148007   2.338  -0.040   1.003 -1.6439 -2.6333  1.8815
 8864TIP3    H248008   2.254   0.005   1.120 -2.8791  0.3926 -0.0225
 8865TIP3   OH248009   2.537   2.632  12.797  0.3489 -0.0099 -0.4354
 8865TIP3    H148010   2.560   2.638  12.890 -1.8738 -3.5990  0.5288
 8865TIP3    H248011   2.600   2.570  12.761 -0.2265 -0.4117 -0.7568
 8866TIP3   OH248012   3.380   2.182   2.781  0.4207  0.1317 -0.9957
 8866TIP3    H148013   3.451   2.230   2.825  0.0603  0.1144 -0.3853
 8866TIP3    H248014   3.341   2.246   2.722 -0.7743  0.9619  0.6077
 8867TIP3   OH248015   2.792   1.951  14.742  0.7465  0.5535 -0.9358
 8867TIP3    H148016   2.762   2.042  14.736  0.9784  0.8173  1.1934
 8867TIP3    H248017   2.764   1.911  14.660 -0.9911  2.0891 -1.1515
 8868TIP3   OH248018   6.283   6.291   2.384 -0.1749  0.3269 -0.2013
 8868TIP3    H148019   6.337   6.286   2.463 -0.3402  0.3754 -0.0854
 8868TIP3    H248020   6.343   6.268   2.313  0.5934  2.5072 -0.3361
 8869TIP3   OH248021   5.452   1.366  15.625 -0.2464 -0.2308  0.0133
 8869TIP3    H148022   5.441   1.403  15.713 -1.5543 -0.8813  0.1574
 8869TIP3    H248023   5.501   1.285  15.639  0.1411  0.0116  0.0593
 8870TIP3   OH248024   1.347   4.886  10.777 -0.4471  0.3242  0.2852
 8870TIP3    H148025   1.269   4.937  10.801  0.2995  1.5090  0.3058
 8870TIP3    H248026   1.400   4.947  10.725  0.1313 -0.7027 -0.3655
 8871TIP3   OH248027   2.166   6.033  13.492 -0.0697 -0.1448 -0.2267
 8871TIP3    H148028   2.203   5.951  13.459 -0.0372  0.2574 -1.2203
 8871TIP3    H248029   2.165   6.022  13.587  2.9737 -0.0474 -0.0739
 8872TIP3   OH248030   2.602   4.887  12.687  0.5894  0.0235 -0.0726
 8872TIP3    H148031   2.514   4.854  12.709  0.9977 -0.9101  0.2192
 8872TIP3    H248032   2.586   4.971  12.645 -0.6529 -1.4783 -2.8664
 8873TIP3   OH248033   2.644   2.356   0.698  0.4279 -0.1997 -0.0026
 8873TIP3    H148034   2.707   2.312   0.641  0.6991  0.5096 -0.2604
 8873TIP3    H248035   2.661   2.320   0.785 -1.1871 -2.6580 -0.5885
 8874TIP3   OH248036   2.351   5.938   1.806 -0.2591  0.3570 -0.0435
 8874TIP3    H148037   2.399   5.864   1.843 -0.4847  0.8859  1.3621
 8874TIP3    H248038   2.267   5.937   1.850 -0.5338  1.0408 -0.5349
 8875TIP3   OH248039   0.711   3.183   0.930  0.1076 -0.2724 -0.4326
 8875TIP3    H148040   0.634   3.197   0.986 -0.1202  0.5451 -0.9353
 8875TIP3    H248041   0.677   3.187   0.841  0.6394 -0.5059 -0.6513
 8876TIP3   OH248042   5.592   5.628   1.913  0.2430 -0.0971  0.1728
 8876TIP3    H148043   5.502   5.642   1.883  0.4387 -0.0345 -0.4028
 8876TIP3    H248044   5.583   5.602   2.004 -0.5026 -2.1006 -0.4194
 8877TIP3   OH248045   6.455   0.382   3.499  0.2248  0.2424  0.2476
 8877TIP3    H148046   6.550   0.371   3.505  0.0078 -1.3842  1.0303
 8877TIP3    H248047   6.437   0.386   3.405  1.0286  0.2162  0.0854
 8878TIP3   OH248048   1.408   3.565  10.783 -0.1301  0.3435 -0.3021
 8878TIP3    H148049   1.485   3.621  10.792 -0.7078  1.1692 -0.3795
 8878TIP3    H248050   1.334   3.623  10.801 -0.7277 -0.4709 -0.0847
 8879TIP3   OH248051   1.779   6.170  15.665 -0.6656  0.7480  0.5470
 8879TIP3    H148052   1.773   6.250  15.613  0.2521  0.7620  0.4368
 8879TIP3    H248053   1.866   6.135  15.644 -1.5740 -1.0316 -0.5157
 8880TIP3   OH248054   1.369   3.915  15.085  0.0913  1.0883  0.1004
 8880TIP3    H148055   1.332   3.836  15.125 -0.2705  0.7360 -0.8963
 8880TIP3    H248056   1.463   3.906  15.096  0.0532  0.5192  0.0021
 8881TIP3   OH248057   2.733   2.643   3.541  0.7477  0.1377  0.1232
 8881TIP3    H148058   2.750   2.554   3.569 -0.4526  0.2698  1.3739
 8881TIP3    H248059   2.789   2.656   3.465  0.4203 -1.9093 -0.5137
 8882TIP3   OH248060   0.192   1.613  12.212 -0.3924 -0.5193 -0.0884
 8882TIP3    H148061   0.115   1.670  12.213 -0.4038 -0.5296 -0.2816
 8882TIP3    H248062   0.156   1.524  12.207 -0.3792 -0.4644 -2.6333
 8883TIP3   OH248063   1.101   5.144   0.259 -0.0726  0.4919 -0.2138
 8883TIP3    H148064   1.134   5.095   0.184 -0.0164 -0.5658  0.4757
 8883TIP3    H248065   1.171   5.139   0.324 -0.0285  1.5844 -0.1550
 8884TIP3   OH248066   0.252   3.505   4.948  0.0005  0.2643 -0.5203
 8884TIP3    H148067   0.200   3.515   5.028  2.0205  1.0842  0.7625
 8884TIP3    H248068   0.200   3.549   4.881 -1.0808  0.8576  0.6474
 8885TIP3   OH248069   6.759   4.198  13.824 -0.3632 -0.0978  0.1908
 8885TIP3    H148070   6.850   4.167  13.817  0.3238  1.6475  0.7931
 8885TIP3    H248071   6.756   4.275  13.767 -1.0722  0.6660  1.2309
 8886TIP3   OH248072   4.098   5.519  16.662  0.2298 -0.6686 -0.3163
 8886TIP3    H148073   4.084   5.609  16.633 -0.7097 -1.0947 -1.2836
 8886TIP3    H248074   4.174   5.489  16.612  1.8912  0.2025  1.5463
 8887TIP3   OH248075   4.447   4.974  11.693 -0.5003 -0.0029 -0.8903
 8887TIP3    H148076   4.396   4.993  11.615 -1.1901 -1.8029 -0.9259
 8887TIP3    H248077   4.422   5.042  11.755  0.1300  1.5163 -2.2194
 8888TIP3   OH248078   2.273   6.403   5.089 -0.1245 -0.2565 -0.2913
 8888TIP3    H148079   2.254   6.346   5.163  0.7019  0.1397  0.2473
 8888TIP3    H248080   2.364   6.383   5.066 -0.5909 -0.9081 -1.6947
 8889TIP3   OH248081   0.049   3.253  12.845  0.3682 -0.4781 -0.2605
 8889TIP3    H148082   0.068   3.295  12.929 -1.3746  0.6185 -0.3724
 8889TIP3    H248083   0.134   3.224  12.813  1.4131  1.4004  0.6728
 8890TIP3   OH248084   5.219   4.827   4.478 -0.2975  0.5177  0.1023
 8890TIP3    H148085   5.138   4.875   4.459  1.2109  3.2741  0.1496
 8890TIP3    H248086   5.251   4.866   4.559  0.2002 -1.7970  1.0893
 8891TIP3   OH248087   1.716   3.109   3.966  0.5649  0.0619 -0.1981
 8891TIP3    H148088   1.721   3.081   3.874 -0.0761 -2.8410  0.5542
 8891TIP3    H248089   1.623   3.106   3.987  0.8823 -1.6829  1.1527
 8892TIP3   OH248090   0.870   5.301  13.150  0.0436 -0.1198 -0.3353
 8892TIP3    H148091   0.784   5.314  13.190  0.5787  1.1660  0.4867
 8892TIP3    H248092   0.929   5.286  13.224  1.1270  2.6727 -0.5051
 8893TIP3   OH248093   3.785   1.361   2.871  0.4359  0.1435  0.0549
 8893TIP3    H148094   3.799   1.373   2.965  1.2199 -0.7011  0.0559
 8893TIP3    H248095   3.707   1.413   2.852 -0.3683 -0.5146  1.3772
 8894TIP3   OH248096   6.241   4.602  17.077  0.2716  0.5534  0.5986
 8894TIP3    H148097   6.177   4.600  17.007  2.0260 -1.6085 -1.0809
 8894TIP3    H248098   6.189   4.602  17.158 -1.7896  1.3033 -0.6742
 8895TIP3   OH248099   0.704   1.886  16.735 -0.5111  0.5554 -0.2297
 8895TIP3    H148100   0.702   1.978  16.708 -1.4112  1.2151  1.8807
 8895TIP3    H248101   0.741   1.888  16.823  0.5218 -1.2671 -0.5664
 8896TIP3   OH248102   0.913   0.991  14.344  0.0889 -0.1262  0.4626
 8896TIP3    H148103   0.973   0.969  14.273 -0.2895  0.9886 -0.2334
 8896TIP3    H248104   0.955   0.956  14.423  0.7039 -1.0484 -0.2541
 8897TIP3   OH248105   1.571   3.601   0.504 -0.4028  0.1220  0.4837
 8897TIP3    H148106   1.545   3.551   0.427  0.0105  0.6824 -0.0370
 8897TIP3    H248107   1.643   3.550   0.542 -0.2573  0.1036  0.1919
 8898TIP3   OH248108   5.118   5.274   1.377  0.5494 -0.2438  0.2661
 8898TIP3    H148109   5.179   5.203   1.356  0.9924 -0.6561  2.7082
 8898TIP3    H248110   5.174   5.346   1.405  0.0524  0.8725 -1.4181
 8899TIP3   OH248111   1.793   2.083  14.916 -0.2657 -0.2135  0.0474
 8899TIP3    H148112   1.817   2.028  14.841  0.9190  0.3284  0.0099
 8899TIP3    H248113   1.713   2.044  14.950  0.1042 -1.4636 -0.4849
 8900TIP3   OH248114   5.798   1.045  12.134  0.2921 -0.3448  0.0644
 8900TIP3    H148115   5.877   1.032  12.081  0.0757 -1.4445 -0.0184
 8900TIP3    H248116   5.828   1.094  12.210  0.8129  0.3386 -0.5671
 8901TIP3   OH248117   3.955   3.526  16.476 -0.2979  0.2166 -0.3618
 8901TIP3    H148118   3.931   3.593  16.412  1.3771  1.9812  0.7634
 8901TIP3    H248119   4.050   3.532  16.483 -0.2225 -1.5250  0.6132
 8902TIP3   OH248120   5.051   0.073  15.747 -0.4305 -0.3001 -0.5488
 8902TIP3    H148121   5.124   0.062  15.686 -1.0360  0.4553 -1.4422
 8902TIP3    H248122   5.083   0.037  15.830  1.1672  0.5680 -0.7487
 8903TIP3   OH248123   1.329   3.917  16.399 -0.1115  0.9282  0.1389
 8903TIP3    H148124   1.254   3.938  16.455 -0.0650  0.3723  0.4130
 8903TIP3    H248125   1.397   3.978  16.426 -0.5157  1.5606 -0.2341
 8904TIP3   OH248126   0.405   6.774   1.728 -0.3432 -0.2354 -0.0725
 8904TIP3    H148127   0.464   6.824   1.785  1.7945  2.1373 -3.9185
 8904TIP3    H248128   0.325   6.826   1.724  0.0911  0.4154 -0.4270
 8905TIP3   OH248129   6.024   1.761  12.696  0.2401  0.1874  0.1937
 8905TIP3    H148130   6.048   1.669  12.690 -0.6893 -0.0654  0.0685
 8905TIP3    H248131   6.018   1.790  12.605 -0.9139 -0.0511  0.1663
 8906TIP3   OH248132   0.739   4.938  13.684 -0.0233 -0.0736  0.4348
 8906TIP3    H148133   0.717   4.980  13.767  0.0135 -1.1039  0.9888
 8906TIP3    H248134   0.802   4.870  13.708 -0.9968 -1.2571 -0.2169
 8907TIP3   OH248135   1.516   3.594   2.535 -0.5339 -0.0017  0.2104
 8907TIP3    H148136   1.440   3.606   2.478 -0.7565 -1.2982  0.2069
 8907TIP3    H248137   1.486   3.620   2.622 -0.4946  0.9912 -0.0542
 8908TIP3   OH248138   5.507   6.645   5.916  0.5927  0.3938 -0.0459
 8908TIP3    H148139   5.576   6.709   5.901 -0.1214  0.8473 -1.5387
 8908TIP3    H248140   5.546   6.582   5.976  1.9564  1.1704 -0.0733
 8909TIP3   OH248141   3.606   5.401  14.359 -0.6183 -0.7221 -0.1856
 8909TIP3    H148142   3.520   5.442  14.348 -0.1288  0.0372 -1.4223
 8909TIP3    H248143   3.613   5.384  14.453 -1.8346 -0.1587  0.0271
 8910TIP3   OH248144   2.996   5.983  15.475 -0.3612  0.3536  0.0992
 8910TIP3    H148145   2.988   6.024  15.389  0.5674 -0.0002 -0.1683
 8910TIP3    H248146   2.933   5.910  15.473 -0.5236  0.5002 -0.1761
 8911TIP3   OH248147   3.998   6.614   1.136  0.0093  0.2210  0.1493
 8911TIP3    H148148   3.969   6.700   1.165 -0.8183  0.1733 -0.4891
 8911TIP3    H248149   3.991   6.559   1.214 -2.2135  0.0874 -0.0732
 8912TIP3   OH248150   3.133   2.602   6.394  0.0641 -0.8672 -0.2803
 8912TIP3    H148151   3.151   2.640   6.481  1.1783 -1.7291 -0.1093
 8912TIP3    H248152   3.039   2.611   6.383 -0.5061 -2.7960  2.0451
 8913TIP3   OH248153   1.149   4.690  16.603  0.1629 -0.5990  0.4045
 8913TIP3    H148154   1.192   4.775  16.602  1.9039 -1.4256 -0.9538
 8913TIP3    H248155   1.124   4.674  16.512  2.0149 -2.5088  0.1624
 8914TIP3   OH248156   5.842   1.624  13.936 -0.2356  0.1419 -0.1315
 8914TIP3    H148157   5.764   1.673  13.964 -1.0431 -0.5845 -1.0380
 8914TIP3    H248158   5.807   1.549  13.888  0.9679 -1.2546  1.0717
 8915TIP3   OH248159   5.144   5.952  13.304 -0.0949 -0.7366  0.5981
 8915TIP3    H148160   5.063   5.901  13.303 -1.0846  0.7176  1.7259
 8915TIP3    H248161   5.173   5.953  13.213 -0.5174 -2.5221  0.4019
 8916TIP3   OH248162   0.660   3.286  15.968 -0.1661 -0.2042 -0.3457
 8916TIP3    H148163   0.622   3.204  15.936  0.4210 -0.3847 -0.6006
 8916TIP3    H248164   0.624   3.353  15.910  1.2278 -0.5804 -1.7039
 8917TIP3   OH248165   2.816   0.076   1.536 -0.2540 -0.3369  0.8641
 8917TIP3    H148166   2.835  -0.015   1.559  0.3444  0.2761  3.0221
 8917TIP3    H248167   2.901   0.120   1.538 -0.6323  0.4315  0.6127
 8918TIP3   OH248168   6.494   2.145   4.406  0.2396 -0.5856  0.3214
 8918TIP3    H148169   6.561   2.211   4.422  1.0194 -1.1997 -0.3075
 8918TIP3    H248170   6.515   2.110   4.319  0.4050 -2.2937  1.0088
 8919TIP3   OH248171   1.611   5.023  13.121 -0.4237 -0.2513 -0.7950
 8919TIP3    H148172   1.682   5.039  13.183 -0.0110 -0.8936 -1.0873
 8919TIP3    H248173   1.558   5.103  13.123  0.5228  0.3856 -0.8652
 8920TIP3   OH248174   4.957   3.723   4.669  0.2562  0.2521  0.0873
 8920TIP3    H148175   4.982   3.691   4.582 -0.7768  0.9733 -0.4868
 8920TIP3    H248176   5.012   3.800   4.683  1.8849 -1.0036  0.9661
 8921TIP3   OH248177   6.771   4.053   2.341  0.3613  0.1546  0.4096
 8921TIP3    H148178   6.835   4.072   2.410  0.0391 -0.7180  0.9659
 8921TIP3    H248179   6.691   4.029   2.389  0.8607 -3.1245 -0.1831
 8922TIP3   OH248180   1.395   3.728   3.189  0.0586  0.1308  0.1192
 8922TIP3    H148181   1.300   3.741   3.182  0.1284  1.9470  1.7760
 8922TIP3    H248182   1.432   3.789   3.126  0.1378  1.8289  1.6989
 8923TIP3   OH248183   2.165   6.086   1.279 -0.4032  0.0945  0.4117
 8923TIP3    H148184   2.185   6.085   1.185  1.7702 -0.6163  0.8459
 8923TIP3    H248185   2.096   6.152   1.287  0.1738  1.0194 -1.5215
 8924TIP3   OH248186   0.937   5.450   0.520  0.9603  0.4621  0.1379
 8924TIP3    H148187   1.023   5.447   0.563  0.8446 -2.8710  0.4046
 8924TIP3    H248188   0.913   5.358   0.509 -1.1998  1.2320 -2.7950
 8925TIP3   OH248189   0.924   5.637  12.380  0.1902 -0.2681 -0.2695
 8925TIP3    H148190   0.947   5.544  12.388 -1.5423 -0.8081 -1.0007
 8925TIP3    H248191   0.852   5.649  12.442  0.3952  0.5884 -0.1921
 8926TIP3   OH248192   5.284   6.095   1.570 -0.5337  0.4674 -0.4197
 8926TIP3    H148193   5.228   6.017   1.568  0.7923 -0.4960 -1.3670
 8926TIP3    H248194   5.301   6.110   1.663  0.7495 -1.5685 -0.2648
 8927TIP3   OH248195   3.901   4.435  11.635 -0.4707  0.6608  0.7552
 8927TIP3    H148196   3.961   4.364  11.614 -0.2827  1.2498 -0.8907
 8927TIP3    H248197   3.904   4.442  11.730  2.9445  1.3719  0.7425
 8928TIP3   OH248198   0.590   5.208  11.106  0.2651 -0.3167  0.3585
 8928TIP3    H148199   0.543   5.140  11.059  1.2893 -0.1218 -1.0057
 8928TIP3    H248200   0.638   5.255  11.039  0.1792  1.2930  1.3554
 8929TIP3   OH248201   3.748   2.322   2.325 -0.1531  0.7761  0.1263
 8929TIP3    H148202   3.770   2.332   2.232 -1.3929  0.4580 -0.2127
 8929TIP3    H248203   3.795   2.393   2.369 -2.6660  3.4877 -1.2300
 8930TIP3   OH248204   5.052   4.447  16.670  0.1656  0.1785  0.1816
 8930TIP3    H148205   4.960   4.463  16.691  0.4840  0.7882  1.2205
 8930TIP3    H248206   5.070   4.504  16.595  0.4860  2.5886  1.9608
 8931TIP3   OH248207   0.370   6.618   3.868 -0.1423  0.0682 -0.1494
 8931TIP3    H148208   0.441   6.672   3.834  0.0842  0.1792  0.4882
 8931TIP3    H248209   0.400   6.589   3.954  0.2226 -1.9956 -0.9169
 8932TIP3   OH248210   3.602   6.606  14.277 -0.2408 -0.1055 -0.2120
 8932TIP3    H148211   3.609   6.685  14.330  2.3712  0.0625 -0.6386
 8932TIP3    H248212   3.516   6.612  14.236 -1.4195  0.8558  2.2224
 8933TIP3   OH248213   3.647   5.574  11.573 -0.7639  0.2640 -0.0829
 8933TIP3    H148214   3.654   5.581  11.478 -0.3692 -2.2663 -0.3234
 8933TIP3    H248215   3.628   5.663  11.603 -1.1400  1.0817 -2.5361
 8934TIP3   OH248216   0.462   1.691  13.359  0.0211  0.3806  0.4145
 8934TIP3    H148217   0.372   1.708  13.386 -0.3275 -1.4525  0.5392
 8934TIP3    H248218   0.456   1.615  13.300  1.5865 -0.5188  1.3453
 8935TIP3   OH248219   6.548   1.901  11.254 -0.0392 -0.0034  0.0943
 8935TIP3    H148220   6.542   1.996  11.267  0.6127  0.2808 -1.4675
 8935TIP3    H248221   6.458   1.873  11.240 -0.2783  0.3122  0.9378
 8936TIP3   OH248222   1.168   0.847  16.296  0.2628 -0.4635  0.0526
 8936TIP3    H148223   1.199   0.757  16.302 -0.6719 -0.7304  1.4162
 8936TIP3    H248224   1.073   0.840  16.303  0.0990  0.5741 -0.7742
 8937TIP3   OH248225   0.947   6.254  16.619  0.0045 -0.5737  0.4762
 8937TIP3    H148226   1.006   6.186  16.586  0.8438  0.2893  0.1708
 8937TIP3    H248227   0.914   6.219  16.702 -0.7191 -1.9779 -0.3612
 8938TIP3   OH248228   5.063   5.490  16.729 -0.1256  0.2011  0.2347
 8938TIP3    H148229   4.997   5.559  16.737  0.0789  0.5087 -0.5783
 8938TIP3    H248230   5.087   5.468  16.819 -1.4338 -0.0167  0.5411
 8939TIP3   OH248231   1.103   5.537   5.050  0.7355  0.2479 -0.5296
 8939TIP3    H148232   1.183   5.565   5.005  1.3296 -0.5211  0.0146
 8939TIP3    H248233   1.132   5.465   5.106 -0.2041  0.4460  0.2277
 8940TIP3   OH248234   3.735   1.980   6.134  0.6216  0.0301  0.1762
 8940TIP3    H148235   3.719   1.902   6.186 -0.6894 -0.1691 -0.4743
 8940TIP3    H248236   3.713   2.053   6.193  0.0401 -0.1614  0.2021
 8941TIP3   OH248237   5.760   1.052  14.405  0.2673 -0.2122 -0.5968
 8941TIP3    H148238   5.836   1.033  14.461 -0.1635  1.2253  0.5464
 8941TIP3    H248239   5.716   0.967  14.395  1.7253 -0.9611 -0.8522
 8942TIP3   OH248240   5.868   6.276   0.364 -0.6396 -0.4530  0.3350
 8942TIP3    H148241   5.912   6.271   0.279 -0.3090  0.6398  0.4156
 8942TIP3    H248242   5.810   6.201   0.366  0.4779 -1.3703 -0.2152
 8943TIP3   OH248243   6.177   6.329  15.753  0.4771  0.1791  0.9289
 8943TIP3    H148244   6.208   6.387  15.822  1.0450  1.0676 -0.0427
 8943TIP3    H248245   6.255   6.279  15.727  0.6508  0.9703 -0.1277
 8944TIP3   OH248246   5.899   4.350  15.055 -0.7266  0.0855 -0.6810
 8944TIP3    H148247   5.993   4.348  15.039 -0.6870  1.7864 -0.8737
 8944TIP3    H248248   5.890   4.386  15.144 -1.1945 -0.1460 -0.6292
 8945TIP3   OH248249   5.459   3.832  14.934 -0.6300  0.5994 -0.3778
 8945TIP3    H148250   5.390   3.779  14.893 -0.2346 -0.2993  0.0950
 8945TIP3    H248251   5.522   3.768  14.967  0.7820  1.4160 -1.3730
 8946TIP3   OH248252   0.356   5.519  16.276  0.0227 -0.8219  0.4523
 8946TIP3    H148253   0.425   5.560  16.328 -0.6979 -1.1324  1.6889
 8946TIP3    H248254   0.348   5.575  16.199  0.8904 -0.1654  0.8168
 8947TIP3   OH248255   0.893   2.496  13.611  0.5674  0.4140 -0.4565
 8947TIP3    H148256   0.960   2.565  13.605  2.4076 -1.3521 -1.3322
 8947TIP3    H248257   0.865   2.482  13.520  0.9909 -0.6941 -0.4308
 8948TIP3   OH248258   3.429   3.689  12.999 -0.0799  0.1885 -0.1648
 8948TIP3    H148259   3.389   3.606  13.024  0.1508  0.3899  0.9090
 8948TIP3    H248260   3.513   3.665  12.960  1.8224 -0.0174  3.5987
 8949TIP3   OH248261   4.634   4.567  14.886  0.1627 -0.0201 -0.2869
 8949TIP3    H148262   4.646   4.572  14.981 -0.2722  0.0602 -0.2327
 8949TIP3    H248263   4.563   4.629  14.867  0.5701  0.3244 -0.7285
 8950TIP3   OH248264   3.039   0.869   3.359  0.1819 -0.0812  0.1498
 8950TIP3    H148265   3.120   0.908   3.327  0.3401 -0.2397  0.3576
 8950TIP3    H248266   3.067   0.799   3.418 -0.0988 -0.4211 -0.1129
 8951TIP3   OH248267   6.324   6.730   4.417  0.0655  0.2126 -0.0573
 8951TIP3    H148268   6.338   6.764   4.506  0.0301  0.3108 -0.0893
 8951TIP3    H248269   6.239   6.765   4.391 -0.3931 -0.6386  0.2593
 8952TIP3   OH248270   2.565   6.612   2.855  0.0546  0.1706  0.1000
 8952TIP3    H148271   2.573   6.535   2.799  2.5306  1.0690 -0.9580
 8952TIP3    H248272   2.637   6.605   2.917  0.8459  1.9696 -0.5390
 8953TIP3   OH248273   5.155   5.404  15.374  1.1825  0.5635  0.5787
 8953TIP3    H148274   5.127   5.495  15.360  0.8800  0.1827 -1.6267
 8953TIP3    H248275   5.105   5.354  15.310  2.5111 -0.9403  0.6625
 8954TIP3   OH248276   0.251   3.428   3.311  0.0542 -0.4892 -0.4644
 8954TIP3    H148277   0.320   3.431   3.378 -0.3598 -1.3111  0.0161
 8954TIP3    H248278   0.185   3.369   3.347 -1.6959  1.5156 -0.1938
 8955TIP3   OH248279   2.431   1.913  13.326 -1.2470  0.2018 -0.1557
 8955TIP3    H148280   2.405   1.957  13.245 -1.3642  0.8462  0.2240
 8955TIP3    H248281   2.352   1.915  13.381 -0.3569  2.6000  1.1981
 8956TIP3   OH248282   2.995   6.371   1.511 -0.2776 -0.1706  0.0835
 8956TIP3    H148283   2.992   6.301   1.576 -0.0572 -0.8326 -0.5953
 8956TIP3    H248284   3.074   6.352   1.459 -0.8249 -0.0661 -0.8097
 8957TIP3   OH248285   0.528   2.594  10.474 -0.4094 -0.0230  0.1457
 8957TIP3    H148286   0.569   2.613  10.389 -0.5259 -0.0408  0.0865
 8957TIP3    H248287   0.601   2.566  10.530 -0.1799  0.9056  0.3247
 8958TIP3   OH248288   1.677   2.203  14.134  0.0222 -0.0109 -0.4195
 8958TIP3    H148289   1.757   2.209  14.186 -0.9727  1.5792  0.9971
 8958TIP3    H248290   1.698   2.248  14.052  0.0488  2.1194  0.6916
 8959TIP3   OH248291   4.436   3.474   5.987 -0.4614 -0.1935 -0.0554
 8959TIP3    H148292   4.456   3.567   5.977  1.7467 -0.4611  1.1591
 8959TIP3    H248293   4.456   3.436   5.901 -0.5366  0.3193 -0.3049
 8960TIP3   OH248294   2.228   0.275   0.912  0.1548  0.0563  0.1550
 8960TIP3    H148295   2.224   0.185   0.945 -0.9294 -0.2082 -0.6133
 8960TIP3    H248296   2.154   0.280   0.850 -0.6297  1.8591  1.1713
 8961TIP3   OH248297   3.153   4.328  15.604 -0.3863  0.4095  1.0083
 8961TIP3    H148298   3.127   4.237  15.597  0.1620  0.1291  2.3740
 8961TIP3    H248299   3.238   4.332  15.559 -1.2174  0.6529 -0.6176
 8962TIP3   OH248300   4.754   6.769  14.474  0.2504 -0.2883  0.1555
 8962TIP3    H148301   4.731   6.809  14.558 -1.2125  0.5940 -0.6206
 8962TIP3    H248302   4.673   6.773  14.422  1.3202 -0.0838 -1.5824
 8963TIP3   OH248303   0.656   5.359  11.337 -0.0031 -0.2224 -0.4147
 8963TIP3    H148304   0.621   5.295  11.275 -0.6295 -0.7814  0.4912
 8963TIP3    H248305   0.748   5.368  11.313  0.0187 -1.2251 -0.7641
 8964TIP3   OH248306   1.999   4.898   5.641  0.2073  0.4406 -0.5049
 8964TIP3    H148307   1.972   4.938   5.724 -0.8707 -0.9039 -0.1671
 8964TIP3    H248308   2.033   4.812   5.666 -4.6052 -2.1684 -1.6683
 8965TIP3   OH248309   6.296   5.737  14.294  0.4281 -1.0797 -0.0812
 8965TIP3    H148310   6.281   5.671  14.361  1.2405 -0.4016  0.8044
 8965TIP3    H248311   6.297   5.820  14.342 -2.4343 -0.1545 -1.3910
 8966TIP3   OH248312   0.939   5.901   5.641 -0.2728 -0.1957 -0.3371
 8966TIP3    H148313   1.020   5.942   5.608 -0.3779  0.9268  0.7099
 8966TIP3    H248314   0.962   5.870   5.728 -0.7651 -0.5797 -0.3413
 8967TIP3   OH248315   1.549   5.409  13.902  0.3922  0.4748  0.0857
 8967TIP3    H148316   1.606   5.478  13.869  0.2508 -0.6607 -2.8038
 8967TIP3    H248317   1.602   5.329  13.899 -0.1160  0.0717  1.2542
 8968TIP3   OH248318   1.448   4.230  16.812 -0.4134 -0.2844 -0.5130
 8968TIP3    H148319   1.462   4.324  16.803 -0.5084  0.0425  2.1194
 8968TIP3    H248320   1.526   4.198  16.857 -0.1477 -1.5861 -1.8194
 8969TIP3   OH248321   2.302   4.955  13.060  1.0847 -0.2768  0.1195
 8969TIP3    H148322   2.329   5.035  13.105 -0.5092  0.9500 -0.9819
 8969TIP3    H248323   2.364   4.944  12.989  0.8751  0.4351 -0.1819
 8970TIP3   OH248324   1.244   0.537  14.457 -0.0157  0.6882 -0.8470
 8970TIP3    H148325   1.291   0.458  14.433 -0.1727  0.2983  0.1014
 8970TIP3    H248326   1.303   0.585  14.515 -0.3668  0.7057 -0.4977
 8971TIP3   OH248327   3.422   4.914  15.819 -0.3048  0.9924 -0.3068
 8971TIP3    H148328   3.375   4.990  15.784 -1.1884  1.5582  1.9499
 8971TIP3    H248329   3.354   4.849  15.836  0.4806 -0.5869 -2.6031
 8972TIP3   OH248330   1.073   3.788   1.540 -0.1922  0.4142  0.0798
 8972TIP3    H148331   0.984   3.753   1.539  0.3281 -0.9932  0.2113
 8972TIP3    H248332   1.122   3.725   1.592  1.0606  0.7239 -0.6997
 8973TIP3   OH248333   0.849   0.048  11.268 -0.6815 -0.4005  0.4589
 8973TIP3    H148334   0.856  -0.047  11.275 -0.2502 -0.2512  2.7376
 8973TIP3    H248335   0.757   0.067  11.285 -1.2178 -0.4988 -2.0300
 8974TIP3   OH248336   4.643   5.182   0.638 -0.2922  0.2940 -0.5379
 8974TIP3    H148337   4.645   5.157   0.730 -0.9391 -0.5144 -0.7363
 8974TIP3    H248338   4.734   5.204   0.617  0.1048 -0.8063 -0.0506
 8975TIP3   OH248339   0.429   1.481  10.755 -0.7372  0.6888 -0.1919
 8975TIP3    H148340   0.372   1.411  10.788  1.0391 -1.1728 -0.8641
 8975TIP3    H248341   0.435   1.543  10.827 -0.7193 -0.9143  1.2579
 8976TIP3   OH248342   0.238   4.669   0.172  0.2745 -0.1298 -0.1704
 8976TIP3    H148343   0.216   4.761   0.157  0.5642 -0.3068 -1.8698
 8976TIP3    H248344   0.168   4.620   0.129  0.3505 -0.7092  0.3499
 8977TIP3   OH248345   5.930   6.245   3.869 -0.5918 -0.4326  0.0249
 8977TIP3    H148346   5.962   6.158   3.845  0.6987  0.3630 -1.3326
 8977TIP3    H248347   5.944   6.298   3.791 -1.7178  0.9172  0.6981
 8978TIP3   OH248348   0.904   6.181  13.561 -0.2686 -0.1283 -0.4697
 8978TIP3    H148349   0.815   6.183  13.524 -0.3734 -2.4795 -0.4903
 8978TIP3    H248350   0.920   6.088  13.579  1.5354  0.4502  1.1859
 8979TIP3   OH248351   4.779   2.489  11.493  0.2485  0.2508 -0.6463
 8979TIP3    H148352   4.717   2.529  11.431 -0.2854  0.7958  0.2181
 8979TIP3    H248353   4.810   2.563  11.546  0.5288 -0.2477 -0.1144
 8980TIP3   OH248354   1.342   6.317  11.866 -0.6712 -0.7476  0.3016
 8980TIP3    H148355   1.401   6.243  11.852 -0.8790 -1.1329  1.3253
 8980TIP3    H248356   1.254   6.280  11.856 -0.7612 -0.2663 -0.8117
 8981TIP3   OH248357   6.117   6.210   1.026  0.1527 -0.3264  0.0564
 8981TIP3    H148358   6.088   6.176   1.111 -2.0049  1.0741 -0.0448
 8981TIP3    H248359   6.069   6.292   1.015  0.4732 -0.3873 -2.4518
 8982TIP3   OH248360   3.154   2.302   2.954 -0.3048  0.5715 -0.5790
 8982TIP3    H148361   3.205   2.294   3.035 -0.3201  0.5401 -0.5728
 8982TIP3    H248362   3.209   2.260   2.887  0.9729  2.9217 -1.1315
 8983TIP3   OH248363   1.674   6.796  12.822 -0.1580  0.0980 -0.1784
 8983TIP3    H148364   1.629   6.855  12.882 -0.3117 -0.0269 -0.1693
 8983TIP3    H248365   1.668   6.839  12.736 -0.1606  0.1544 -0.1504
 8984TIP3   OH248366   2.595   5.799   5.203  0.0731  0.9199 -0.0828
 8984TIP3    H148367   2.546   5.793   5.121 -0.5248  1.7732  0.1976
 8984TIP3    H248368   2.674   5.748   5.188 -1.2022 -1.1299 -0.3158
 8985TIP3   OH248369   0.329   2.403   0.119  0.1171  0.4557 -0.2168
 8985TIP3    H148370   0.420   2.377   0.112 -0.1597 -0.6269  0.0126
 8985TIP3    H248371   0.280   2.320   0.120 -0.7736  0.9646  0.8257
 8986TIP3   OH248372   1.734   2.624  12.527  0.4820  0.4711 -0.1865
 8986TIP3    H148373   1.739   2.587  12.438  0.5708  0.4660 -0.1796
 8986TIP3    H248374   1.817   2.671  12.537  0.6700  0.0896  0.0626
 8987TIP3   OH248375   5.138   4.631  16.490 -1.1332 -0.2560  0.6739
 8987TIP3    H148376   5.188   4.712  16.495 -1.8677  0.2338  0.2176
 8987TIP3    H248377   5.139   4.607  16.398  1.3235 -2.2308  1.1174
 8988TIP3   OH248378   4.803   6.305   4.091 -0.5569 -0.0861 -0.1250
 8988TIP3    H148379   4.870   6.270   4.150  0.0526 -0.6703 -1.1387
 8988TIP3    H248380   4.738   6.343   4.150  0.9173  0.9903  0.8779
 8989TIP3   OH248381   2.859   1.225  11.786  0.2112  0.3072  0.1876
 8989TIP3    H148382   2.828   1.243  11.698 -2.7905 -0.5646  0.9531
 8989TIP3    H248383   2.786   1.248  11.843  2.0459  0.8369  2.4842
 8990TIP3   OH248384   0.730   1.374  15.637 -0.7923 -0.3566 -0.5634
 8990TIP3    H148385   0.711   1.283  15.615 -0.5218 -0.4408 -0.4483
 8990TIP3    H248386   0.694   1.385  15.725  1.4138 -1.0865  0.4944
 8991TIP3   OH248387   4.103   4.605   0.483  0.1874 -0.3110  0.4183
 8991TIP3    H148388   4.104   4.527   0.539 -1.2952  0.0649  1.0003
 8991TIP3    H248389   4.118   4.678   0.543 -0.7985  0.0424  0.2600
 8992TIP3   OH248390   3.823   4.140  15.163  0.1289 -0.8421 -0.3174
 8992TIP3    H148391   3.768   4.211  15.194  1.4759 -0.3559  1.1170
 8992TIP3    H248392   3.780   4.060  15.193  0.6338 -0.4354  1.6689
 8993TIP3   OH248393   4.944   2.481   4.608 -0.0074  0.1106 -0.3398
 8993TIP3    H148394   4.928   2.574   4.625  2.4060  0.3453  1.0540
 8993TIP3    H248395   4.938   2.473   4.513 -1.2406  1.4529 -0.4188
 8994TIP3   OH248396   2.788   5.141   3.244 -0.5081 -0.2093 -0.1504
 8994TIP3    H148397   2.802   5.073   3.311 -0.4563 -2.6282 -2.4544
 8994TIP3    H248398   2.871   5.145   3.197 -0.5378  1.4806 -0.1128
 8995TIP3   OH248399   3.763   3.888  13.767 -0.5515  0.3201 -0.6647
 8995TIP3    H148400   3.748   3.797  13.738  0.9101 -0.6833  1.4590
 8995TIP3    H248401   3.847   3.911  13.728  0.4449 -0.3169  0.9830
 8996TIP3   OH248402   4.745   5.571   2.184 -0.1598 -0.2062 -0.3998
 8996TIP3    H148403   4.720   5.662   2.199 -0.3491 -0.2085 -0.7087
 8996TIP3    H248404   4.840   5.573   2.177 -0.0074 -0.2560  1.2031
 8997TIP3   OH248405   4.138   1.313  16.926 -0.1379  0.5437  0.5101
 8997TIP3    H148406   4.205   1.367  16.884 -0.3628 -0.3521 -1.1141
 8997TIP3    H248407   4.080   1.376  16.970  1.2053  1.3846  1.1274
 8998TIP3   OH248408   2.526   5.504  13.152  0.1222 -0.3022 -0.4606
 8998TIP3    H148409   2.611   5.545  13.135  0.6710 -0.9392  0.5807
 8998TIP3    H248410   2.529   5.422  13.103  0.9086 -1.2102  1.0038
 8999TIP3   OH248411   1.577   2.402   1.658  0.7472  0.1437  0.5671
 8999TIP3    H148412   1.575   2.374   1.566  1.5159  0.5805  0.4092
 8999TIP3    H248413   1.488   2.388   1.689  0.1463  1.1953 -0.6173
 9000TIP3   OH248414   0.592   1.034  14.549  0.4844  0.4891  0.0656
 9000TIP3    H148415   0.590   1.003  14.640 -1.7606  0.6304  0.1235
 9000TIP3    H248416   0.572   1.128  14.555  1.3894  0.7266 -0.5101
 9001TIP3   OH248417   4.297   2.481  11.287  0.6067  0.5176  0.6229
 9001TIP3    H148418   4.347   2.402  11.309  2.4982  1.5594  0.3300
 9001TIP3    H248419   4.329   2.546  11.350 -0.4286  1.2210  0.4332
 9002TIP3   OH248420   4.609   2.996   2.517  0.1189  0.0886 -0.3140
 9002TIP3    H148421   4.571   2.910   2.531 -0.2939  0.3387  0.1190
 9002TIP3    H248422   4.701   2.979   2.499  0.0191 -0.4487 -0.3191
 9003TIP3   OH248423   3.295   4.707  12.505  0.6650  0.0781 -0.5534
 9003TIP3    H148424   3.341   4.691  12.423  0.5915  1.2482 -0.8497
 9003TIP3    H248425   3.204   4.723  12.479  0.3255 -1.0478 -0.0878
 9004TIP3   OH248426   1.276   2.073   0.110  0.7876  0.1278  0.2372
 9004TIP3    H148427   1.356   2.070   0.058  0.3735 -0.6829 -0.3915
 9004TIP3    H248428   1.303   2.048   0.198  0.7153 -4.1372 -0.7349
 9005TIP3   OH248429   3.529   1.842  14.434  0.1268 -0.6292  0.2121
 9005TIP3    H148430   3.505   1.932  14.411  4.5555  0.8730  0.4608
 9005TIP3    H248431   3.596   1.818  14.370  0.2641 -3.1314  1.1858
 9006TIP3   OH248432   6.669   3.684   0.050  0.3648  0.0165  0.3332
 9006TIP3    H148433   6.625   3.696  -0.035 -0.2778  0.8073  0.7619
 9006TIP3    H248434   6.751   3.639   0.028  0.2821  0.3453 -0.7268
 9007TIP3   OH248435   5.351   2.644  12.491 -0.0198 -0.1606 -0.1352
 9007TIP3    H148436   5.300   2.637  12.411 -0.6129  0.9981  0.1126
 9007TIP3    H248437   5.314   2.578  12.549 -2.8152  2.0548  0.8286
 9008TIP3   OH248438   4.199   6.477  14.897 -0.3589 -0.6642  0.2078
 9008TIP3    H148439   4.152   6.560  14.904 -0.7005 -0.8324 -0.0978
 9008TIP3    H248440   4.221   6.470  14.804 -0.6018 -1.0627  0.1775
 9009TIP3   OH248441   0.568   0.511  15.038 -0.5264  0.3221  0.5166
 9009TIP3    H148442   0.488   0.563  15.045  0.1879  1.3098  1.9488
 9009TIP3    H248443   0.557   0.443  15.104 -1.2223 -1.0697 -0.9825
 9010TIP3   OH248444   3.838   2.852   2.472  0.4162 -0.4837 -0.3211
 9010TIP3    H148445   3.793   2.903   2.540  1.1894 -0.5826  0.2768
 9010TIP3    H248446   3.811   2.892   2.390  0.5844  0.5495  0.1124
 9011TIP3   OH248447   5.032   5.395   2.398 -0.6862  0.3085 -0.0051
 9011TIP3    H148448   4.939   5.372   2.406 -0.3353 -1.0106  0.5165
 9011TIP3    H248449   5.050   5.448   2.475 -0.4771 -1.3877  1.1727
 9012TIP3   OH248450   3.693   5.173  13.315 -0.0756 -0.5202 -0.2324
 9012TIP3    H148451   3.690   5.210  13.403  2.0331  0.4005 -0.5004
 9012TIP3    H248452   3.604   5.186  13.281 -0.9778 -1.0272  1.7649
 9013TIP3   OH248453   6.007   0.723  13.657  0.2670 -0.2447 -0.3439
 9013TIP3    H148454   6.072   0.683  13.600  0.5225 -0.0580 -0.1824
 9013TIP3    H248455   5.936   0.748  13.598  1.2497  1.4843 -0.8548
 9014TIP3   OH248456   6.410   3.298  12.381 -0.3735  0.4231  0.1791
 9014TIP3    H148457   6.340   3.339  12.431  0.5007 -1.1769  2.9407
 9014TIP3    H248458   6.366   3.226  12.335 -0.6137 -0.5333  1.8356
 9015TIP3   OH248459   3.994   3.408  14.175 -0.1862  0.1833 -0.5201
 9015TIP3    H148460   4.085   3.437  14.163 -0.7845  3.8112  2.0174
 9015TIP3    H248461   3.996   3.357  14.257 -0.5134  0.8866 -0.0674
 9016TIP3   OH248462   0.232   2.298   5.104  0.8660 -0.0296 -0.3910
 9016TIP3    H148463   0.195   2.321   5.189  1.6393 -0.7480  0.1519
 9016TIP3    H248464   0.202   2.368   5.045  2.1882  1.7576  0.9371
 9017TIP3   OH248465   0.024   6.006   1.140 -0.1778 -0.6846 -0.1892
 9017TIP3    H148466   0.065   6.067   1.201  1.0830 -2.0444  0.3886
 9017TIP3    H248467  -0.043   5.963   1.192 -0.1096 -0.7874 -0.1861
 9018TIP3   OH248468   2.261   5.245   0.893  0.2375 -0.2581 -0.3077
 9018TIP3    H148469   2.226   5.279   0.810 -0.0950 -2.3869 -1.1023
 9018TIP3    H248470   2.303   5.163   0.869  0.9142 -0.4864  1.5355
 9019TIP3   OH248471   6.556   6.235  16.113 -0.2836 -0.5744  0.2857
 9019TIP3    H148472   6.541   6.144  16.089  1.1427 -0.8081  0.1950
 9019TIP3    H248473   6.474   6.263  16.153 -1.9003 -0.9283 -2.5220
 9020TIP3   OH248474   1.887   4.569   1.674  0.4813 -0.1848  0.2290
 9020TIP3    H148475   1.837   4.603   1.748 -0.5425  1.5703 -1.1958
 9020TIP3    H248476   1.861   4.477   1.668  0.3606 -0.2751  1.8474
 9021TIP3   OH248477   6.684   6.010   4.573  0.2546  0.3111  0.3332
 9021TIP3    H148478   6.650   5.995   4.484  0.7772  0.4668  0.1070
 9021TIP3    H248479   6.775   5.981   4.569  0.7788  1.8768  0.3615
 9022TIP3   OH248480   0.299   4.289  17.003 -0.1319  0.2185 -0.2601
 9022TIP3    H148481   0.257   4.223  17.058  3.1694 -2.0582 -0.1851
 9022TIP3    H248482   0.365   4.329  17.059  0.3966  0.9765 -1.3827
 9023TIP3   OH248483   4.989   0.119   2.698  0.6171  0.3153 -0.2054
 9023TIP3    H148484   5.001   0.188   2.633  3.1527 -0.8834 -1.1631
 9023TIP3    H248485   4.976   0.165   2.781  1.2528  1.9149 -0.9568
 9024TIP3   OH248486   0.633   2.990   1.439  0.4760  0.1043 -0.3854
 9024TIP3    H148487   0.702   3.002   1.505  0.3915  2.2520 -0.6280
 9024TIP3    H248488   0.657   3.051   1.369 -0.2249 -1.1012 -1.7099
 9025TIP3   OH248489   4.938   4.550  14.702 -0.4068  0.3440  0.3882
 9025TIP3    H148490   5.030   4.525  14.696 -0.0933  1.6642 -0.8838
 9025TIP3    H248491   4.939   4.640  14.735 -1.3242 -0.0864  1.6631
 9026TIP3   OH248492   6.648   6.039  15.499  0.0284 -0.3310 -0.6995
 9026TIP3    H148493   6.598   6.094  15.438  1.1183  0.3821 -0.9994
 9026TIP3    H248494   6.739   6.049  15.470  0.4876 -0.5971  0.5742
 9027TIP3   OH248495   5.912   5.967  15.019 -0.2849  0.1194 -0.4819
 9027TIP3    H148496   5.998   5.941  15.050 -0.7617 -1.0588 -0.1154
 9027TIP3    H248497   5.921   6.061  14.999  0.7352  0.3002  0.7250
 9028TIP3   OH248498   6.370   6.078  16.900  0.0763  0.5559  0.2206
 9028TIP3    H148499   6.392   6.143  16.966 -1.7972  1.7217 -0.2107
 9028TIP3    H248500   6.392   5.994  16.940  0.2832  1.3108  1.7609
 9029TIP3   OH248501   0.108   2.150  15.298  0.4360 -0.2906  0.9502
 9029TIP3    H148502   0.130   2.218  15.362  0.5099  0.3338  0.2839
 9029TIP3    H248503   0.125   2.068  15.343 -0.3200  0.1172  2.0087
 9030TIP3   OH248504   0.975   0.615   0.459  0.1887  0.2569 -0.1631
 9030TIP3    H148505   1.009   0.638   0.546 -1.8734  0.3819  0.6586
 9030TIP3    H248506   0.881   0.608   0.471 -0.1909  0.5881 -2.4929
 9031TIP3   OH248507   0.408   4.463   0.110 -0.0886 -0.6577  0.3530
 9031TIP3    H148508   0.439   4.444   0.198 -1.0726 -1.6674  0.5035
 9031TIP3    H248509   0.350   4.539   0.120 -0.2412 -0.8053  0.5918
 9032TIP3   OH248510   5.156   3.045   5.023 -0.1288 -0.1404 -0.4760
 9032TIP3    H148511   5.194   3.101   5.091 -0.0469  0.0823 -0.7032
 9032TIP3    H248512   5.139   2.962   5.067 -2.3535  0.7264  0.4991
 9033TIP3   OH248513   0.940   5.761   4.616  0.3064  0.8914 -0.0805
 9033TIP3    H148514   0.974   5.672   4.613 -1.0330  0.3469 -0.1143
 9033TIP3    H248515   1.003   5.813   4.567  1.2066 -0.0017  0.1047
 9034TIP3   OH248516   5.105   1.276  14.059  0.8484  0.0848  0.7591
 9034TIP3    H148517   5.080   1.231  13.978  0.7086  0.8352  0.3782
 9034TIP3    H248518   5.072   1.220  14.129 -0.6399  0.3364  0.2816
 9035TIP3   OH248519   1.859   3.448   3.170  0.1679  0.0081  0.0972
 9035TIP3    H148520   1.891   3.455   3.080  0.3495 -0.2796  0.1401
 9035TIP3    H248521   1.766   3.471   3.163  0.2063  0.1017 -0.1453
 9036TIP3   OH248522   4.456   5.029  15.165 -0.5608 -0.0353  0.5154
 9036TIP3    H148523   4.376   5.049  15.214  0.6373  1.4907  1.9820
 9036TIP3    H248524   4.463   4.933  15.169 -0.3274 -0.0150  3.8369
 9037TIP3   OH248525   0.643   1.205  13.251 -0.0241  0.1062  0.5035
 9037TIP3    H148526   0.731   1.184  13.283  0.4976  1.1386 -0.2066
 9037TIP3    H248527   0.589   1.205  13.329  1.3131  3.1283  1.5961
 9038TIP3   OH248528   0.526   3.716   5.040  0.2526 -0.1053  0.4049
 9038TIP3    H148529   0.574   3.794   5.070 -0.6221  0.2831  0.8217
 9038TIP3    H248530   0.565   3.695   4.956  1.5770 -0.1653  1.0091
 9039TIP3   OH248531   3.017   2.250  15.709  0.1248  0.0109  0.3510
 9039TIP3    H148532   3.034   2.258  15.803 -3.4447  2.4436  1.0069
 9039TIP3    H248533   2.951   2.180  15.702  0.4511 -0.2388 -0.3904
 9040TIP3   OH248534   3.153   3.407  13.857  0.3379 -0.3972 -0.1198
 9040TIP3    H148535   3.116   3.402  13.769 -3.7238 -1.2300  1.4120
 9040TIP3    H248536   3.133   3.496  13.887  1.2343 -0.2787  0.1491
 9041TIP3   OH248537   0.760   3.091  17.007 -0.5100  0.3826  0.7575
 9041TIP3    H148538   0.667   3.081  17.023 -0.4248  1.5001  2.2163
 9041TIP3    H248539   0.791   3.146  17.080  1.5243 -1.0490  1.0604
 9042TIP3   OH248540   4.243   3.846  15.637  0.6541  0.9333  0.0147
 9042TIP3    H148541   4.251   3.920  15.577 -2.3657 -0.7911 -2.8899
 9042TIP3    H248542   4.200   3.882  15.714 -1.1945  2.2725 -1.5203
 9043TIP3   OH248543   5.605   1.646  15.208 -0.0015  0.1555  0.0071
 9043TIP3    H148544   5.585   1.617  15.119  1.2108 -4.1725  0.9217
 9043TIP3    H248545   5.535   1.609  15.262  1.2265 -0.4903  1.2209
 9044TIP3   OH248546   5.554   2.836  12.211 -0.7117 -0.2236 -0.3451
 9044TIP3    H148547   5.501   2.840  12.131  0.3119 -0.2361 -1.0381
 9044TIP3    H248548   5.619   2.768  12.193  0.4491  0.7818 -0.0759
 9045TIP3   OH248549   3.959   4.337   2.737 -0.3939  0.2715 -0.1510
 9045TIP3    H148550   3.956   4.288   2.820 -0.8610  0.3521 -0.1181
 9045TIP3    H248551   3.910   4.283   2.676  1.3653 -0.6256 -0.8365
 9046TIP3   OH248552   2.503   1.820   5.443 -0.3338  0.0581 -0.2024
 9046TIP3    H148553   2.525   1.790   5.355 -2.4766 -1.9314 -0.1626
 9046TIP3    H248554   2.413   1.850   5.437 -0.7838 -0.8379  1.4389
 9047TIP3   OH248555   5.990   2.198  13.043  0.0337 -0.0940 -0.4857
 9047TIP3    H148556   6.040   2.117  13.056 -1.8010 -1.4266 -1.2004
 9047TIP3    H248557   5.921   2.174  12.980 -2.8061  0.9742  1.9556
 9048TIP3   OH248558   2.892   5.276   1.316 -0.0289  0.0765 -0.1049
 9048TIP3    H148559   2.807   5.290   1.357  0.1064 -0.2256  0.2826
 9048TIP3    H248560   2.880   5.304   1.225 -0.0606  1.7165  0.3797
 9049TIP3   OH248561   2.967   4.187   0.924  0.0722 -0.4727 -0.0474
 9049TIP3    H148562   2.944   4.272   0.962 -3.3097 -1.2895  0.0400
 9049TIP3    H248563   2.938   4.193   0.833  0.0364 -1.4330 -0.1125
 9050TIP3   OH248564   1.552   2.338   4.159  0.0131 -0.1846 -0.2350
 9050TIP3    H148565   1.521   2.265   4.106  1.3808 -2.1138  1.4359
 9050TIP3    H248566   1.635   2.364   4.118  0.4441 -0.8481  0.1783
 9051TIP3   OH248567   0.818   2.378  11.701 -0.6176  0.2716  0.0710
 9051TIP3    H148568   0.821   2.323  11.780 -1.7064  1.1875  0.7834
 9051TIP3    H248569   0.864   2.327  11.635  1.6137  0.0926  1.6512
 9052TIP3   OH248570   6.023   3.603   4.292 -0.1776  0.3966  0.4780
 9052TIP3    H148571   5.990   3.537   4.231 -0.0507 -0.9143  1.8042
 9052TIP3    H248572   6.015   3.685   4.243 -1.3692 -0.4291 -0.8073
 9053TIP3   OH248573   6.645   6.114   1.495  0.4916  0.0636 -0.2823
 9053TIP3    H148574   6.596   6.182   1.450 -1.8527  0.8417  3.0403
 9053TIP3    H248575   6.701   6.162   1.556 -0.9138 -0.8482  1.8439
 9054TIP3   OH248576   2.123   6.640  14.916 -0.3053 -0.3141 -0.1897
 9054TIP3    H148577   2.043   6.589  14.926  0.0801 -1.2037 -1.4315
 9054TIP3    H248578   2.093   6.728  14.895 -0.9848  0.0665  2.1015
 9055TIP3   OH248579   2.322   3.231  14.015 -0.2953 -0.0033 -0.4012
 9055TIP3    H148580   2.366   3.307  13.978 -1.4193  1.2912  0.8144
 9055TIP3    H248581   2.229   3.247  14.000 -0.6277 -0.5502  0.8939
 9056TIP3   OH248582   5.446   6.380  13.725  0.7817  0.0831  0.2077
 9056TIP3    H148583   5.525   6.418  13.687  1.6193 -0.7341  1.0738
 9056TIP3    H248584   5.459   6.286  13.718 -1.1321 -0.1250 -1.6366
 9057TIP3   OH248585   3.814   4.257   4.193 -0.1589  0.1671 -0.0861
 9057TIP3    H148586   3.781   4.311   4.264  0.1822 -1.2283  1.1844
 9057TIP3    H248587   3.909   4.257   4.205 -0.1940 -1.2447  0.3714
 9058TIP3   OH248588   2.609   4.195  10.744  0.4707 -0.4766 -0.6542
 9058TIP3    H148589   2.608   4.270  10.684 -2.7348  0.0260 -0.1519
 9058TIP3    H248590   2.565   4.125  10.696 -0.7481 -0.5416  0.4996
 9059TIP3   OH248591   5.727   0.994   2.974  0.1531  0.2665 -0.5168
 9059TIP3    H148592   5.760   1.075   3.013 -1.0884  0.1906  0.7627
 9059TIP3    H248593   5.716   1.016   2.881 -0.0520  1.5344 -0.2215
 9060TIP3   OH248594   0.802   1.050   4.436 -0.0507  0.5418 -0.7434
 9060TIP3    H148595   0.782   1.023   4.525 -3.0173  1.2374 -1.0816
 9060TIP3    H248596   0.865   0.985   4.404  1.7180  0.7310  2.0376
 9061TIP3   OH248597   4.015   6.714   2.724  0.8486 -0.0446  0.1835
 9061TIP3    H148598   3.922   6.706   2.700  0.0159  2.3410  2.1826
 9061TIP3    H248599   4.021   6.673   2.810  0.7544  2.8471  1.6846
 9062TIP3   OH248600   5.471   1.047   5.009 -0.4663  0.1002  0.2549
 9062TIP3    H148601   5.545   1.021   5.063  0.0770  0.5399 -0.2712
 9062TIP3    H248602   5.429   0.965   4.984  2.0833 -0.5005 -2.6150
 9063TIP3   OH248603   2.773   0.740  15.137  0.8742 -0.2408  0.2415
 9063TIP3    H148604   2.825   0.662  15.155  0.3452 -0.6312  0.1166
 9063TIP3    H248605   2.711   0.744  15.210  0.7857 -0.0417  0.1546
 9064TIP3   OH248606   4.208   5.954  11.234 -0.1064  0.6009 -0.2914
 9064TIP3    H148607   4.245   5.917  11.314 -1.0937  1.4774  0.5974
 9064TIP3    H248608   4.272   6.019  11.205 -1.1582  2.5964  1.6059
 9065TIP3   OH248609   6.518   0.922   2.216 -0.2407 -0.3980 -0.0652
 9065TIP3    H148610   6.485   0.971   2.291 -0.3600  1.6256 -1.3622
 9065TIP3    H248611   6.560   0.988   2.161 -0.9260 -1.6453 -2.2107
 9066TIP3   OH248612   3.636   6.764  13.030 -1.2247 -0.5763  0.0466
 9066TIP3    H148613   3.666   6.714  13.105 -0.4755 -0.4999 -0.1939
 9066TIP3    H248614   3.597   6.699  12.971  0.0112 -0.9321 -0.4014
 9067TIP3   OH248615   1.515   2.199  16.320  0.1859  0.3158  0.1295
 9067TIP3    H148616   1.585   2.239  16.372  0.1850  0.6852 -0.1519
 9067TIP3    H248617   1.434   2.225  16.364  0.2356 -0.4398  0.6822
 9068TIP3   OH248618   4.915   2.225   0.422  0.4534 -0.5749  0.2068
 9068TIP3    H148619   4.849   2.165   0.456 -1.9209  1.3679 -0.7088
 9068TIP3    H248620   4.924   2.201   0.330  2.6276 -2.1251  0.7473
 9069TIP3   OH248621   4.886   0.215   3.149 -0.0755  0.5860  0.4075
 9069TIP3    H148622   4.905   0.127   3.180  0.1169  0.1897 -0.7768
 9069TIP3    H248623   4.945   0.228   3.075 -0.8389  1.3068 -0.0931
 9070TIP3   OH248624   5.142   0.885  16.257  0.0459  0.5458  0.4246
 9070TIP3    H148625   5.059   0.840  16.274  0.8057 -0.5192  1.4259
 9070TIP3    H248626   5.180   0.838  16.183  0.2757  0.3052  0.6933
 9071TIP3   OH248627   2.796   0.935   5.413  0.1460  0.6306 -0.0296
 9071TIP3    H148628   2.868   0.877   5.435  1.0524  1.7908  0.1885
 9071TIP3    H248629   2.727   0.877   5.380  1.3272 -0.4663 -0.6542
 9072TIP3   OH248630   4.732   0.940   1.227 -0.3247  0.1061  0.0648
 9072TIP3    H148631   4.675   1.017   1.227  0.3488  0.6522 -2.0810
 9072TIP3    H248632   4.674   0.867   1.206 -0.5566  0.3603 -0.1827
 9073TIP3   OH248633   2.355   0.634  13.611 -0.3568 -0.5280 -0.1945
 9073TIP3    H148634   2.417   0.612  13.542 -1.1912 -0.8353 -0.8711
 9073TIP3    H248635   2.272   0.647  13.565 -0.8104 -0.1948  0.6929
 9074TIP3   OH248636   6.526   0.204  14.657 -0.1408 -1.1555  0.3674
 9074TIP3    H148637   6.538   0.280  14.714 -0.7914  1.0684 -2.1992
 9074TIP3    H248638   6.431   0.194  14.652 -0.0956 -1.2367 -0.3877
 9075TIP3   OH248639   0.043   3.494  15.467 -0.1544 -0.2691 -0.1012
 9075TIP3    H148640   0.055   3.522  15.377  3.0773 -0.1477  0.2309
 9075TIP3    H248641   0.038   3.398  15.462  1.6675 -0.3864 -0.3613
 9076TIP3   OH248642   0.739   0.860   0.262  0.2584  0.3791  0.0886
 9076TIP3    H148643   0.709   0.810   0.338 -0.2587  0.7233  0.1153
 9076TIP3    H248644   0.805   0.804   0.221 -0.2350 -0.2742  0.1747
 9077TIP3   OH248645   0.651   3.319  14.063 -0.0914 -0.5065  0.0460
 9077TIP3    H148646   0.625   3.280  14.146  1.6367 -0.8867  0.4439
 9077TIP3    H248647   0.659   3.244  14.003 -0.4050 -0.3384 -0.2090
 9078TIP3   OH248648   6.713   2.964   4.182 -0.2073 -0.4774 -0.3010
 9078TIP3    H148649   6.644   2.937   4.242  0.7977 -2.1456  0.1579
 9078TIP3    H248650   6.670   3.026   4.123 -1.6465 -0.1402  1.0429
 9079TIP3   OH248651   4.176   5.861   1.134 -0.2658  0.0842  0.2711
 9079TIP3    H148652   4.259   5.852   1.180  0.5357 -1.1366 -1.2855
 9079TIP3    H248653   4.110   5.837   1.198  0.7640 -1.1789  0.9108
 9080TIP3   OH248654   4.040   3.170   5.512 -0.0106 -0.4053 -0.1199
 9080TIP3    H148655   4.039   3.171   5.417  0.1082  1.1367 -0.1270
 9080TIP3    H248656   3.950   3.147   5.537  0.0183 -1.0465 -0.5887
 9081TIP3   OH248657   3.224   1.597  15.714  0.4142 -0.4263 -0.2287
 9081TIP3    H148658   3.290   1.551  15.766  0.7206  1.1878  0.8559
 9081TIP3    H248659   3.269   1.619  15.633  1.1356  0.3728  0.3709
 9082TIP3   OH248660   4.506   3.630   4.798  0.2077  0.5858 -0.0106
 9082TIP3    H148661   4.575   3.582   4.752  0.0260  2.0321 -1.9109
 9082TIP3    H248662   4.426   3.580   4.779  0.4238  0.0251  0.5148
 9083TIP3   OH248663   3.493   1.668  15.861  0.3363 -0.1615 -0.3695
 9083TIP3    H148664   3.572   1.695  15.815  0.5690 -0.2237 -0.0086
 9083TIP3    H248665   3.461   1.748  15.903 -0.0255 -0.0462 -0.8539
 9084TIP3   OH248666   4.162   6.714   0.024 -0.3870  0.1703 -0.1134
 9084TIP3    H148667   4.220   6.639   0.036 -1.1352 -0.2977  0.6649
 9084TIP3    H248668   4.165   6.761   0.107 -2.1652 -0.6250  0.4344
 9085TIP3   OH248669   1.825   5.963  14.309  0.3660  0.6517 -0.1780
 9085TIP3    H148670   1.800   6.017  14.235  0.4503  3.4807  1.6825
 9085TIP3    H248671   1.779   5.880  14.296  0.6654  0.8977 -3.4738
 9086TIP3   OH248672   3.575   3.402  14.299 -0.1465  0.1545 -0.6378
 9086TIP3    H148673   3.535   3.414  14.385  0.9941 -0.5753  0.0283
 9086TIP3    H248674   3.579   3.490  14.262 -1.3022  0.3821 -0.2601
 9087TIP3   OH248675   6.058   4.233   1.108  0.2285  0.7809  0.3569
 9087TIP3    H148676   6.018   4.238   1.021 -0.4128  0.1427  0.6050
 9087TIP3    H248677   6.120   4.161   1.102  1.0034  1.4607  0.1114
 9088TIP3   OH248678   4.868   1.807  14.687  0.1196  0.0553  0.1090
 9088TIP3    H148679   4.834   1.729  14.729  0.8575  0.7521  2.1225
 9088TIP3    H248680   4.805   1.876  14.710  0.1008  0.2888 -0.6293
 9089TIP3   OH248681   2.924   2.835   2.942 -0.2202 -0.0924  0.2050
 9089TIP3    H148682   2.908   2.929   2.931 -0.6311 -0.2150 -0.3080
 9089TIP3    H248683   3.018   2.829   2.962  0.4862  0.2561 -2.5494
 9090TIP3   OH248684   3.108   2.168   5.866  0.1399 -0.2156  0.5914
 9090TIP3    H148685   3.152   2.092   5.903  0.8115  0.5157  1.3280
 9090TIP3    H248686   3.015   2.153   5.885  0.2770 -0.7747  0.8509
 9091TIP3   OH248687   6.191   2.247  12.827  0.1483 -0.5316 -0.2021
 9091TIP3    H148688   6.160   2.170  12.876 -0.7291  0.3405  0.6809
 9091TIP3    H248689   6.193   2.218  12.736 -0.9986 -1.3521  0.0061
 9092TIP3   OH248690   6.476   0.966   4.471  0.0199  0.1248 -0.3724
 9092TIP3    H148691   6.511   1.032   4.411 -0.1083  1.1390  0.6309
 9092TIP3    H248692   6.382   0.965   4.454  0.2418 -1.1380 -1.6559
 9093TIP3   OH248693   5.410   3.723  13.451 -0.2448 -0.1941 -0.7085
 9093TIP3    H148694   5.454   3.639  13.442  2.3755  1.0791 -0.4762
 9093TIP3    H248695   5.352   3.713  13.527  2.1607 -0.9650  1.1172
 9094TIP3   OH248696   6.107   4.470  11.375 -0.2407  0.4418  0.3752
 9094TIP3    H148697   6.084   4.434  11.290 -0.7240 -4.0775  2.1707
 9094TIP3    H248698   6.057   4.551  11.381  0.0068  1.1182 -3.6070
 9095TIP3   OH248699   4.375   3.022  16.030  0.3127 -0.1441 -0.3508
 9095TIP3    H148700   4.449   3.008  16.089 -0.1274  1.1628  0.5563
 9095TIP3    H248701   4.310   3.069  16.083 -0.3395  0.5617 -1.7036
 9096TIP3   OH248702   3.532   4.313   5.549  0.3014  0.1102  0.0929
 9096TIP3    H148703   3.547   4.280   5.460 -0.7822 -1.4992  0.4626
 9096TIP3    H248704   3.509   4.235   5.599 -1.5087  1.3246  1.2409
 9097TIP3   OH248705   5.632   0.039   5.060  0.1341  0.2655 -0.3559
 9097TIP3    H148706   5.560   0.064   5.117  0.0790  0.3154 -0.4474
 9097TIP3    H248707   5.710   0.042   5.117 -0.1351 -1.2889  0.1461
 9098TIP3   OH248708   2.480   0.498   0.421 -0.6044  0.1003 -0.0692
 9098TIP3    H148709   2.472   0.472   0.513 -1.1542 -0.9219 -0.3944
 9098TIP3    H248710   2.552   0.444   0.388 -0.0298  0.8699 -0.1176
 9099TIP3   OH248711   6.143   6.312   6.379 -0.0274 -0.2718 -0.0752
 9099TIP3    H148712   6.105   6.278   6.459  0.9391  0.3656  0.6892
 9099TIP3    H248713   6.214   6.369   6.409  0.0124  0.3992 -1.3672
 9100TIP3   OH248714   0.844   5.623   5.044  0.6477  0.0355  0.3317
 9100TIP3    H148715   0.939   5.610   5.040  0.9371  2.0920 -0.5500
 9100TIP3    H248716   0.829   5.657   5.132  0.8435  0.5021  0.1860
 9101TIP3   OH248717   0.734   0.327  16.834 -0.1952  0.6441 -0.5836
 9101TIP3    H148718   0.641   0.349  16.830 -0.0198  1.5075 -0.2156
 9101TIP3    H248719   0.765   0.338  16.744 -0.4326  0.4377 -0.6904
 9102TIP3   OH248720   5.105   2.728  11.976  0.4119  0.3147  0.2078
 9102TIP3    H148721   5.171   2.668  11.939 -0.3954 -0.6453  0.2942
 9102TIP3    H248722   5.048   2.671  12.027 -0.4006  1.1659  0.2555
 9103TIP3   OH248723   2.959   1.503   3.814  0.2829  0.0596  0.1818
 9103TIP3    H148724   2.953   1.411   3.838 -0.9854  0.4049  1.2866
 9103TIP3    H248725   3.047   1.529   3.842  1.4287 -1.2300 -1.8763
 9104TIP3   OH248726   0.088   2.562   4.410  0.4836 -0.0809 -0.6972
 9104TIP3    H148727   0.034   2.633   4.445  0.2078 -1.1441  1.1734
 9104TIP3    H248728   0.163   2.556   4.470 -0.2684 -2.3084  0.1430
 9105TIP3   OH248729   1.554   2.043   0.964 -0.6654  0.1436  0.3211
 9105TIP3    H148730   1.561   2.096   0.884 -0.3748  2.2523  1.6664
 9105TIP3    H248731   1.461   2.025   0.973 -0.5322 -1.9525 -1.5511
 9106TIP3   OH248732   3.861   3.224  13.976 -0.4995  0.5191 -0.2259
 9106TIP3    H148733   3.909   3.280  14.037 -1.8000  1.4694 -0.0335
 9106TIP3    H248734   3.929   3.182  13.922  0.5737  0.9585  0.7618
 9107TIP3   OH248735   0.670   0.316   4.157  0.5422  0.2442  0.0015
 9107TIP3    H148736   0.626   0.293   4.239  0.1403 -0.5057 -0.4164
 9107TIP3    H248737   0.723   0.239   4.135  0.4206  0.3250 -0.5929
 9108TIP3   OH248738   4.968   0.222   2.324  0.2832 -0.1952  0.1826
 9108TIP3    H148739   4.939   0.301   2.278 -0.9355 -1.3040 -1.0561
 9108TIP3    H248740   4.892   0.195   2.375  1.8745  1.5176  3.7707
 9109TIP3   OH248741   4.876   6.140  16.631  0.4185 -0.1380 -0.4054
 9109TIP3    H148742   4.940   6.092  16.684  0.7647  0.5923 -0.1367
 9109TIP3    H248743   4.914   6.143  16.544 -0.0027 -1.0695 -0.6304
 9110TIP3   OH248744   5.723   2.064  16.275 -0.1166 -0.7429  0.0855
 9110TIP3    H148745   5.803   2.050  16.327  0.2229 -0.8385 -0.4488
 9110TIP3    H248746   5.751   2.048  16.185 -1.0913 -2.3227  0.0203
 9111TIP3   OH248747   4.868   5.773  10.945 -0.0641 -0.2203  0.9229
 9111TIP3    H148748   4.857   5.859  10.987  1.2180  0.4482 -0.0395
 9111TIP3    H248749   4.830   5.784  10.858  3.3313  0.6168 -0.6170
 9112TIP3   OH248750   3.498   4.201   1.259  0.4149  0.1776  0.1452
 9112TIP3    H148751   3.453   4.141   1.200  0.9393  0.0665 -0.1505
 9112TIP3    H248752   3.563   4.147   1.304 -0.5135  0.0869  1.4370
 9113TIP3   OH248753   5.627   5.693  11.986 -0.0833 -0.5217  0.0631
 9113TIP3    H148754   5.591   5.769  11.940  0.0562  0.5505  1.6450
 9113TIP3    H248755   5.721   5.698  11.970 -0.2762 -1.7469 -1.7706
 9114TIP3   OH248756   2.436   6.382  15.674  0.4280 -0.5455 -0.3084
 9114TIP3    H148757   2.351   6.377  15.719  0.5275 -0.5202 -0.1146
 9114TIP3    H248758   2.479   6.299  15.696  0.1830 -0.8428 -0.9540
 9115TIP3   OH248759   6.462   4.805  15.923  0.8883 -0.0433  0.4676
 9115TIP3    H148760   6.540   4.766  15.963  0.5595  0.3084  1.4894
 9115TIP3    H248761   6.483   4.897  15.914  0.5738  0.0634  0.8046
 9116TIP3   OH248762   2.712   2.467  15.036  0.5576  0.0393 -0.0028
 9116TIP3    H148763   2.759   2.551  15.033  1.0688 -0.2708 -1.6325
 9116TIP3    H248764   2.773   2.408  15.081  0.1829  0.5230  1.1830
 9117TIP3   OH248765   3.865   0.817   3.768  0.7322  0.0684  0.0078
 9117TIP3    H148766   3.926   0.815   3.842  0.9281 -1.5923 -0.1579
 9117TIP3    H248767   3.917   0.785   3.694  0.1327  0.2893 -0.5159
 9118TIP3   OH248768   6.021   2.736  14.522  0.2141  0.3239 -0.4802
 9118TIP3    H148769   6.110   2.717  14.553 -0.1517  0.4865  0.7377
 9118TIP3    H248770   5.965   2.674  14.570 -0.6556  2.3108  1.2687
 9119TIP3   OH248771   2.125   3.543  13.007 -0.6595  0.4887 -0.3920
 9119TIP3    H148772   2.038   3.532  13.044 -0.3899  0.6496  0.2956
 9119TIP3    H248773   2.161   3.621  13.051 -0.6734  1.2268 -1.6321
 9120TIP3   OH248774   3.025   1.976  11.717  0.2196  0.1933  0.0724
 9120TIP3    H148775   2.944   1.941  11.681  0.8243  0.0054 -1.1635
 9120TIP3    H248776   3.087   1.973  11.644  0.7863  2.1975  0.3948
 9121TIP3   OH248777   2.998   3.494   4.239  0.6424  0.5798  0.1703
 9121TIP3    H148778   3.051   3.499   4.159  1.4641 -1.5741  0.5050
 9121TIP3    H248779   3.053   3.531   4.307  0.8207  0.4353  0.1063
 9122TIP3   OH248780   5.919   3.170  15.060 -0.2925  0.0149  0.0009
 9122TIP3    H148781   6.001   3.121  15.070 -0.9939 -0.9966  1.0719
 9122TIP3    H248782   5.915   3.190  14.966  1.1972  0.1354 -0.0631
 9123TIP3   OH248783   4.750   3.497  14.772  0.1989  0.4747 -0.5106
 9123TIP3    H148784   4.812   3.565  14.799 -2.1428  2.3926  0.4048
 9123TIP3    H248785   4.733   3.515  14.680  2.5639 -1.4687 -1.4445
 9124TIP3   OH248786   2.739   0.012  11.242 -0.0489 -0.0416  0.9957
 9124TIP3    H148787   2.761   0.005  11.335  0.3566  1.6523  1.0614
 9124TIP3    H248788   2.653   0.054  11.240 -1.0260 -1.9538  0.6152
 9125TIP3   OH248789   2.875   5.032  16.469  0.4229  0.2492 -0.6366
 9125TIP3    H148790   2.798   4.975  16.470 -0.4490  1.3125  2.1246
 9125TIP3    H248791   2.852   5.103  16.409 -0.2402 -0.0885 -0.7857
 9126TIP3   OH248792   3.836   4.072  12.176 -0.3287  0.2051  0.0428
 9126TIP3    H148793   3.854   4.057  12.269 -1.3894 -0.3069  0.1848
 9126TIP3    H248794   3.745   4.044  12.165 -0.4178  0.8541 -1.0201
 9127TIP3   OH248795   6.641   0.901  16.078 -0.5305 -0.1478  0.3854
 9127TIP3    H148796   6.651   0.811  16.047  0.5340 -0.3569  1.2863
 9127TIP3    H248797   6.602   0.948  16.004 -1.7250 -1.4747  0.1229
 9128TIP3   OH248798   5.841   2.987   1.057  0.1609  0.2082  0.1323
 9128TIP3    H148799   5.844   3.042   0.979  1.3551 -1.6782 -1.2606
 9128TIP3    H248800   5.882   2.904   1.029  0.7329 -0.5006  2.7938
 9129TIP3   OH248801   4.414   6.435  14.672 -0.0989  0.3875  0.7279
 9129TIP3    H148802   4.497   6.448  14.626 -0.7724  0.9890 -0.3525
 9129TIP3    H248803   4.439   6.403  14.759  1.2125 -0.5802  0.0263
 9130TIP3   OH248804   4.984   5.999  15.215 -0.0097 -0.1593 -0.5697
 9130TIP3    H148805   4.959   6.038  15.131  0.4321  0.5450 -0.3793
 9130TIP3    H248806   5.077   6.022  15.225  0.1222 -0.8268 -0.2088
 9131TIP3   OH248807   6.478   1.010   0.702 -0.1617  0.4509 -0.1333
 9131TIP3    H148808   6.435   1.084   0.659 -1.2447 -0.7511 -1.1961
 9131TIP3    H248809   6.408   0.948   0.720  0.9086 -0.9644 -0.6227
 9132TIP3   OH248810   5.020   0.366   4.319 -0.0058  0.0303 -0.4857
 9132TIP3    H148811   5.049   0.409   4.400  0.1079  1.0715 -1.0598
 9132TIP3    H248812   5.094   0.377   4.259 -0.1392 -0.6267 -0.7724
 9133TIP3   OH248813   6.571   2.234   1.914  0.1741  0.5970  0.2930
 9133TIP3    H148814   6.500   2.214   1.975 -1.0959  1.2414 -0.9203
 9133TIP3    H248815   6.566   2.329   1.901  0.6168  0.5144 -0.5775
 9134TIP3   OH248816   4.215   5.968   6.419  0.5318 -0.0978 -0.3424
 9134TIP3    H148817   4.298   5.985   6.374  0.2904 -0.5389 -0.9683
 9134TIP3    H248818   4.162   5.922   6.354 -0.1782  0.1146  0.0807
 9135TIP3   OH248819   1.185   4.957   0.095  0.4824 -0.3117  0.7702
 9135TIP3    H148820   1.178   4.925   0.005 -0.1516 -0.4099  0.8445
 9135TIP3    H248821   1.269   4.924   0.127  0.9544  0.1693  0.0475
 9136TIP3   OH248822   5.927   4.275  12.573 -0.3727  0.1383  0.7293
 9136TIP3    H148823   5.990   4.213  12.609 -0.0724 -0.7649 -1.2573
 9136TIP3    H248824   5.886   4.229  12.500 -1.6088  1.5690  0.4653
 9137TIP3   OH248825   2.854   3.711  11.921 -0.2242  0.1693 -0.1538
 9137TIP3    H148826   2.777   3.712  11.978  1.5719 -3.5123  2.7079
 9137TIP3    H248827   2.915   3.772  11.962 -0.0405 -0.1905  0.1102
 9138TIP3   OH248828   1.486   5.762   4.362 -0.0114  0.0476  0.0018
 9138TIP3    H148829   1.564   5.795   4.405  1.7618 -1.9091 -1.4786
 9138TIP3    H248830   1.489   5.799   4.274 -0.9136  0.1595  0.0034
 9139TIP3   OH248831   3.149   4.563  11.377  0.1578  0.6696  0.3523
 9139TIP3    H148832   3.175   4.488  11.431  0.9618  0.1016 -0.7705
 9139TIP3    H248833   3.056   4.573  11.392 -0.0121 -0.7227  0.3604
 9140TIP3   OH248834   2.800   3.516   1.913  0.2223  0.8257  0.6332
 9140TIP3    H148835   2.856   3.543   1.840 -0.9069  1.2339 -0.1177
 9140TIP3    H248836   2.858   3.469   1.972  0.8483 -1.0814 -1.3548
 9141TIP3   OH248837   4.806   1.048  12.532 -0.4174 -0.6079  0.0323
 9141TIP3    H148838   4.788   1.133  12.492  1.6106  0.6369  1.5582
 9141TIP3    H248839   4.853   1.000  12.464 -0.4241 -0.0173 -0.4044
 9142TIP3   OH248840   3.076   3.345   3.144 -0.4168  0.0354 -0.0758
 9142TIP3    H148841   3.067   3.440   3.141 -2.6529 -0.1057  0.1954
 9142TIP3    H248842   3.104   3.321   3.055 -1.0066  0.8614 -0.5025
 9143TIP3   OH248843   6.490   1.511   0.778  0.3859  0.2166  0.1157
 9143TIP3    H148844   6.547   1.566   0.832  0.4298 -0.0288  0.3204
 9143TIP3    H248845   6.547   1.476   0.710  0.1616  1.1884 -0.5949
 9144TIP3   OH248846   2.771   6.369   0.188 -0.0424 -0.4195 -0.0463
 9144TIP3    H148847   2.718   6.446   0.168  0.2849 -0.1161  0.2421
 9144TIP3    H248848   2.714   6.315   0.243  0.1550  0.2046  0.8037
 9145TIP3   OH248849   2.315   3.980   3.181 -0.5297 -0.5717  0.1143
 9145TIP3    H148850   2.220   3.989   3.191 -0.5485 -1.9387  1.5573
 9145TIP3    H248851   2.351   4.011   3.264  0.1307 -1.9371  0.3677
 9146TIP3   OH248852   1.817   3.519   0.192 -0.8192  0.4901  0.2470
 9146TIP3    H148853   1.775   3.510   0.106 -1.4383 -0.3080  0.6233
 9146TIP3    H248854   1.817   3.614   0.208 -1.8324  0.5600 -0.0862
 9147TIP3   OH248855   6.311   4.696  16.601 -0.0028 -0.3174 -0.5552
 9147TIP3    H148856   6.355   4.700  16.516 -0.4088  1.1438 -0.7179
 9147TIP3    H248857   6.371   4.646  16.657  0.6552 -0.5667 -1.4628
 9148TIP3   OH248858   5.985   1.341   3.924  0.1155  0.3766 -0.6076
 9148TIP3    H148859   5.930   1.380   3.856  0.5154  2.9365  0.4231
 9148TIP3    H248860   6.074   1.351   3.892  0.4302  2.9461  0.7841
 9149TIP3   OH248861   2.078   1.397   3.243 -0.0604 -0.7886 -0.4152
 9149TIP3    H148862   2.056   1.307   3.219 -1.1746 -0.1637 -1.8897
 9149TIP3    H248863   2.020   1.451   3.190 -0.4342  0.7945  1.4619
 9150TIP3   OH248864   2.247   3.122  16.393 -0.3810  0.5589  0.6117
 9150TIP3    H148865   2.318   3.172  16.434 -0.0400  0.0170  0.6981
 9150TIP3    H248866   2.269   3.122  16.300  1.4396 -2.1415  0.9076
 9151TIP3   OH248867   4.869   1.376   6.275 -0.5021  0.7640  0.4055
 9151TIP3    H148868   4.774   1.384   6.267 -0.4382  0.9856 -0.1673
 9151TIP3    H248869   4.884   1.362   6.369 -1.0493  1.3232  0.5806
 9152TIP3   OH248870   1.096   1.088   2.622 -0.0607 -0.5779  0.1282
 9152TIP3    H148871   1.044   1.060   2.547  1.0141 -0.7564 -0.5757
 9152TIP3    H248872   1.181   1.112   2.584  0.8321 -1.6080  1.3782
 9153TIP3   OH248873   6.340   0.283   2.242 -0.1914  0.0056  0.2523
 9153TIP3    H148874   6.259   0.232   2.242  0.1125 -0.4794 -0.0431
 9153TIP3    H248875   6.377   0.268   2.329  0.2706 -0.8870 -0.0852
 9154TIP3   OH248876   3.544   2.802  14.048 -0.5215 -0.3435 -0.1594
 9154TIP3    H148877   3.528   2.741  14.120  0.0442 -1.1454 -0.6960
 9154TIP3    H248878   3.622   2.851  14.076 -0.4922 -0.4326 -0.0837
 9155TIP3   OH248879   1.136   6.495   1.251 -0.1767 -0.6313 -0.2967
 9155TIP3    H148880   1.204   6.556   1.280 -1.5612  0.7377  0.1692
 9155TIP3    H248881   1.172   6.408   1.270  2.3066 -0.0732 -1.9844
 9156TIP3   OH248882   3.952   6.139  16.266 -0.1011 -0.1655  0.9744
 9156TIP3    H148883   3.922   6.071  16.206 -1.4375  0.7070  0.6240
 9156TIP3    H248884   4.048   6.137  16.258 -0.2203  0.9740 -2.4390
 9157TIP3   OH248885   1.972   2.894   2.390  0.5794  0.3476  0.2742
 9157TIP3    H148886   1.905   2.827   2.380 -1.4219  2.2721 -0.0619
 9157TIP3    H248887   2.038   2.873   2.323 -2.3610  1.3200 -3.2193
 9158TIP3   OH248888   2.918   4.839   4.099 -0.3189 -0.4037  0.3715
 9158TIP3    H148889   2.940   4.918   4.148  1.5329  0.0564 -1.1014
 9158TIP3    H248890   2.975   4.841   4.022  0.1672 -3.4234  0.5206
 9159TIP3   OH248891   5.456   5.096   1.108  0.3698 -0.5505 -0.5903
 9159TIP3    H148892   5.457   5.002   1.126  2.8558 -0.6594 -0.9496
 9159TIP3    H248893   5.452   5.137   1.194 -2.1447 -0.8979 -0.4615
 9160TIP3   OH248894   0.297   4.184  14.022  0.0772 -0.2034 -0.2823
 9160TIP3    H148895   0.232   4.196  14.091  0.7946 -1.2934  0.6204
 9160TIP3    H248896   0.251   4.137  13.953 -0.4100  0.1177 -0.1810
 9161TIP3   OH248897   3.869   4.399  11.915  0.9039 -0.0264  0.3010
 9161TIP3    H148898   3.918   4.461  11.969  1.4846 -0.7812  0.6599
 9161TIP3    H248899   3.915   4.316  11.925  0.0509 -0.5630 -0.0429
 9162TIP3   OH248900   6.190   3.438   6.033  0.2382  0.2348  0.7146
 9162TIP3    H148901   6.127   3.367   6.042  0.9727 -0.7377 -1.1954
 9162TIP3    H248902   6.142   3.507   5.986  0.7785 -0.8921 -1.6380
 9163TIP3   OH248903   2.828   6.413   5.520 -0.6897 -0.2240  0.3577
 9163TIP3    H148904   2.816   6.384   5.610 -0.3360 -1.1531  0.1202
 9163TIP3    H248905   2.745   6.395   5.477  0.0257 -2.4953 -0.1942
 9164TIP3   OH248906   4.565   2.944   0.520  0.0051  0.0212 -0.1124
 9164TIP3    H148907   4.524   2.984   0.443 -0.6845 -1.2124 -0.4199
 9164TIP3    H248908   4.659   2.957   0.507 -0.2124  2.4884  0.3568
 9165TIP3   OH248909   1.539   5.474   1.570  0.1782 -0.0607 -0.1749
 9165TIP3    H148910   1.499   5.489   1.656 -0.8157  0.1049 -0.6460
 9165TIP3    H248911   1.588   5.554   1.552 -0.5536  0.3791 -0.2554
 9166TIP3   OH248912   2.206   0.731   5.948  0.0409 -0.0130  0.1693
 9166TIP3    H148913   2.161   0.814   5.936  0.3778  0.3207  1.1406
 9166TIP3    H248914   2.221   0.698   5.859 -1.1392  0.3882 -0.1932
 9167TIP3   OH248915   6.434   3.463  13.416 -0.2628 -0.3480 -0.2991
 9167TIP3    H148916   6.493   3.515  13.362  0.6903 -0.3333  0.7274
 9167TIP3    H248917   6.359   3.520  13.431 -0.8342 -0.5786 -2.0980
 9168TIP3   OH248918   5.413   6.571  11.147  0.8563 -0.3764 -0.3250
 9168TIP3    H148919   5.422   6.650  11.094  1.4434  1.0652  1.8099
 9168TIP3    H248920   5.319   6.550  11.145  0.6384  0.6106 -0.5863
 9169TIP3   OH248921   6.062   6.147  16.072 -0.7675 -0.3633 -0.1664
 9169TIP3    H148922   6.039   6.112  16.159 -0.8676 -0.2599 -0.1513
 9169TIP3    H248923   6.010   6.226  16.064 -0.2360  0.0096 -0.0295
 9170TIP3   OH248924   4.634   0.021  13.475 -0.0355 -0.4113 -0.2256
 9170TIP3    H148925   4.707  -0.039  13.491 -0.5048 -0.9531 -0.0395
 9170TIP3    H248926   4.674   0.107  13.465  0.6335 -0.7192 -0.2392
 9171TIP3   OH248927   6.597   1.593   5.401  0.0560 -0.1376  0.0065
 9171TIP3    H148928   6.647   1.545   5.467  0.6216  0.2523 -0.1334
 9171TIP3    H248929   6.603   1.685   5.429  1.7260  0.2586 -1.4701
 9172TIP3   OH248930   3.450   4.927  12.244 -0.6021 -0.0757 -0.4270
 9172TIP3    H148931   3.520   4.983  12.278 -1.4276  0.4444  0.5054
 9172TIP3    H248932   3.378   4.939  12.307 -0.7138 -2.4496 -0.0204
 9173TIP3   OH248933   6.292   2.986   1.498  0.2364  0.0788  0.5652
 9173TIP3    H148934   6.207   2.974   1.456 -0.2205  1.7208  0.9507
 9173TIP3    H248935   6.284   3.069   1.546  2.1514  0.4396  0.3574
 9174TIP3   OH248936   2.089   4.023  11.740 -0.0443 -0.0328 -0.1923
 9174TIP3    H148937   2.015   3.968  11.766 -1.3620  1.5116 -0.5188
 9174TIP3    H248938   2.107   4.077  11.817 -0.5557  0.9411 -0.7336
 9175TIP3   OH248939   0.369   0.527   2.174 -0.2743  0.6732 -0.1146
 9175TIP3    H148940   0.442   0.517   2.113  0.3873  0.6035  0.6782
 9175TIP3    H248941   0.379   0.455   2.236 -2.4018 -0.8189 -1.3527
 9176TIP3   OH248942   3.742   4.519  15.519  0.0291 -0.2769 -0.0419
 9176TIP3    H148943   3.711   4.450  15.578  1.3687 -2.4413 -1.7453
 9176TIP3    H248944   3.836   4.525  15.536  0.3345 -0.5473 -1.5697
 9177TIP3   OH248945   0.000   1.931  15.062  0.3146  0.2391  0.6882
 9177TIP3    H148946  -0.016   1.858  15.122  1.4066 -1.5745 -1.1231
 9177TIP3    H248947   0.095   1.945  15.066  0.5641 -0.5986 -1.3098
 9178TIP3   OH248948   2.541   5.330  12.412 -0.5147  0.1233 -0.2051
 9178TIP3    H148949   2.527   5.295  12.324  3.0644 -1.6565 -0.2631
 9178TIP3    H248950   2.456   5.321  12.455 -1.8998 -0.7541 -2.8508
 9179TIP3   OH248951   5.537   2.389  14.319  0.5330  0.6005 -0.3679
 9179TIP3    H148952   5.548   2.317  14.381 -0.9039 -1.0599 -1.9371
 9179TIP3    H248953   5.609   2.378  14.256  0.2766  0.5027 -0.6440
 9180TIP3   OH248954   3.964   0.355   1.039  0.5963  0.4517  0.0370
 9180TIP3    H148955   4.056   0.329   1.037  0.1751 -1.0768 -0.5602
 9180TIP3    H248956   3.918   0.282   0.999 -0.8170  1.4993 -0.3006
 9181TIP3   OH248957   3.167   5.241   3.588  0.5026 -0.4397  0.0222
 9181TIP3    H148958   3.110   5.269   3.516 -1.4666 -0.8787  1.3193
 9181TIP3    H248959   3.137   5.152   3.608  1.9249 -0.8216  0.5303
 9182TIP3   OH248960   5.476   5.959   2.352 -0.1757  0.5903  0.5657
 9182TIP3    H148961   5.556   5.944   2.301 -0.1205 -1.5624  1.2107
 9182TIP3    H248962   5.495   5.924   2.439 -2.2750 -1.4635  0.3087
 9183TIP3   OH248963   0.103   3.320   0.871 -0.5879  0.3174 -0.3179
 9183TIP3    H148964   0.097   3.311   0.776 -1.4199  2.3373 -0.5163
 9183TIP3    H248965   0.174   3.383   0.884 -0.3256 -0.1276  0.4163
 9184TIP3   OH248966   5.607   4.403  12.575  0.5960  0.2958  0.5970
 9184TIP3    H148967   5.617   4.316  12.613 -0.1296  0.4942  1.2585
 9184TIP3    H248968   5.564   4.387  12.490  1.0087 -0.0373  0.4505
 9185TIP3   OH248969   2.187   1.096  15.825  0.1179 -0.2928 -0.1019
 9185TIP3    H148970   2.281   1.080  15.828  0.3536  1.1398  1.6488
 9185TIP3    H248971   2.178   1.179  15.778 -0.2696 -0.4093 -0.2345
 9186TIP3   OH248972   5.235   4.439  15.347  0.1741  0.1426 -0.2513
 9186TIP3    H148973   5.322   4.408  15.319 -0.3943  0.8036 -3.1426
 9186TIP3    H248974   5.219   4.517  15.293 -1.9763  0.3917  0.6461
 9187TIP3   OH248975   2.134   3.684   1.004 -0.0165  0.0556 -0.1925
 9187TIP3    H148976   2.174   3.724   0.927  2.0812 -2.7199 -0.7280
 9187TIP3    H248977   2.076   3.616   0.969 -0.3688 -0.1230  0.6849
 9188TIP3   OH248978   0.769   5.884  12.203 -0.2906  0.3524  0.2181
 9188TIP3    H148979   0.814   5.956  12.247 -0.9286  1.5580 -1.0302
 9188TIP3    H248980   0.734   5.830  12.274  2.8127 -0.5194  1.2595
 9189TIP3   OH248981   1.096   0.318  14.080 -0.0666  0.0174 -0.0088
 9189TIP3    H148982   1.182   0.341  14.115 -0.0272  1.0522 -0.7221
 9189TIP3    H248983   1.045   0.399  14.088 -1.1300 -0.6942  0.8070
 9190TIP3   OH248984   3.088   2.135   3.841 -0.0273 -0.6888 -0.0525
 9190TIP3    H148985   3.030   2.061   3.861  0.8034 -1.4537 -0.3532
 9190TIP3    H248986   3.033   2.212   3.849 -1.0741 -1.3844 -0.2791
 9191TIP3   OH248987   5.273   5.731  12.129  0.0164 -0.0450  0.1202
 9191TIP3    H148988   5.239   5.806  12.080  0.1548  0.1460  0.3130
 9191TIP3    H248989   5.361   5.717  12.093  0.8717  1.2673  1.5545
 9192TIP3   OH248990   5.877   2.605  11.718  0.5107  0.2657  0.3598
 9192TIP3    H148991   5.843   2.688  11.751 -0.0514  0.1981 -0.0337
 9192TIP3    H248992   5.820   2.538  11.755  1.1249  0.0208  0.8948
 9193TIP3   OH248993   5.081   6.760   5.126  0.3942 -0.3124  0.4296
 9193TIP3    H148994   5.174   6.745   5.140  0.3397 -0.7479  0.3294
 9193TIP3    H248995   5.076   6.795   5.036  0.5105  0.2349  0.6315
 9194TIP3   OH248996   5.230   2.704  15.419 -0.5598  0.4148 -0.0862
 9194TIP3    H148997   5.271   2.651  15.350  0.9823 -0.5409  1.4635
 9194TIP3    H248998   5.299   2.763  15.448 -1.2724  1.0033  0.4448
 9195TIP3   OH248999   0.796   5.585  13.493 -0.2527 -0.3328  0.8724
 9195TIP3    H149000   0.880   5.549  13.519 -0.0216 -1.3960 -1.1507
 9195TIP3    H249001   0.742   5.579  13.572  1.8763  1.6177  2.6195
 9196TIP3   OH249002   5.160   5.693  11.787  0.4275 -0.2887  0.2054
 9196TIP3    H149003   5.087   5.698  11.848  0.8234  0.2713  0.6478
 9196TIP3    H249004   5.178   5.600  11.778  0.3169 -0.3771  0.8922
 9197TIP3   OH249005   3.206   6.361   1.308 -0.3140 -0.2772 -0.6569
 9197TIP3    H149006   3.283   6.303   1.310  0.1576  0.2995  1.9884
 9197TIP3    H249007   3.239   6.442   1.270 -0.4223 -0.9940 -2.3434
 9198TIP3   OH249008   0.005   3.742  11.761 -0.5012  0.2249 -0.1669
 9198TIP3    H149009  -0.063   3.799  11.797 -0.3419  0.4172 -0.1657
 9198TIP3    H249010   0.039   3.694  11.837  0.6162  1.4547  0.1453
 9199TIP3   OH249011   1.174   4.049   6.545  0.7762  0.3470 -0.0454
 9199TIP3    H149012   1.131   4.112   6.488  0.7555  0.4178  0.0481
 9199TIP3    H249013   1.188   4.096   6.627  2.2511  0.7515 -0.5170
 9200TIP3   OH249014   5.470   6.559   4.861 -0.3199 -0.4157  0.4871
 9200TIP3    H149015   5.490   6.512   4.779 -0.0636  0.0130  0.3002
 9200TIP3    H249016   5.475   6.652   4.837  0.6292 -0.2699  1.1915
 9201TIP3   OH249017   0.290   4.542   5.693  0.0176 -0.2402 -0.2189
 9201TIP3    H149018   0.315   4.523   5.783 -0.5352  0.5923  0.1210
 9201TIP3    H249019   0.363   4.594   5.658  0.7268 -1.4564 -0.6047
 9202TIP3   OH249020   4.608   1.058   6.758 -0.3166  0.3900  0.3093
 9202TIP3    H149021   4.630   1.118   6.829 -1.3598  1.8402 -0.5334
 9202TIP3    H249022   4.599   1.114   6.680 -0.6260 -0.9500 -0.6690
 9203TIP3   OH249023   5.896   3.542  13.588  0.0761 -0.0490  0.1776
 9203TIP3    H149024   5.874   3.633  13.570 -1.5144 -0.4078  0.2136
 9203TIP3    H249025   5.894   3.535  13.683 -1.8042 -0.5671  0.1280
 9204TIP3   OH249026   0.607   4.077   3.704  0.1359 -0.4536  0.1909
 9204TIP3    H149027   0.652   4.161   3.712 -0.5122  0.1215 -1.5790
 9204TIP3    H249028   0.520   4.100   3.672  0.3655 -1.8345 -1.6180
 9205TIP3   OH249029   1.603   4.620  15.604  0.1696  0.3550  0.5128
 9205TIP3    H149030   1.558   4.543  15.570 -1.7440  0.5448  2.3848
 9205TIP3    H249031   1.535   4.687  15.608  1.4369  1.7042  0.3453
 9206TIP3   OH249032   5.471   5.472  11.682  0.3797  0.1864 -0.9361
 9206TIP3    H149033   5.385   5.470  11.722 -0.0124  0.6137 -1.7346
 9206TIP3    H249034   5.481   5.562  11.651  0.6620 -0.1418 -1.8161
 9207TIP3   OH249035   2.429   6.316   4.451  0.1066  0.3904  0.3143
 9207TIP3    H149036   2.350   6.264   4.438  0.2380 -0.0380  1.1569
 9207TIP3    H249037   2.492   6.255   4.489  0.5606  0.9415  0.4703
 9208TIP3   OH249038   4.348   3.844   0.876  0.3404  0.4065 -0.2238
 9208TIP3    H149039   4.379   3.862   0.787 -0.6363 -2.0465 -1.1376
 9208TIP3    H249040   4.281   3.777   0.865 -1.5117  1.7186  2.1823
 9209TIP3   OH249041   0.836   1.624   2.605  0.7225 -0.7914 -0.0799
 9209TIP3    H149042   0.903   1.598   2.669  1.5749 -2.1116 -1.4613
 9209TIP3    H249043   0.778   1.549   2.599 -1.4573  0.6251  1.6950
 9210TIP3   OH249044   4.539   3.621  11.549  0.3257  0.1605  0.2744
 9210TIP3    H149045   4.480   3.696  11.557  0.0777 -0.0073  0.0187
 9210TIP3    H249046   4.624   3.655  11.576  1.0113  1.5327 -3.1019
 9211TIP3   OH249047   4.991   5.276   0.177  0.5160 -0.1960 -0.1703
 9211TIP3    H149048   4.919   5.291   0.239 -0.4805 -0.1743 -1.2845
 9211TIP3    H249049   5.018   5.364   0.150  0.4521 -0.2140 -0.2980
 9212TIP3   OH249050   0.434   0.293   0.148  0.0409 -0.5753  0.9037
 9212TIP3    H149051   0.522   0.282   0.185 -0.1399  0.4545  1.6836
 9212TIP3    H249052   0.395   0.363   0.200 -0.5958  0.2304 -0.5941
 9213TIP3   OH249053   2.982   5.367   5.480 -0.1875 -0.2119 -0.3198
 9213TIP3    H149054   2.915   5.354   5.413  0.5500 -2.3999 -0.7234
 9213TIP3    H249055   3.053   5.309   5.454  1.0165  0.4987  1.2263
 9214TIP3   OH249056   1.648   4.240   4.631 -0.3854  0.1180 -0.2602
 9214TIP3    H149057   1.559   4.207   4.627  0.1109 -1.5671  1.1857
 9214TIP3    H249058   1.701   4.164   4.655  1.2064  1.4173  0.5933
 9215TIP3   OH249059   2.740   5.285  11.141 -0.6236 -0.3219 -0.9244
 9215TIP3    H149060   2.772   5.375  11.146 -1.0368 -0.1522 -1.2210
 9215TIP3    H249061   2.647   5.292  11.164 -0.8514 -0.5504 -1.7222
 9216TIP3   OH249062   4.413   0.493   3.459 -0.3677 -0.2175 -0.2999
 9216TIP3    H149063   4.460   0.541   3.391  0.2788 -1.7375 -0.9728
 9216TIP3    H249064   4.374   0.418   3.413 -2.6227  0.4301  0.4253
 9217TIP3   OH249065   0.987   5.445  16.139 -0.1274  0.2772  0.0021
 9217TIP3    H149066   1.056   5.400  16.188 -0.0712  0.7501  0.3633
 9217TIP3    H249067   1.034   5.490  16.068 -0.2303 -0.5772 -0.6383
 9218TIP3   OH249068   4.437   4.077  13.175  0.2040  0.0939 -0.0074
 9218TIP3    H149069   4.397   4.163  13.178  1.6836  0.8173  0.1432
 9218TIP3    H249070   4.471   4.064  13.264  0.1728 -0.5636 -0.0844
 9219TIP3   OH249071   0.286   0.639   3.234 -0.3547  0.3579 -0.3199
 9219TIP3    H149072   0.191   0.634   3.220 -0.2316  1.7687 -1.9397
 9219TIP3    H249073   0.321   0.569   3.178 -0.3860  0.4675 -0.4782
 9220TIP3   OH249074   0.537   2.782  13.598  0.2687  0.1738 -0.7257
 9220TIP3    H149075   0.618   2.781  13.547 -0.3428  0.3706 -1.7374
 9220TIP3    H249076   0.472   2.816  13.537 -0.4400  0.6405  0.2855
 9221TIP3   OH249077   5.620   2.762  12.474  0.0490 -0.2371 -0.6091
 9221TIP3    H149078   5.584   2.810  12.399  0.3862  0.7148 -0.1729
 9221TIP3    H249079   5.545   2.712  12.508 -1.3543  2.8179  1.1706
 9222TIP3   OH249080   3.947   0.352  15.112  0.4358  0.1493 -0.0153
 9222TIP3    H149081   3.885   0.335  15.042  0.2596  0.4937  0.0547
 9222TIP3    H249082   4.027   0.381  15.068 -0.4117  2.7505 -0.0284
 9223TIP3   OH249083   1.767   1.203   0.346 -0.1906  0.5844  0.5223
 9223TIP3    H149084   1.821   1.275   0.314 -0.3291 -0.3201 -1.9788
 9223TIP3    H249085   1.824   1.126   0.337 -1.4123 -0.1999 -1.0234
 9224TIP3   OH249086   0.376   0.973  14.022 -0.6983 -0.9462  0.2494
 9224TIP3    H149087   0.372   1.018  14.106 -1.7507  3.8600 -1.9722
 9224TIP3    H249088   0.288   0.984  13.985  0.4921 -0.0203 -2.6294
 9225TIP3   OH249089   1.961   2.596  11.867 -0.0164  0.7946 -0.5917
 9225TIP3    H149090   2.011   2.534  11.813 -0.2699  1.1604 -1.2666
 9225TIP3    H249091   1.876   2.555  11.879 -0.1509  0.9620 -0.9553
 9226TIP3   OH249092   5.745   0.778  12.234 -0.0894  0.4956 -0.2924
 9226TIP3    H149093   5.775   0.861  12.196  0.0997  1.2587  1.4046
 9226TIP3    H249094   5.655   0.769  12.205 -0.9258  2.5585  1.3734
 9227TIP3   OH249095   0.710   3.808  13.464  0.4546  0.3671  0.4277
 9227TIP3    H149096   0.664   3.812  13.381  0.2636  0.4310  0.5350
 9227TIP3    H249097   0.657   3.749  13.518  1.9959 -1.8755 -0.3726
 9228TIP3   OH249098   6.271   3.178   3.004 -0.0559 -0.0790 -0.1410
 9228TIP3    H149099   6.366   3.171   2.996 -0.2540 -0.5876 -2.9516
 9228TIP3    H249100   6.245   3.100   3.053  1.0746  1.2002  2.7433
 9229TIP3   OH249101   4.869   0.004  16.951  0.4443  0.7129 -0.5397
 9229TIP3    H149102   4.927   0.078  16.971 -0.4661  1.7023 -1.4750
 9229TIP3    H249103   4.855   0.009  16.857 -0.7250  0.1570 -0.4073
 9230TIP3   OH249104   0.237   2.016   5.441 -0.4255 -0.1536 -0.0579
 9230TIP3    H149105   0.308   1.955   5.462  0.2593  1.1567  1.6923
 9230TIP3    H249106   0.162   1.984   5.491  0.1203  0.7665  1.3982
 9231TIP3   OH249107   1.562   1.240  15.048  0.0915  0.3893 -0.0344
 9231TIP3    H149108   1.510   1.165  15.018  0.5588 -0.0541  0.2534
 9231TIP3    H249109   1.574   1.226  15.142  1.3081  0.1121 -0.2053
 9232TIP3   OH249110   0.591   2.949  15.437  0.0345  0.0507  0.1045
 9232TIP3    H149111   0.563   2.864  15.472  2.9468 -1.0648  0.0416
 9232TIP3    H249112   0.634   2.991  15.511  1.0676  0.2210 -0.5735
 9233TIP3   OH249113   2.838   6.595   1.519  0.0753 -0.7888  0.2708
 9233TIP3    H149114   2.912   6.534   1.519  0.3377 -0.4843 -0.3012
 9233TIP3    H249115   2.811   6.599   1.427  1.9452  2.1766 -0.2803
 9234TIP3   OH249116   6.580   0.859   2.521  0.0340 -0.1171  0.2691
 9234TIP3    H149117   6.548   0.768   2.518 -0.5494  0.0825 -2.6807
 9234TIP3    H249118   6.583   0.886   2.429  4.9807  1.2790  0.5605
 9235TIP3   OH249119   2.659   6.815  10.825  0.5936  0.3888 -0.0284
 9235TIP3    H149120   2.570   6.783  10.838  0.4497  1.3269  1.5808
 9235TIP3    H249121   2.659   6.902  10.864  1.9306  0.8481 -1.0111
 9236TIP3   OH249122   2.566   1.555   2.520  0.4293 -0.1076  0.2885
 9236TIP3    H149123   2.597   1.470   2.488 -1.9612 -1.2614  0.7905
 9236TIP3    H249124   2.594   1.559   2.611  0.5907 -0.3408  0.2479
 9237TIP3   OH249125   3.178   4.988  12.356 -0.0255  0.8310 -0.0155
 9237TIP3    H149126   3.120   5.060  12.378 -0.4582  0.9378 -1.4252
 9237TIP3    H249127   3.124   4.927  12.307  0.1334 -0.8588  1.7906
 9238TIP3   OH249128   3.264   4.158  13.365 -0.0248 -0.3366  0.3198
 9238TIP3    H149129   3.192   4.166  13.427  0.2089  1.0440  0.4316
 9238TIP3    H249130   3.290   4.248  13.345 -0.1500 -0.7198 -1.8667
 9239TIP3   OH249131   2.307   6.788  14.262  0.1668  0.3162 -0.0944
 9239TIP3    H149132   2.334   6.827  14.345 -1.3765 -1.9332  1.5633
 9239TIP3    H249133   2.279   6.863  14.208  2.2237  1.9298  0.9352
 9240TIP3   OH249134   2.421   6.762  16.306 -0.1889 -0.0875 -0.4160
 9240TIP3    H149135   2.398   6.821  16.233 -2.6848 -0.0302  0.3261
 9240TIP3    H249136   2.435   6.821  16.380 -1.2414 -0.2929 -0.0279
 9241TIP3   OH249137   0.109   6.427  14.103  0.3702 -0.1390  0.4181
 9241TIP3    H149138   0.102   6.378  14.185 -0.5289  0.0753  0.4786
 9241TIP3    H249139   0.020   6.432  14.070  0.3127  1.9678  0.7178
 9242TIP3   OH249140   0.123   0.888  10.286  0.3323  0.7975  0.2836
 9242TIP3    H149141   0.213   0.919  10.290 -0.6450  3.9363  1.0733
 9242TIP3    H249142   0.116   0.846  10.200  2.7261 -0.3559  0.5848
 9243TIP3   OH249143   5.771   2.318  16.514 -0.0079 -0.0078  0.6337
 9243TIP3    H149144   5.850   2.293  16.562 -0.8168 -2.2229  0.9042
 9243TIP3    H249145   5.713   2.353  16.581  0.1890  0.2639  0.6664
 9244TIP3   OH249146   0.427   2.445  11.665  0.2956 -0.0590  0.4177
 9244TIP3    H149147   0.360   2.495  11.619  1.6451  0.0804 -1.4838
 9244TIP3    H249148   0.380   2.370  11.701 -1.1594  0.8910  0.5831
 9245TIP3   OH249149   1.959   1.167   3.144 -0.2302  0.2593 -0.0690
 9245TIP3    H149150   1.967   1.072   3.141  0.8377  0.3440 -0.7563
 9245TIP3    H249151   1.866   1.184   3.155 -0.4104 -0.8667  0.2053
 9246TIP3   OH249152   1.308   1.118  13.408  0.0103 -0.3818  0.1228
 9246TIP3    H149153   1.230   1.121  13.352 -1.0106 -2.8605  1.2818
 9246TIP3    H249154   1.341   1.208  13.406 -0.7562 -0.0028 -3.2863
 9247TIP3   OH249155   4.266   6.626  15.339  0.7654 -0.1846 -0.4755
 9247TIP3    H149156   4.214   6.581  15.405  0.3256  0.9661 -0.0229
 9247TIP3    H249157   4.207   6.633  15.263 -0.2738  2.2465  0.4540
 9248TIP3   OH249158   6.462   3.894  10.522 -0.0141 -0.0512 -0.3545
 9248TIP3    H149159   6.376   3.852  10.512 -0.0310 -0.0002 -0.4251
 9248TIP3    H249160   6.456   3.974  10.470 -0.3831  0.6480  0.7309
 9249TIP3   OH249161   0.012   5.128   1.851 -0.0754  0.2376  0.6357
 9249TIP3    H149162   0.038   5.108   1.941 -0.1268 -0.6442  0.4723
 9249TIP3    H249163  -0.027   5.215   1.855  2.8043  1.6354  0.9216
 9250TIP3   OH249164   0.446   3.543  11.871 -0.1368  0.3194 -0.2834
 9250TIP3    H149165   0.429   3.451  11.891 -0.1536  0.1633 -0.9699
 9250TIP3    H249166   0.468   3.543  11.778 -0.1683  1.0141 -0.2963
 9251TIP3   OH249167   2.247   4.950   3.477  0.2135 -0.4211 -0.2588
 9251TIP3    H149168   2.226   4.964   3.384  3.2807 -2.5993 -1.4558
 9251TIP3    H249169   2.207   4.865   3.498  0.4085 -0.4235  0.1051
 9252TIP3   OH249170   5.546   3.080   5.755  0.2556  0.0618 -0.3388
 9252TIP3    H149171   5.485   3.142   5.793  0.5341 -0.1006  0.4072
 9252TIP3    H249172   5.521   3.072   5.663 -1.2277 -0.4722  0.0935
 9253TIP3   OH249173   4.078   3.950   3.396  0.0781  0.0716 -0.3417
 9253TIP3    H149174   4.097   4.043   3.386  2.2461 -0.0322  1.9272
 9253TIP3    H249175   4.140   3.906   3.339 -0.8174 -0.0338 -1.2649
 9254TIP3   OH249176   4.654   0.804  13.182 -1.0906 -0.1860  0.6188
 9254TIP3    H149177   4.681   0.739  13.247  0.6666 -0.0698  0.0594
 9254TIP3    H249178   4.640   0.884  13.233 -1.0432 -0.4291  1.0166
 9255TIP3   OH249179   5.793   6.767   2.741  0.4622 -0.0237 -0.2791
 9255TIP3    H149180   5.746   6.798   2.818  0.1733 -1.1971  0.0267
 9255TIP3    H249181   5.883   6.759   2.769 -0.0059 -2.7105  0.6749
 9256TIP3   OH249182   4.312   6.483  16.860  0.0362  0.1966 -0.4746
 9256TIP3    H149183   4.256   6.481  16.937  0.9295 -0.3700  0.1933
 9256TIP3    H249184   4.347   6.394  16.854  1.0754  0.6013 -0.6941
 9257TIP3   OH249185   1.236   6.335  15.344  0.0169 -0.0518  0.2098
 9257TIP3    H149186   1.145   6.303  15.340 -0.5514  1.5379 -2.3951
 9257TIP3    H249187   1.250   6.359  15.435 -2.4606  0.3443  0.5526
 9258TIP3   OH249188   2.270   1.077  11.254  0.3168  0.0593  0.4767
 9258TIP3    H149189   2.302   1.119  11.175  1.2801 -0.7582  0.4258
 9258TIP3    H249190   2.245   0.989  11.227 -0.5350  0.1767  0.8328
 9259TIP3   OH249191   5.567   1.676  16.142 -0.3418  0.1353 -0.0370
 9259TIP3    H149192   5.484   1.715  16.168  0.2279  1.9538 -0.8380
 9259TIP3    H249193   5.627   1.696  16.214 -0.0109  0.9243 -0.5155
 9260TIP3   OH249194   3.995   2.610   3.869 -0.0358  0.0140  0.0667
 9260TIP3    H149195   3.998   2.527   3.821  0.8563 -0.4911  0.9625
 9260TIP3    H249196   3.986   2.676   3.801 -2.4074 -0.8698 -0.6117
 9261TIP3   OH249197   5.210   5.146   0.984  0.1335  0.4267  0.3572
 9261TIP3    H149198   5.293   5.145   1.032  0.7242 -0.8696 -0.6158
 9261TIP3    H249199   5.147   5.110   1.046  0.5846  0.1471  0.6663
 9262TIP3   OH249200   5.596   5.978  15.381  0.3250  0.4513 -0.0792
 9262TIP3    H149201   5.677   5.933  15.403  0.8419  1.7985  0.8782
 9262TIP3    H249202   5.623   6.064  15.351 -0.7780  1.7262  2.2948
 9263TIP3   OH249203   2.107   6.004  13.062  0.5262  0.4247 -0.0522
 9263TIP3    H149204   2.133   6.016  12.970  1.4534 -1.8110 -0.1464
 9263TIP3    H249205   2.168   6.059  13.111 -1.4380  3.5448 -0.7674
 9264TIP3   OH249206   3.259   3.541  15.460  0.4418  0.2951  0.1049
 9264TIP3    H149207   3.300   3.562  15.376  2.5873 -1.8726  0.5193
 9264TIP3    H249208   3.181   3.491  15.436  0.1424  1.0640 -0.5978
 9265TIP3   OH249209   1.980   3.012  14.099  0.0080  0.8460 -0.1730
 9265TIP3    H149210   2.062   3.034  14.056  0.7591 -1.0546  0.1891
 9265TIP3    H249211   1.996   3.029  14.192  1.1917 -2.4247  0.3682
 9266TIP3   OH249212   5.774   2.319   3.363 -0.1636 -0.7010 -0.5802
 9266TIP3    H149213   5.850   2.362   3.323 -1.0055  0.5030 -0.9530
 9266TIP3    H249214   5.730   2.276   3.290 -0.3032 -0.6794 -0.5080
 9267TIP3   OH249215   2.623   4.346  15.010  0.2529  0.0643  0.4870
 9267TIP3    H149216   2.571   4.303  14.942  0.0354 -0.5472  1.0201
 9267TIP3    H249217   2.593   4.437  15.010 -0.2482 -0.0965  0.2413
 9268TIP3   OH249218   5.530   2.637   0.835 -0.1660 -0.4431 -0.4156
 9268TIP3    H149219   5.454   2.641   0.777  0.1562  0.4818 -0.7830
 9268TIP3    H249220   5.507   2.693   0.909  0.9131  1.5267 -1.4714
 9269TIP3   OH249221   4.234   1.010   0.249 -0.0066  0.3141  0.1100
 9269TIP3    H149222   4.235   0.926   0.295  0.3673  0.4901  0.4255
 9269TIP3    H249223   4.324   1.022   0.219 -0.1587  0.3922 -0.3261
 9270TIP3   OH249224   5.635   2.977  13.609 -0.6587 -0.2754 -0.4214
 9270TIP3    H149225   5.591   2.893  13.599  0.6278 -1.2197  1.3181
 9270TIP3    H249226   5.567   3.042  13.587 -2.3204 -1.6933  0.2491
 9271TIP3   OH249227   2.558   1.321   5.450 -0.3956  0.1355  0.4314
 9271TIP3    H149228   2.503   1.397   5.470 -0.6148  0.2472 -0.5640
 9271TIP3    H249229   2.647   1.351   5.467 -0.3036  1.2652 -1.8019
 9272TIP3   OH249230   1.820   4.499   5.430  0.0141 -0.2198  0.0488
 9272TIP3    H149231   1.824   4.550   5.349 -0.6592 -0.4767 -0.1573
 9272TIP3    H249232   1.894   4.530   5.482 -1.0128  1.7661  0.4242
 9273TIP3   OH249233   4.425   1.372   3.198 -0.2622  0.2345  0.0829
 9273TIP3    H149234   4.391   1.286   3.219  0.8164 -0.0015  0.9591
 9273TIP3    H249235   4.347   1.426   3.182 -0.9534 -0.7590  0.0451
 9274TIP3   OH249236   4.373   3.441  16.727  0.1325  0.8791  0.7510
 9274TIP3    H149237   4.462   3.414  16.703 -0.6076  0.0100 -1.2667
 9274TIP3    H249238   4.336   3.476  16.646 -1.4021  1.1106  1.5216
 9275TIP3   OH249239   2.635   6.516  16.862 -0.7065  0.0874  0.1241
 9275TIP3    H149240   2.570   6.457  16.825 -1.0988 -0.2023  1.2158
 9275TIP3    H249241   2.713   6.462  16.873 -0.2641  0.4331 -1.1793
 9276TIP3   OH249242   1.550   5.651  13.172  0.3747 -0.0716 -0.1751
 9276TIP3    H149243   1.582   5.667  13.083  0.5073  1.7223  0.1575
 9276TIP3    H249244   1.466   5.607  13.160 -0.2101  1.2760 -1.2353
 9277TIP3   OH249245   1.262   0.734  11.295 -0.4159 -0.3023 -0.0982
 9277TIP3    H149246   1.211   0.781  11.361  0.1424  0.3440 -0.1099
 9277TIP3    H249247   1.296   0.803  11.238 -0.6539 -0.8308 -0.8943
 9278TIP3   OH249248   1.197   4.690   4.317 -0.7267  0.5490 -0.1257
 9278TIP3    H149249   1.280   4.715   4.357 -0.9978  2.3918 -0.6035
 9278TIP3    H249250   1.164   4.771   4.278 -2.4849 -0.2607 -0.4260
 9279TIP3   OH249251   0.417   3.936  14.031  0.0119 -0.0816 -0.0985
 9279TIP3    H149252   0.383   4.025  14.032 -0.4432 -0.2599  0.5126
 9279TIP3    H249253   0.510   3.945  14.047  0.1487  0.3555 -1.0529
 9280TIP3   OH249254   0.490   5.459   0.520 -0.1059  0.5011 -0.2537
 9280TIP3    H149255   0.572   5.501   0.549 -0.3850  1.2306 -0.4807
 9280TIP3    H249256   0.457   5.414   0.597  1.1216 -0.8377 -0.4609
 9281TIP3   OH249257   1.057   3.536   4.445  0.1331  0.3015  0.0202
 9281TIP3    H149258   1.097   3.449   4.447 -0.4654  0.0075 -0.2253
 9281TIP3    H249259   0.972   3.523   4.487 -0.9604  0.2164 -2.0867
 9282TIP3   OH249260   3.712   3.168  14.592 -0.5584 -0.1101  0.4124
 9282TIP3    H149261   3.687   3.212  14.673 -1.2085 -3.0837  1.9405
 9282TIP3    H249262   3.786   3.113  14.616 -1.2637 -1.6543 -0.7891
 9283TIP3   OH249263   1.989   4.596  11.766 -0.0072 -0.6170  0.0780
 9283TIP3    H149264   2.079   4.608  11.797  0.0463  0.2778 -0.3953
 9283TIP3    H249265   1.964   4.509  11.798  0.9432 -0.7807  0.4057
 9284TIP3   OH249266   0.462   4.116   4.216 -0.1886  0.1087  0.1411
 9284TIP3    H149267   0.367   4.121   4.224 -0.2783 -0.7383 -0.2580
 9284TIP3    H249268   0.492   4.087   4.301 -0.3615 -0.4249  0.0213
 9285TIP3   OH249269   6.627   3.572   5.859 -0.3397 -0.0708  0.1216
 9285TIP3    H149270   6.646   3.534   5.945 -1.7371 -1.4195 -0.1254
 9285TIP3    H249271   6.704   3.626   5.840 -0.2848  0.8173  2.4844
 9286TIP3   OH249272   0.188   3.248   4.102  0.4616  0.1120 -0.8628
 9286TIP3    H149273   0.130   3.234   4.177  1.2084  1.1752 -0.0662
 9286TIP3    H249274   0.212   3.159   4.074 -2.1411 -0.4158 -1.7497
 9287TIP3   OH249275   6.640   3.041  11.936 -0.2345 -0.1080 -0.3799
 9287TIP3    H149276   6.707   3.056  11.869 -0.0727 -0.3867 -0.2833
 9287TIP3    H249277   6.668   2.961  11.980 -0.2330  0.1795  0.1494
 9288TIP3   OH249278   3.072   0.269  12.743 -0.2875 -0.4527  0.1513
 9288TIP3    H149279   3.099   0.225  12.663 -1.5090 -0.8490 -0.0556
 9288TIP3    H249280   3.041   0.355  12.714 -0.7640 -0.6094  0.1906
 9289TIP3   OH249281   3.746   5.870  13.760  0.2463 -0.0356  0.3775
 9289TIP3    H149282   3.762   5.964  13.771  0.4600 -0.1235  0.8404
 9289TIP3    H249283   3.679   5.850  13.824 -0.7619  0.0554 -0.6215
 9290TIP3   OH249284   0.393   5.417  13.339  0.0096 -0.3590 -0.0696
 9290TIP3    H149285   0.424   5.507  13.349  0.7841 -0.7393  1.1133
 9290TIP3    H249286   0.302   5.427  13.311  0.2387  0.7854 -0.4967
 9291TIP3   OH249287   1.743   5.938  13.929 -0.0434  0.4071 -0.1360
 9291TIP3    H149288   1.738   5.999  14.002 -0.7804 -0.7305  0.8126
 9291TIP3    H249289   1.738   5.851  13.970  0.6965 -0.2922 -1.4479
 9292TIP3   OH249290   0.346   0.456  11.618 -0.8423 -0.5650  0.6452
 9292TIP3    H149291   0.385   0.384  11.668  0.1074  0.5877  1.6504
 9292TIP3    H249292   0.312   0.516  11.685  1.0102  1.3379 -0.0057
 9293TIP3   OH249293   4.846   4.563  16.334  0.1087 -0.0478  0.5290
 9293TIP3    H149294   4.793   4.539  16.258  0.8447 -2.1757  0.5911
 9293TIP3    H249295   4.819   4.501  16.402  1.3391  0.0343  1.1267
 9294TIP3   OH249296   0.271   5.802  15.343  0.5174  0.2725 -0.2670
 9294TIP3    H149297   0.302   5.891  15.327  0.2501  0.4199  0.0281
 9294TIP3    H249298   0.194   5.813  15.400  0.1403 -0.1095 -0.6982
 9295TIP3   OH249299   0.815   6.296   1.849 -0.3785  0.0960 -0.3738
 9295TIP3    H149300   0.790   6.386   1.867  0.9621  0.0420  2.1837
 9295TIP3    H249301   0.880   6.302   1.779  2.0924  1.5102  1.8860
 9296TIP3   OH249302   6.729   5.585  13.630 -0.1243  0.2504 -0.4341
 9296TIP3    H149303   6.723   5.570  13.724 -0.9492  0.1110 -0.5027
 9296TIP3    H249304   6.801   5.530  13.601  0.8461  1.1151  0.2765
 9297TIP3   OH249305   4.066   5.971  11.556 -0.1761  0.7599 -0.2360
 9297TIP3    H149306   4.158   5.946  11.558 -0.8351 -1.9008  1.0330
 9297TIP3    H249307   4.064   6.059  11.594  1.6361  0.0805  1.6056
 9298TIP3   OH249308   4.287   4.657  15.345 -0.2139 -0.1667 -0.5379
 9298TIP3    H149309   4.238   4.652  15.427  0.9424 -2.4390  0.1187
 9298TIP3    H249310   4.221   4.669  15.277 -1.3001  0.5023  0.6006
 9299TIP3   OH249311   1.921   1.888  12.553  0.0594  0.4371 -0.1799
 9299TIP3    H149312   1.908   1.891  12.459  0.1673  2.8899 -0.1884
 9299TIP3    H249313   1.849   1.939  12.589 -0.4855 -1.1903  1.1737
 9300TIP3   OH249314   6.401   0.767  15.278 -0.3434 -0.7334 -0.3835
 9300TIP3    H149315   6.454   0.843  15.255 -0.0730 -0.9091 -0.3488
 9300TIP3    H249316   6.325   0.803  15.323 -1.2111 -0.3225 -2.0924
 9301TIP3   OH249317   5.379   5.123  12.004 -0.8575 -0.6166  0.0789
 9301TIP3    H149318   5.415   5.208  12.031 -1.4551 -0.6235  0.9311
 9301TIP3    H249319   5.409   5.063  12.072 -1.1217 -0.9340 -0.0879
 9302TIP3   OH249320   4.630   1.778   1.024  0.1777 -0.0647 -0.4006
 9302TIP3    H149321   4.607   1.808   0.936  0.4805  1.5745  0.0510
 9302TIP3    H249322   4.675   1.695   1.010  1.8951  1.0424 -1.9737
 9303TIP3   OH249323   1.320   2.585  16.142  0.3216 -0.0929  0.0452
 9303TIP3    H149324   1.403   2.537  16.139  1.2794  1.4314  1.3576
 9303TIP3    H249325   1.339   2.669  16.101 -0.7538  0.0732 -0.1553
 9304TIP3   OH249326   6.735   2.780  16.367  0.4411 -0.6402 -0.1891
 9304TIP3    H149327   6.703   2.707  16.314  1.3373 -0.0525 -1.6005
 9304TIP3    H249328   6.721   2.857  16.313  1.2470  0.0023  0.4846
 9305TIP3   OH249329   0.851   1.894   5.033  0.6846  0.2227  0.1258
 9305TIP3    H149330   0.761   1.902   5.065  0.4649 -1.8924  0.1412
 9305TIP3    H249331   0.842   1.894   4.938  0.8141  1.1446  0.0990
 9306TIP3   OH249332   3.196   3.111   2.757 -0.0651 -0.1007 -0.3113
 9306TIP3    H149333   3.221   3.042   2.696  0.7686 -1.6930  1.6991
 9306TIP3    H249334   3.195   3.068   2.843  0.0088  2.2869  0.9743
 9307TIP3   OH249335   2.154   0.744   3.725 -0.2288  0.1044  0.2967
 9307TIP3    H149336   2.206   0.779   3.797 -1.8388  0.9390  1.1028
 9307TIP3    H249337   2.153   0.814   3.660 -0.8727  0.3294  0.5533
 9308TIP3   OH249338   0.523   5.182   4.358 -0.4131  0.8392 -0.2120
 9308TIP3    H149339   0.594   5.120   4.367 -1.2329 -0.0728  0.1545
 9308TIP3    H249340   0.489   5.168   4.269 -1.3085 -0.0451  0.2492
 9309TIP3   OH249341   2.784   6.256  13.122 -0.5388 -0.1044 -0.2829
 9309TIP3    H149342   2.769   6.193  13.052  0.6357  0.3230 -0.9270
 9309TIP3    H249343   2.878   6.272  13.122 -0.9106  2.5429 -0.9172
 9310TIP3   OH249344   5.200   0.635  12.336 -0.0817 -0.2430  0.1014
 9310TIP3    H149345   5.248   0.701  12.387 -0.1540  0.1473 -0.3269
 9310TIP3    H249346   5.142   0.686  12.280  0.7626 -0.6007 -1.1620
 9311TIP3   OH249347   5.015   4.699   5.090 -0.2414 -0.4134  0.0538
 9311TIP3    H149348   5.034   4.641   5.164 -0.2518  1.3486  1.4892
 9311TIP3    H249349   4.919   4.694   5.081 -0.4199  0.4831  1.1681
 9312TIP3   OH249350   2.293   5.030   1.313  0.2176  0.6519 -0.4238
 9312TIP3    H149351   2.281   4.993   1.400 -0.2147 -1.5225 -1.3462
 9312TIP3    H249352   2.204   5.048   1.282  0.1946 -0.9501 -1.3522
 9313TIP3   OH249353   3.239   6.199   3.379 -0.0174 -0.3315  0.3988
 9313TIP3    H149354   3.280   6.285   3.368 -0.1643 -0.5062 -2.1616
 9313TIP3    H249355   3.297   6.139   3.334 -2.2742 -0.7861 -2.1751
 9314TIP3   OH249356   1.736   2.452  11.036 -0.2211 -0.3684 -0.0577
 9314TIP3    H149357   1.660   2.504  11.062 -0.9330 -1.2156 -0.4208
 9314TIP3    H249358   1.706   2.362  11.041  0.0056 -0.6394 -2.5129
 9315TIP3   OH249359   0.931   4.267  12.521 -0.2326  0.0051  0.1861
 9315TIP3    H149360   0.893   4.273  12.609 -0.1517 -0.1549  0.2334
 9315TIP3    H249361   0.963   4.177  12.515 -0.3484 -0.0210 -0.0534
 9316TIP3   OH249362   0.372   0.696  14.147 -0.0099  0.7199 -0.6777
 9316TIP3    H149363   0.426   0.630  14.104 -2.1986 -0.3824 -1.9366
 9316TIP3    H249364   0.358   0.763  14.080  0.5534  1.4838 -0.0498
 9317TIP3   OH249365   1.738   3.738  14.328  0.0634 -0.4913  0.1740
 9317TIP3    H149366   1.737   3.830  14.352  1.4546 -0.5184  0.4196
 9317TIP3    H249367   1.770   3.693  14.406 -0.5211 -1.1786  0.0271
 9318TIP3   OH249368   2.284   5.490   0.183  0.2269  0.3116  0.2740
 9318TIP3    H149369   2.292   5.398   0.209 -0.3528  0.3992  0.7864
 9318TIP3    H249370   2.341   5.537   0.244  0.6881  0.2776 -0.1222
 9319TIP3   OH249371   6.084   2.263   0.144 -0.1786 -0.2125 -0.0280
 9319TIP3    H149372   6.017   2.332   0.143 -0.2058 -0.2393 -0.0844
 9319TIP3    H249373   6.153   2.298   0.200 -1.4388 -1.3099  2.3733
 9320TIP3   OH249374   5.935   0.624  10.691  0.0048 -0.1605 -0.5353
 9320TIP3    H149375   6.009   0.639  10.750  0.9457 -1.4930 -1.3418
 9320TIP3    H249376   5.876   0.568  10.742  0.2068 -0.2437 -0.3885
 9321TIP3   OH249377   4.748   0.801   4.332  0.4972 -0.5202  0.0527
 9321TIP3    H149378   4.792   0.773   4.413  0.1281  1.2006  0.9046
 9321TIP3    H249379   4.808   0.865   4.294 -0.4147  0.5119  0.2895
 9322TIP3   OH249380   4.186   3.718  14.272 -0.6023  0.8692  0.0257
 9322TIP3    H149381   4.170   3.659  14.198  0.7262 -0.1159  0.4758
 9322TIP3    H249382   4.115   3.701  14.333 -0.3190 -0.2006  0.0803
 9323TIP3   OH249383   0.908   2.495  15.424 -0.6606  0.3674 -0.3505
 9323TIP3    H149384   0.963   2.482  15.501  0.4220 -0.2707 -1.2139
 9323TIP3    H249385   0.923   2.418  15.370 -0.3659  1.4162 -1.8314
 9324TIP3   OH249386   4.327   3.482  16.018 -0.2242  0.2431 -0.1097
 9324TIP3    H149387   4.357   3.571  16.035  0.3104  0.1809 -0.7087
 9324TIP3    H249388   4.248   3.473  16.072 -0.0165  0.9145  0.3132
 9325TIP3   OH249389   5.245   4.175   3.015 -0.3681  0.2051  0.6162
 9325TIP3    H149390   5.211   4.096   3.058  1.5034 -1.5978 -0.9858
 9325TIP3    H249391   5.183   4.193   2.944 -0.1835 -0.5695  0.2488
 9326TIP3   OH249392   3.710   0.003  16.075  0.1821  0.5430 -0.0408
 9326TIP3    H149393   3.675   0.076  16.125  0.6058  0.6873  0.0527
 9326TIP3    H249394   3.768  -0.043  16.136  0.8897  0.8612 -0.4574
 9327TIP3   OH249395   5.392   2.943  14.881  0.3183 -0.2277  0.1661
 9327TIP3    H149396   5.344   2.966  14.960  0.5381  0.1162  0.2018
 9327TIP3    H249397   5.335   2.970  14.809 -0.2575 -1.3166  0.1963
 9328TIP3   OH249398   3.858   4.185  14.150  0.1466  0.4199 -0.2477
 9328TIP3    H149399   3.792   4.240  14.193  0.1820 -1.1194  1.9115
 9328TIP3    H249400   3.843   4.199  14.056 -1.8566  1.7014  0.1969
 9329TIP3   OH249401   4.826   6.349  12.239 -0.0207  0.3215  0.1953
 9329TIP3    H149402   4.874   6.348  12.157  1.2349  2.6903  0.7932
 9329TIP3    H249403   4.753   6.410  12.223 -0.1833  0.2454  0.6354
 9330TIP3   OH249404   2.200   1.296  15.614 -0.2669 -0.3238  0.3012
 9330TIP3    H149405   2.255   1.252  15.549  0.5130  0.3207  0.5133
 9330TIP3    H249406   2.261   1.346  15.667 -1.1327  0.9857  0.1004
 9331TIP3   OH249407   6.578   5.062   0.208 -0.5472 -0.1162 -0.2626
 9331TIP3    H149408   6.505   5.117   0.234 -0.5048 -0.9389  1.7758
 9331TIP3    H249409   6.607   5.020   0.289  1.8149 -0.2681 -1.1099
 9332TIP3   OH249410   6.276   1.167  13.679  0.4553  0.0160  0.1012
 9332TIP3    H149411   6.302   1.126  13.596  0.3539  0.8238 -0.3410
 9332TIP3    H249412   6.185   1.141  13.691  1.1569 -2.2066  1.2783
 9333TIP3   OH249413   3.239   4.992  12.643 -0.6644 -0.0599 -0.5086
 9333TIP3    H149414   3.218   4.914  12.694  0.9635 -1.2434 -1.5774
 9333TIP3    H249415   3.232   4.965  12.552 -0.1300  1.0710 -0.9036
 9334TIP3   OH249416   0.217   1.302   2.723 -0.6481 -0.3671 -0.0033
 9334TIP3    H149417   0.271   1.223   2.730  1.5197  0.7674 -2.2468
 9334TIP3    H249418   0.181   1.300   2.635 -1.9786  0.3363  0.4952
 9335TIP3   OH249419   6.616   3.313  11.688  0.1321  0.4965 -0.1630
 9335TIP3    H149420   6.700   3.274  11.713  0.1145 -0.2043 -1.1444
 9335TIP3    H249421   6.584   3.355  11.768  0.9522 -0.0826  0.4823
 9336TIP3   OH249422   5.732   3.400   3.633  0.4283 -0.1798  0.3759
 9336TIP3    H149423   5.746   3.386   3.539  0.5260  0.0265  0.3603
 9336TIP3    H249424   5.817   3.380   3.673  0.6254  0.5703  0.3334
 9337TIP3   OH249425   6.499   2.556  10.771 -0.8350 -0.0300  0.2805
 9337TIP3    H149426   6.534   2.573  10.858 -2.8548 -0.5155  1.2238
 9337TIP3    H249427   6.545   2.619  10.715 -0.3473  1.1028  1.8765
 9338TIP3   OH249428   2.099   6.242   4.674 -0.8120 -0.2854 -0.2358
 9338TIP3    H149429   2.147   6.225   4.755 -0.3678 -1.6473 -0.7444
 9338TIP3    H249430   2.106   6.336   4.661  2.3796 -0.4720 -0.6531
 9339TIP3   OH249431   1.231   4.379   1.145  0.3530 -0.3136  0.2068
 9339TIP3    H149432   1.295   4.431   1.194 -1.6200  1.2213  1.3618
 9339TIP3    H249433   1.148   4.395   1.191 -0.9405 -1.8737 -1.4411
 9340TIP3   OH249434   5.115   4.077   1.374  0.7073  0.2264 -0.0201
 9340TIP3    H149435   5.112   4.060   1.468 -0.4967  1.1820  0.1410
 9340TIP3    H249436   5.040   4.028   1.338  0.7928  0.3562 -0.3826
 9341TIP3   OH249437   3.324   0.628   0.988 -0.3412 -1.0648  0.4710
 9341TIP3    H149438   3.336   0.535   0.970  0.7336 -0.9970  0.7581
 9341TIP3    H249439   3.236   0.634   1.024 -0.1404 -2.0929  1.1934
 9342TIP3   OH249440   5.831   4.528   3.660 -0.0912 -0.3679  0.0869
 9342TIP3    H149441   5.848   4.457   3.722  2.4551 -2.2887 -2.5709
 9342TIP3    H249442   5.852   4.608   3.709  0.0342 -1.6363  2.2119
 9343TIP3   OH249443   1.458   1.259   0.224 -0.0841  0.2334 -0.2381
 9343TIP3    H149444   1.533   1.297   0.179  0.4922  0.1608  0.6510
 9343TIP3    H249445   1.486   1.250   0.315 -0.3897 -1.8126 -0.3095
 9344TIP3   OH249446   1.946   4.307  15.412  0.7324  0.1943  0.3373
 9344TIP3    H149447   1.979   4.353  15.489  2.0613 -1.0996  0.5840
 9344TIP3    H249448   1.960   4.214  15.431 -0.0569 -0.2233 -0.9571
 9345TIP3   OH249449   2.489   0.140   0.354 -0.2482 -0.4384  0.8738
 9345TIP3    H149450   2.447   0.153   0.439 -2.7972  0.6403 -0.4444
 9345TIP3    H249451   2.433   0.076   0.309 -1.3010  1.8676 -1.3750
 9346TIP3   OH249452   4.508   5.212  14.107  0.2879 -0.3649 -0.2958
 9346TIP3    H149453   4.435   5.157  14.134 -0.0090  0.0160 -0.3059
 9346TIP3    H249454   4.513   5.199  14.012  0.4874 -0.6942 -0.2409
 9347TIP3   OH249455   0.228   3.560  11.112 -0.3001 -0.4156 -0.2916
 9347TIP3    H149456   0.164   3.521  11.172 -1.1285  0.5564 -0.5013
 9347TIP3    H249457   0.183   3.563  11.028  0.6020 -1.1313 -0.8193
 9348TIP3   OH249458   4.721   1.638   1.389  0.1164  0.3894 -0.1408
 9348TIP3    H149459   4.788   1.635   1.320 -0.9064  0.5338 -1.1706
 9348TIP3    H249460   4.659   1.705   1.359 -1.9292 -1.5978 -0.5911
 9349TIP3   OH249461   3.107   4.259  16.667  0.2723  0.0434 -0.1655
 9349TIP3    H149462   3.113   4.268  16.762  0.1560  0.2394 -0.1780
 9349TIP3    H249463   3.051   4.183  16.653 -0.2002  0.3758 -0.0835
 9350TIP3   OH249464   1.254   0.912  15.515  0.2050 -0.2380  0.2583
 9350TIP3    H149465   1.237   0.951  15.429  2.4123  2.7974  1.0258
 9350TIP3    H249466   1.177   0.936  15.568  0.6877  1.6589  0.1896
 9351TIP3   OH249467   5.388   5.909  11.414 -0.3744  0.6373 -0.5774
 9351TIP3    H149468   5.333   5.932  11.490  0.2813 -0.1602  0.1583
 9351TIP3    H249469   5.346   5.954  11.340 -2.0919 -0.0361 -0.0678
 9352TIP3   OH249470   2.948   5.485  15.969  0.6233 -0.2211  0.0245
 9352TIP3    H149471   2.913   5.572  15.949 -0.3044  0.1707  2.8711
 9352TIP3    H249472   2.876   5.425  15.950  1.2254 -0.4022 -1.8314
 9353TIP3   OH249473   3.374   1.915   2.108 -0.5581  0.2115  0.2518
 9353TIP3    H149474   3.377   1.924   2.204 -0.1389  1.1076  0.1661
 9353TIP3    H249475   3.316   1.841   2.093 -0.5793  0.0167  1.2057
 9354TIP3   OH249476   3.139   6.341  15.454  0.3171 -0.0776 -0.4397
 9354TIP3    H149477   3.155   6.269  15.514 -1.5637  0.5672  0.9228
 9354TIP3    H249478   3.225   6.360  15.416  1.6149 -0.4803  2.0794
 9355TIP3   OH249479   3.499   0.887   2.843 -0.0391 -0.2562 -0.2877
 9355TIP3    H149480   3.463   0.971   2.814  0.6832 -0.0378 -0.5607
 9355TIP3    H249481   3.443   0.861   2.916  1.8829  2.2274  2.2396
 9356TIP3   OH249482   6.312   1.114  14.203 -0.6696  0.2723 -0.4050
 9356TIP3    H149483   6.363   1.038  14.177  0.4494  0.5966  0.7023
 9356TIP3    H249484   6.316   1.114  14.299 -0.1559  2.0074 -0.3822
 9357TIP3   OH249485   2.018   5.168   0.388  0.2117  0.5510 -0.6170
 9357TIP3    H149486   2.110   5.163   0.360  0.2200 -0.7447 -0.4016
 9357TIP3    H249487   1.972   5.201   0.312  0.6341 -0.3452 -1.2790
 9358TIP3   OH249488   3.511   1.728  12.342  0.4762  0.5071 -0.1844
 9358TIP3    H149489   3.443   1.663  12.326  0.4776 -0.0739  1.7800
 9358TIP3    H249490   3.567   1.686  12.408  1.6383  1.7251 -0.3619
 9359TIP3   OH249491   0.203   5.234   4.572 -0.2916  0.2361 -0.0842
 9359TIP3    H149492   0.275   5.297   4.569 -0.4594  0.4336  0.0282
 9359TIP3    H249493   0.246   5.149   4.580 -0.0785  0.4218  0.9521
 9360TIP3   OH249494   2.072   4.689  12.331 -0.3713 -0.4394  1.2002
 9360TIP3    H149495   1.978   4.693  12.347 -0.6362 -0.7475 -0.1057
 9360TIP3    H249496   2.100   4.608  12.374 -1.2945 -1.9452 -0.8151
 9361TIP3   OH249497   2.076   3.252   3.741 -0.3747  0.9345  0.3766
 9361TIP3    H149498   2.143   3.198   3.783 -0.2307 -0.9822 -2.0965
 9361TIP3    H249499   2.008   3.262   3.807  0.4799 -0.6556  1.5630
 9362TIP3   OH249500   0.970   2.287   4.888 -0.3827 -0.3496  0.4515
 9362TIP3    H149501   0.875   2.284   4.884 -0.4485  1.8674 -1.5727
 9362TIP3    H249502   0.999   2.219   4.827 -0.6701 -0.1933  0.1454
 9363TIP3   OH249503   4.256   2.158  15.527 -0.0519  0.0310 -0.3582
 9363TIP3    H149504   4.194   2.230  15.522 -1.2802 -1.0709 -3.5677
 9363TIP3    H249505   4.306   2.164  15.446 -0.9181 -3.2269 -1.2928
 9364TIP3   OH249506   4.496   3.379   1.706 -0.1024  0.3740 -0.3661
 9364TIP3    H149507   4.445   3.427   1.641  0.9818 -0.4619 -1.9228
 9364TIP3    H249508   4.491   3.288   1.677  0.1199 -0.0795  0.9480
 9365TIP3   OH249509   6.682   4.150  15.442 -0.3206  0.2601  0.3355
 9365TIP3    H149510   6.694   4.056  15.451 -1.2999  0.0966  0.0424
 9365TIP3    H249511   6.763   4.188  15.475  0.4261 -0.7092 -0.3477
 9366TIP3   OH249512   5.467   4.782   4.363  0.3496  0.3418 -0.7177
 9366TIP3    H149513   5.379   4.795   4.398  0.3631 -0.1656 -0.4914
 9366TIP3    H249514   5.483   4.861   4.311  0.1018  0.8360 -0.0629
 9367TIP3   OH249515   6.325   1.658  14.483  0.3638 -0.2749  0.3089
 9367TIP3    H149516   6.317   1.701  14.398  0.3037 -1.4275 -0.2939
 9367TIP3    H249517   6.406   1.692  14.521  0.6248 -0.0952 -0.4050
 9368TIP3   OH249518   1.795   1.871  16.634  0.2566 -0.3435  0.3381
 9368TIP3    H149519   1.756   1.784  16.626  2.1963 -1.3665  1.2626
 9368TIP3    H249520   1.731   1.930  16.593 -2.6308 -1.7355  2.4638
 9369TIP3   OH249521   4.169   0.928   5.973  0.0757 -0.3481 -0.3611
 9369TIP3    H149522   4.209   1.001   5.926  0.5379  0.1408  0.7512
 9369TIP3    H249523   4.206   0.850   5.932  1.5694  0.0844  0.0858
 9370TIP3   OH249524   1.258   6.307  12.243  0.6503  0.8003  0.3763
 9370TIP3    H149525   1.207   6.230  12.268  1.8332  0.2250  1.1456
 9370TIP3    H249526   1.346   6.272  12.226  1.0797  1.9166  0.2307
 9371TIP3   OH249527   4.115   1.886   4.774 -0.3296 -0.0693 -0.4098
 9371TIP3    H149528   4.030   1.863   4.811 -0.2980  0.2520 -0.1269
 9371TIP3    H249529   4.179   1.861   4.841 -0.0724 -1.6587 -1.2130
 9372TIP3   OH249530   0.542   2.831  16.936  0.8506 -0.4346  0.4700
 9372TIP3    H149531   0.463   2.777  16.938 -0.4480  1.4006  2.4918
 9372TIP3    H249532   0.591   2.806  17.014  1.6619 -0.6081 -0.0693
 9373TIP3   OH249533   3.763   5.276   1.507 -0.5094  0.3365  0.2924
 9373TIP3    H149534   3.772   5.358   1.556  1.1485  0.0400  0.5735
 9373TIP3    H249535   3.693   5.292   1.445 -0.6599  1.7458  0.7899
 9374TIP3   OH249536   4.061   4.525   0.190  0.3302  0.2668  0.4558
 9374TIP3    H149537   4.084   4.433   0.201 -1.9816 -0.4530 -0.3495
 9374TIP3    H249538   4.085   4.565   0.274 -2.1306 -1.8619  2.3264
 9375TIP3   OH249539   2.356   0.576   2.475  0.0752  0.2462  0.3116
 9375TIP3    H149540   2.277   0.584   2.528  0.2183 -2.2792  1.0314
 9375TIP3    H249541   2.354   0.653   2.417 -2.7115  0.4297  0.5195
 9376TIP3   OH249542   0.975   3.063   1.303  0.1916  0.6763 -0.0466
 9376TIP3    H149543   1.037   3.127   1.269  1.3210 -1.1947 -1.7311
 9376TIP3    H249544   1.024   2.981   1.306 -1.7150 -0.5183  0.2177
 9377TIP3   OH249545   2.152   5.681  12.191  0.1667  0.3208  0.3365
 9377TIP3    H149546   2.089   5.749  12.216 -0.0850  0.3626 -0.3871
 9377TIP3    H249547   2.101   5.601  12.187 -0.1161  0.5529 -1.4037
 9378TIP3   OH249548   1.907   1.643  11.368  0.7096  0.3510  0.3386
 9378TIP3    H149549   1.934   1.610  11.454  3.7677  1.3683 -0.1031
 9378TIP3    H249550   1.924   1.570  11.309  2.8426  1.0148  0.0495
 9379TIP3   OH249551   4.404   0.070  11.974  0.4732  0.2813  0.1449
 9379TIP3    H149552   4.365   0.139  11.919  1.0298  0.8011  0.3870
 9379TIP3    H249553   4.498   0.077  11.957  0.6815  0.6270  1.3469
 9380TIP3   OH249554   0.468   4.715  15.504 -0.1272  0.6432  0.1757
 9380TIP3    H149555   0.433   4.661  15.575 -0.5493  0.9376  0.1973
 9380TIP3    H249556   0.559   4.730  15.528  0.8986 -2.4139 -1.2325
 9381TIP3   OH249557   3.694   4.657   3.867 -0.5806  0.0253 -0.4265
 9381TIP3    H149558   3.653   4.637   3.783 -0.5969  0.1837 -0.4564
 9381TIP3    H249559   3.624   4.648   3.931 -0.6393  0.1997 -0.4662
 9382TIP3   OH249560   3.664   1.203   3.347 -0.7439 -0.3920 -0.3122
 9382TIP3    H149561   3.696   1.276   3.294  1.6117 -0.7350  0.5101
 9382TIP3    H249562   3.570   1.219   3.356 -0.4424  2.1034 -0.8062
 9383TIP3   OH249563   4.358   4.235  14.323 -0.3822 -0.5959  0.2383
 9383TIP3    H149564   4.426   4.275  14.268  0.0878 -0.4181  0.9302
 9383TIP3    H249565   4.280   4.234  14.268  0.0302 -0.2511 -0.3648
 9384TIP3   OH249566   3.587   1.501  12.119  0.5344  0.3626  0.1592
 9384TIP3    H149567   3.656   1.563  12.094  0.0035  0.3124 -1.5709
 9384TIP3    H249568   3.554   1.468  12.036 -0.5028 -0.8125  1.0106
 9385TIP3   OH249569   6.042   6.300   2.864 -0.1157  0.2731  0.1909
 9385TIP3    H149570   6.036   6.229   2.801 -0.8257  0.0148  0.5379
 9385TIP3    H249571   6.128   6.339   2.848 -0.8476  1.1781 -1.9719
 9386TIP3   OH249572   2.605   1.928  14.123  0.2652  0.1577 -0.3284
 9386TIP3    H149573   2.652   1.984  14.061 -0.9987  1.5593 -0.0765
 9386TIP3    H249574   2.674   1.881  14.168  1.2730 -0.1591 -2.0858
 9387TIP3   OH249575   2.596   2.567  11.149  0.1059 -0.5361 -0.3090
 9387TIP3    H149576   2.653   2.620  11.093 -0.5278  1.7412  1.0332
 9387TIP3    H249577   2.647   2.552  11.228 -0.5680  0.2370  0.2975
 9388TIP3   OH249578   1.049   0.415  16.975  0.2343 -0.1652  0.2337
 9388TIP3    H149579   1.030   0.412  16.881 -2.2274 -0.7503  0.6872
 9388TIP3    H249580   1.091   0.331  16.993  2.2510  0.5948 -0.5591
 9389TIP3   OH249581   1.610   2.869  12.462  0.5445  0.0209 -0.0043
 9389TIP3    H149582   1.521   2.872  12.498 -0.1480 -0.9119 -1.5831
 9389TIP3    H249583   1.635   2.777  12.464  0.8990  0.0866 -0.9549
 9390TIP3   OH249584   5.510   3.530  15.516 -0.3788 -0.0280  0.0346
 9390TIP3    H149585   5.456   3.503  15.589 -0.7085  0.7760  0.0983
 9390TIP3    H249586   5.498   3.625  15.511  0.1056  0.0043 -0.6838
 9391TIP3   OH249587   5.587   4.587  15.863 -0.3616  0.0152 -0.4771
 9391TIP3    H149588   5.643   4.565  15.788 -0.7483  0.0656 -0.7904
 9391TIP3    H249589   5.516   4.639  15.825 -1.8482 -1.9085 -0.5038
 9392TIP3   OH249590   1.650   5.100  15.096  0.1972  0.3714 -0.2582
 9392TIP3    H149591   1.638   5.059  15.182  1.2269 -2.3167 -1.3040
 9392TIP3    H249592   1.744   5.115  15.089 -0.1946  4.5309  0.6393
 9393TIP3   OH249593   6.554   0.006   4.214  0.0210  0.1122 -0.8018
 9393TIP3    H149594   6.484   0.050   4.166 -0.0659 -0.5586 -1.2967
 9393TIP3    H249595   6.593   0.076   4.267 -1.5884  0.3296  0.1765
 9394TIP3   OH249596   4.551   1.316  13.091  0.0692 -0.2825  0.0587
 9394TIP3    H149597   4.638   1.351  13.070 -0.6724  1.2164 -0.7080
 9394TIP3    H249598   4.549   1.310  13.186 -0.2507  3.3541  0.4177
 9395TIP3   OH249599   3.622   1.604   4.117  0.3750 -0.0612  0.0022
 9395TIP3    H149600   3.711   1.614   4.151  0.1804  0.5835  0.3183
 9395TIP3    H249601   3.617   1.511   4.092 -0.2412 -1.2531  3.9320
 9396TIP3   OH249602   3.374   0.269   0.301  0.1554  0.1392 -0.3099
 9396TIP3    H149603   3.407   0.194   0.349  2.8299  1.1920 -0.3450
 9396TIP3    H249604   3.378   0.244   0.209  0.5897  0.1401 -0.2928
 9397TIP3   OH249605   5.972   5.855   3.965 -0.7075  0.0282 -0.9057
 9397TIP3    H149606   5.910   5.860   4.038  1.7740 -0.1352  1.4222
 9397TIP3    H249607   5.984   5.761   3.950  0.6056 -0.0497  0.3102
 9398TIP3   OH249608   3.081   5.785  16.490  0.3999 -0.5735 -0.1848
 9398TIP3    H149609   3.099   5.823  16.404  1.0202  1.6749  0.8510
 9398TIP3    H249610   2.991   5.753  16.484  0.4976 -0.6324 -1.7102
 9399TIP3   OH249611   1.629   4.037  14.864 -0.0089 -0.1604 -0.3164
 9399TIP3    H149612   1.608   4.065  14.953 -0.4201  0.6379 -0.6514
 9399TIP3    H249613   1.547   4.006  14.828 -0.3559  1.5708 -1.1283
 9400TIP3   OH249614   4.119   6.037  13.680 -0.6412 -0.6163 -0.3827
 9400TIP3    H149615   4.047   5.993  13.634  0.4119 -2.1919 -0.5974
 9400TIP3    H249616   4.177   6.067  13.610 -0.5060 -0.3786 -0.1691
 9401TIP3   OH249617   5.626   0.899   5.197  0.0883  0.1565 -0.4785
 9401TIP3    H149618   5.661   0.827   5.144  1.5118 -0.6328  1.4374
 9401TIP3    H249619   5.538   0.872   5.220  0.2013 -0.4352 -0.7216
 9402TIP3   OH249620   2.894   0.192   0.862  0.1484  0.3830  0.5511
 9402TIP3    H149621   2.956   0.231   0.924  1.3537 -0.8132  0.1481
 9402TIP3    H249622   2.853   0.267   0.818  1.1510  1.2068  0.9949
 9403TIP3   OH249623   2.485   3.871   0.942  0.3139 -0.5601 -0.1215
 9403TIP3    H149624   2.519   3.950   0.985  0.4762 -0.3440 -0.6419
 9403TIP3    H249625   2.390   3.878   0.950  0.2837  0.1787 -1.0169
 9404TIP3   OH249626   2.964   3.162  14.597 -0.2020  0.3134 -0.3232
 9404TIP3    H149627   2.911   3.238  14.619  0.9348  1.0918 -0.1349
 9404TIP3    H249628   3.048   3.199  14.569 -0.0954 -0.8304 -1.6115
 9405TIP3   OH249629   4.267   3.361  14.312 -0.1897 -0.3027  0.6393
 9405TIP3    H149630   4.293   3.272  14.335  0.2255 -0.2128  0.5251
 9405TIP3    H249631   4.309   3.416  14.377 -0.5422 -0.2000  0.7776
 9406TIP3   OH249632   5.929   0.201  11.945  0.3435 -0.3750 -0.2973
 9406TIP3    H149633   5.941   0.295  11.938  0.9332 -0.5487 -2.1762
 9406TIP3    H249634   6.008   0.170  11.990  1.3138 -0.1954 -1.8042
 9407TIP3   OH249635   5.271   6.396   2.924  0.3698  0.0428 -0.1621
 9407TIP3    H149636   5.280   6.329   2.857 -0.9297 -0.0438 -0.2845
 9407TIP3    H249637   5.360   6.415   2.953  1.0124  0.4533 -2.2791
 9408TIP3   OH249638   4.190   4.229  14.940  0.3191  0.0740  0.1982
 9408TIP3    H149639   4.216   4.319  14.917 -0.9960  0.5151  0.3371
 9408TIP3    H249640   4.273   4.182  14.951  1.0271  0.7888 -1.6886
 9409TIP3   OH249641   1.380   2.944   4.521  0.3235 -0.0065  0.1151
 9409TIP3    H149642   1.309   2.948   4.585 -0.0772  1.2983 -0.3648
 9409TIP3    H249643   1.453   2.905   4.568 -0.5597 -0.9332  0.7603
 9410TIP3   OH249644   2.960   0.672  15.741 -0.0175  0.1124  0.3863
 9410TIP3    H149645   2.997   0.701  15.824  1.7436  0.6047 -0.5027
 9410TIP3    H249646   2.873   0.639  15.762  0.3890  0.2444  2.4018
 9411TIP3   OH249647   4.271   5.045  13.707 -0.0968 -0.0882 -0.5151
 9411TIP3    H149648   4.285   4.954  13.683 -0.4211 -0.2220 -0.2098
 9411TIP3    H249649   4.195   5.043  13.765  0.6663  0.2093  0.5279
 9412TIP3   OH249650   5.675   2.227  14.916  0.5273  0.0030 -0.0021
 9412TIP3    H149651   5.707   2.239  14.827 -0.0629 -0.6755 -0.3171
 9412TIP3    H249652   5.643   2.137  14.919 -1.7787  0.7508  0.1268
 9413TIP3   OH249653   5.877   1.420  11.644  0.4289 -0.2380  0.2159
 9413TIP3    H149654   5.885   1.329  11.615  0.4824 -0.1395 -0.0737
 9413TIP3    H249655   5.966   1.455  11.641  0.8240 -0.8455  2.5532
 9414TIP3   OH249656   5.564   3.617   2.058  0.1712 -0.4149  0.2475
 9414TIP3    H149657   5.544   3.704   2.093 -3.6337 -0.7560 -0.6349
 9414TIP3    H249658   5.613   3.634   1.978  0.7875  0.7948  0.8539
 9415TIP3   OH249659   0.685   6.309   1.532  0.0668 -0.3437 -0.1700
 9415TIP3    H149660   0.667   6.244   1.464 -0.2893 -1.1274  0.6609
 9415TIP3    H249661   0.690   6.392   1.485  0.1307 -0.9148 -1.1932
 9416TIP3   OH249662   6.478   5.582  12.438  0.3016  0.3335  0.0601
 9416TIP3    H149663   6.423   5.519  12.392  3.6294 -2.6290 -0.3066
 9416TIP3    H249664   6.498   5.649  12.373  0.9206 -1.1388 -1.3413
 9417TIP3   OH249665   5.276   0.053  14.857 -0.3382  0.0646  0.7400
 9417TIP3    H149666   5.249  -0.038  14.845 -1.6018  0.6613 -1.4727
 9417TIP3    H249667   5.293   0.086  14.768  0.8138  1.7995  1.5302
 9418TIP3   OH249668   4.377   3.091   4.506 -0.7579 -0.1294  0.3863
 9418TIP3    H149669   4.316   3.160   4.533 -1.0590  0.4031 -1.4951
 9418TIP3    H249670   4.324   3.013   4.497 -0.6287 -0.3465  1.4114
 9419TIP3   OH249671   6.117   2.594  11.836 -0.3136  0.0437  0.1191
 9419TIP3    H149672   6.029   2.578  11.803  0.1305  0.8381 -1.5728
 9419TIP3    H249673   6.174   2.548  11.775  0.4338 -1.3102  1.7696
 9420TIP3   OH249674   4.490   4.723   2.691  0.0834  0.3541 -0.0969
 9420TIP3    H149675   4.535   4.780   2.753  2.2915 -1.5244  0.1572
 9420TIP3    H249676   4.403   4.710   2.730  0.4080  1.4941  1.0962
 9421TIP3   OH249677   1.010   2.809   4.136 -0.3873 -0.7684  0.2785
 9421TIP3    H149678   0.973   2.766   4.059  0.4332 -2.4086  0.7421
 9421TIP3    H249679   1.090   2.851   4.104 -0.8440 -0.1545 -0.0553
 9422TIP3   OH249680   4.218   0.998  12.289  0.2820  0.3838  0.1277
 9422TIP3    H149681   4.210   1.048  12.208 -0.4339 -1.4770 -1.0156
 9422TIP3    H249682   4.160   1.043  12.351  1.3748  2.2429 -0.1253
 9423TIP3   OH249683   6.563   5.129   1.113  0.1362  0.2889  0.3137
 9423TIP3    H149684   6.567   5.204   1.054 -0.5537  0.4741  0.4908
 9423TIP3    H249685   6.586   5.054   1.058 -1.8804  0.2637 -0.5817
 9424TIP3   OH249686   5.645   5.555   5.094  0.0925 -0.5606 -0.4729
 9424TIP3    H149687   5.632   5.559   4.999  2.0199  2.8401 -0.7543
 9424TIP3    H249688   5.560   5.581   5.130 -0.1538 -0.0812 -1.3570
 9425TIP3   OH249689   2.678   2.061  16.953 -0.7833 -0.4238  0.7400
 9425TIP3    H149690   2.706   2.118  16.882  1.9941 -0.7108  1.4908
 9425TIP3    H249691   2.688   1.972  16.918 -0.4180 -0.5415  1.1346
 9426TIP3   OH249692   3.788   3.631  11.808 -0.0783 -0.1875 -0.2981
 9426TIP3    H149693   3.817   3.563  11.748 -1.4855 -0.4337 -0.7404
 9426TIP3    H249694   3.747   3.697  11.751 -1.0959 -0.2479  0.3278
 9427TIP3   OH249695   0.544   1.192   2.574 -0.0420  0.4912 -0.3759
 9427TIP3    H149696   0.576   1.151   2.493  0.5628  0.0564  0.0700
 9427TIP3    H249697   0.485   1.127   2.612  1.2433 -0.1971  0.5480
 9428TIP3   OH249698   3.711   4.477   4.351  0.5997 -0.5995 -0.3779
 9428TIP3    H149699   3.699   4.537   4.425 -1.2461 -1.1944 -0.1359
 9428TIP3    H249700   3.760   4.527   4.286  1.3544  0.2774  0.8413
 9429TIP3   OH249701   5.249   2.509  11.539 -0.2061  0.1764 -0.3481
 9429TIP3    H149702   5.187   2.493  11.611 -0.2906 -0.8732 -0.6446
 9429TIP3    H249703   5.224   2.595  11.505 -1.0597  0.0684 -0.0150
 9430TIP3   OH249704   0.453   2.878  14.968  0.2790 -0.2471 -0.4287
 9430TIP3    H149705   0.399   2.862  14.891 -0.0680 -1.2026 -0.0048
 9430TIP3    H249706   0.499   2.796  14.983 -2.6559 -1.5547  2.6974
 9431TIP3   OH249707   2.114   5.943  16.425  0.0969 -0.3587 -0.3305
 9431TIP3    H149708   2.160   5.915  16.504  2.2263  1.0382 -0.9935
 9431TIP3    H249709   2.056   6.012  16.454 -0.3161 -0.9424  0.2563
 9432TIP3   OH249710   5.318   0.827  12.467 -0.1142  0.4824 -0.2140
 9432TIP3    H149711   5.249   0.888  12.443 -0.0975  0.3457 -0.6324
 9432TIP3    H249712   5.376   0.877  12.524 -0.6346  0.5534  0.2653
 9433TIP3   OH249713   5.376   5.480  10.561 -0.3525 -0.0051 -0.2044
 9433TIP3    H149714   5.464   5.486  10.598 -1.1521 -1.9338  2.3125
 9433TIP3    H249715   5.382   5.408  10.498 -0.3753 -0.9117  0.8183
 9434TIP3   OH249716   3.560   4.734  12.641  0.4619 -0.3529  0.4564
 9434TIP3    H149717   3.481   4.741  12.588  0.8785 -1.5250 -0.3512
 9434TIP3    H249718   3.570   4.821  12.679 -0.8356  0.0087  0.0407
 9435TIP3   OH249719   2.710   1.398  16.876  0.1026 -0.9193 -0.3108
 9435TIP3    H149720   2.718   1.365  16.965 -0.7415  1.3220  0.6562
 9435TIP3    H249721   2.773   1.470  16.871  0.0427 -0.9182 -1.5115
 9436TIP3   OH249722   5.372   3.727  14.674 -0.1330  0.1353  0.4405
 9436TIP3    H149723   5.461   3.761  14.658 -0.5462  1.0378 -0.0290
 9436TIP3    H249724   5.316   3.782  14.620 -1.0248 -0.1715  1.0376
 9437TIP3   OH249725   1.650   4.999  11.277  0.2044  0.1826  0.3255
 9437TIP3    H149726   1.733   4.955  11.297 -0.3819  0.2925  3.4919
 9437TIP3    H249727   1.603   5.000  11.360 -1.7741  2.6972 -0.7049
 9438TIP3   OH249728   0.346   6.442   2.385  0.5764  0.0104 -0.2408
 9438TIP3    H149729   0.387   6.527   2.402 -0.9430  0.7130  0.0773
 9438TIP3    H249730   0.379   6.386   2.455  0.0009  0.9230  0.7919
 9439TIP3   OH249731   6.541   0.687   2.069 -0.4063  0.4989  0.3423
 9439TIP3    H149732   6.522   0.767   2.118 -1.5571 -0.0968  0.9031
 9439TIP3    H249733   6.623   0.654   2.107  0.8220  2.1059 -0.8145
 9440TIP3   OH249734   6.664   4.531  10.973 -0.3824  0.3270 -0.0278
 9440TIP3    H149735   6.638   4.442  10.948 -0.4850  0.1818  0.5609
 9440TIP3    H249736   6.722   4.560  10.904 -0.1890 -0.2781 -0.1260
 9441TIP3   OH249737   3.898   3.543   1.450  1.1474 -0.2501  0.3148
 9441TIP3    H149738   3.849   3.467   1.481 -0.3846  1.6999  3.0684
 9441TIP3    H249739   3.974   3.506   1.405 -1.8169 -3.4560 -2.6938
 9442TIP3   OH249740   6.266   1.674  13.452 -0.2959  0.1391 -0.0851
 9442TIP3    H149741   6.237   1.649  13.364 -0.0763 -0.8710  0.1205
 9442TIP3    H249742   6.193   1.650  13.509  0.1232 -0.5213  0.1817
 9443TIP3   OH249743   6.285   5.246   3.904  0.5979 -0.3962  0.4603
 9443TIP3    H149744   6.316   5.209   3.987  1.2143 -1.0272 -0.0355
 9443TIP3    H249745   6.192   5.225   3.902  0.0959  1.4267  1.9186
 9444TIP3   OH249746   3.759   0.087  14.628 -0.0927 -0.5537  0.1131
 9444TIP3    H149747   3.852   0.088  14.606  0.4164  3.0446  1.6615
 9444TIP3    H249748   3.756   0.068  14.721 -0.8605 -0.2920  0.1560
 9445TIP3   OH249749   2.328   5.634  12.639  0.1966 -0.0665 -0.4462
 9445TIP3    H149750   2.379   5.685  12.702 -1.5037  2.6669 -1.0970
 9445TIP3    H249751   2.313   5.550  12.682 -0.1099  1.3293  2.3915
 9446TIP3   OH249752   3.692   0.044   1.702  1.1807  0.3242 -0.3895
 9446TIP3    H149753   3.778   0.014   1.672  0.6740 -1.3119 -0.3129
 9446TIP3    H249754   3.632   0.015   1.633  0.2803 -1.5680  1.0881
 9447TIP3   OH249755   2.260   0.586   3.238  0.1261  0.0994  0.2777
 9447TIP3    H149756   2.306   0.661   3.200  0.2200 -0.1729 -0.1488
 9447TIP3    H249757   2.325   0.515   3.236 -0.5894 -0.5427 -1.1689
 9448TIP3   OH249758   4.085   2.191   0.973  0.4281 -0.7928 -0.1842
 9448TIP3    H149759   4.178   2.205   0.958  0.2382  0.6997 -0.0979
 9448TIP3    H249760   4.061   2.255   1.040 -0.7469 -0.8713 -0.5022
 9449TIP3   OH249761   0.681   4.983   4.484 -0.5962 -0.2034  0.7327
 9449TIP3    H149762   0.615   4.914   4.476 -4.3066  3.2617 -4.0048
 9449TIP3    H249763   0.642   5.047   4.543 -1.5839  1.7175 -1.8370
 9450TIP3   OH249764   4.527   4.170  11.064 -0.2132 -0.3972  0.2723
 9450TIP3    H149765   4.466   4.179  10.991 -0.4253  0.4780  0.5520
 9450TIP3    H249766   4.609   4.209  11.032 -0.2830 -0.0853  0.4757
 9451TIP3   OH249767   1.266   4.197   0.569  0.6720  0.4111  0.1264
 9451TIP3    H149768   1.174   4.215   0.585  0.5770 -0.0042  0.0549
 9451TIP3    H249769   1.309   4.283   0.574  0.4911  0.4349  1.5332
 9452TIP3   OH249770   1.576   2.582   0.002 -0.2468  0.2535 -0.0335
 9452TIP3    H149771   1.611   2.493  -0.003 -0.1941  0.2267  0.6931
 9452TIP3    H249772   1.509   2.585  -0.066 -1.4423 -0.9000  1.0180
 9453TIP3   OH249773   4.879   1.134   5.466  0.1243 -0.6694  0.3331
 9453TIP3    H149774   4.928   1.062   5.426 -0.5019 -0.7298 -0.3280
 9453TIP3    H249775   4.942   1.174   5.527  0.9452 -0.8448 -0.3803
 9454TIP3   OH249776   6.818   1.095  10.990  0.3667 -0.2263 -0.2762
 9454TIP3    H149777   6.852   1.152  11.059  0.0530 -2.6294  2.0090
 9454TIP3    H249778   6.831   1.145  10.909 -0.1044  3.1378  1.5459
 9455TIP3   OH249779   4.752   1.218   1.035  0.0178  0.9950  0.7201
 9455TIP3    H149780   4.666   1.193   1.070 -0.0422  0.2323  0.0650
 9455TIP3    H249781   4.786   1.137   0.997  0.6428  1.5020  0.1930
 9456TIP3   OH249782   4.354   0.313  13.635  0.0393  0.1081  0.1333
 9456TIP3    H149783   4.444   0.343  13.651 -0.1679  0.1461  1.2711
 9456TIP3    H249784   4.359   0.218  13.645 -0.5771  0.3077  3.1038
 9457TIP3   OH249785   4.130   1.660  13.847 -0.5800  0.4883 -0.1373
 9457TIP3    H149786   4.104   1.657  13.754  0.2744  2.7313 -0.5111
 9457TIP3    H249787   4.216   1.618  13.848 -0.0970  1.4391 -0.5801
 9458TIP3   OH249788   5.995   2.311  10.771  0.2639  0.1683 -0.0993
 9458TIP3    H149789   6.029   2.348  10.690 -0.3820 -0.7818 -0.8127
 9458TIP3    H249790   5.921   2.257  10.745 -0.7604  0.8547  1.2553
 9459TIP3   OH249791   1.518   5.784   6.691  0.0359  0.1334  0.0773
 9459TIP3    H149792   1.558   5.706   6.730 -1.0584 -0.1265  0.7010
 9459TIP3    H249793   1.529   5.771   6.596  1.1059 -0.0938  0.2183
 9460TIP3   OH249794   4.264   1.840   0.777  0.0308 -0.0674 -0.3093
 9460TIP3    H149795   4.296   1.828   0.866  0.4782  0.7049 -0.3541
 9460TIP3    H249796   4.171   1.817   0.782  0.2308 -0.8155  0.1685
 9461TIP3   OH249797   6.332   1.791  13.942  0.0600  0.2946 -0.5983
 9461TIP3    H149798   6.419   1.751  13.938  0.2573  0.2978  1.9219
 9461TIP3    H249799   6.276   1.731  13.893  1.2543 -0.3732 -1.1838
 9462TIP3   OH249800   5.658   6.300   2.388  0.0451  0.2371 -0.2464
 9462TIP3    H149801   5.590   6.363   2.408  0.2645  0.1790  0.7550
 9462TIP3    H249802   5.736   6.353   2.372  0.3440  0.2451  1.0508
 9463TIP3   OH249803   3.741   1.797   3.203  0.0136 -0.4089  0.2427
 9463TIP3    H149804   3.732   1.740   3.279 -1.3687  0.4662  0.7774
 9463TIP3    H249805   3.813   1.856   3.226  0.8421 -1.3383  0.0669
 9464TIP3   OH249806   0.824   2.639  14.429  0.2594 -0.3266  0.6159
 9464TIP3    H149807   0.781   2.724  14.439  2.6082  1.2776 -1.6336
 9464TIP3    H249808   0.783   2.584  14.496 -3.6498  1.5781  0.1175
 9465TIP3   OH249809   4.915   0.615  14.454  0.1052  0.1227 -0.0631
 9465TIP3    H149810   4.941   0.645  14.541  0.6258 -0.9041  0.1449
 9465TIP3    H249811   4.835   0.665  14.435 -0.9924 -0.8548  1.7266
 9466TIP3   OH249812   1.008   0.557   1.219  0.0302  0.0766  0.2277
 9466TIP3    H149813   0.962   0.507   1.286  0.6335 -0.6336  0.1202
 9466TIP3    H249814   1.099   0.528   1.225 -0.1319 -1.0364 -1.8048
 9467TIP3   OH249815   0.881   5.959   0.679  0.2831 -0.0218  0.0658
 9467TIP3    H149816   0.838   5.893   0.734  0.1326  0.2993  0.3353
 9467TIP3    H249817   0.900   5.913   0.597  0.6688 -0.5534  0.4496
 9468TIP3   OH249818   2.265   2.507  13.008 -0.1209  0.0298 -0.1034
 9468TIP3    H149819   2.221   2.497  13.092 -1.8130 -0.0160 -0.9334
 9468TIP3    H249820   2.358   2.506  13.028 -0.4368  2.6027  2.0967
 9469TIP3   OH249821   2.689   4.094  11.002  0.1427 -0.2120 -0.1117
 9469TIP3    H149822   2.654   4.146  10.930  0.2306 -0.5441 -0.3979
 9469TIP3    H249823   2.617   4.038  11.029 -0.1473  0.4981  0.6201
 9470TIP3   OH249824   0.651   0.651   4.968  0.2797  0.1049 -0.6806
 9470TIP3    H149825   0.598   0.660   4.889  0.8125 -1.8021 -1.3023
 9470TIP3    H249826   0.588   0.654   5.040 -0.3864  0.2920 -1.2643
 9471TIP3   OH249827   5.176   4.780  12.013  0.0636 -0.2028 -0.9110
 9471TIP3    H149828   5.259   4.763  12.058  0.6691 -2.6246 -2.6824
 9471TIP3    H249829   5.111   4.785  12.083  1.0567 -3.0072  0.3708
 9472TIP3   OH249830   2.834   4.057   4.504  0.1879  0.2132 -0.9004
 9472TIP3    H149831   2.795   4.145   4.503 -1.3374 -0.4269 -1.1740
 9472TIP3    H249832   2.837   4.032   4.411  1.3505  0.2683 -0.8897
 9473TIP3   OH249833   4.682   1.732  13.387  0.4756 -0.0763 -0.0636
 9473TIP3    H149834   4.658   1.807  13.442  0.5115 -0.1999  0.1226
 9473TIP3    H249835   4.633   1.745  13.306  1.8801  1.1123 -0.7549
 9474TIP3   OH249836   2.505   5.903   2.682  0.3389 -0.3686  0.2888
 9474TIP3    H149837   2.566   5.845   2.638 -0.1503 -0.8111  0.1836
 9474TIP3    H249838   2.542   5.915   2.770  1.6897  1.0733 -0.4106
 9475TIP3   OH249839   6.139   1.884  14.860  0.3973  0.1112 -0.5340
 9475TIP3    H149840   6.091   1.967  14.863 -0.6918 -0.4634 -1.3138
 9475TIP3    H249841   6.100   1.831  14.930  1.2039  0.3014  0.0739
 9476TIP3   OH249842   6.398   5.323   0.173 -0.3672  0.4407  0.1790
 9476TIP3    H149843   6.487   5.352   0.194 -0.1385  0.0885 -0.2828
 9476TIP3    H249844   6.406   5.280   0.088 -0.5079 -1.8374  1.2494
 9477TIP3   OH249845   1.331   1.691  12.478  0.1411  1.1661  0.1159
 9477TIP3    H149846   1.398   1.626  12.454  1.3198  2.0788  0.8215
 9477TIP3    H249847   1.279   1.701  12.398  0.7935  0.3573 -0.4350
 9478TIP3   OH249848   1.492   2.519   2.233 -0.3663 -0.4744 -0.5537
 9478TIP3    H149849   1.566   2.530   2.294 -0.8455  0.0021 -0.0521
 9478TIP3    H249850   1.530   2.472   2.158 -0.0598 -2.3235  0.6896
 9479TIP3   OH249851   3.370   2.283   3.174  0.6165 -0.5334 -0.2478
 9479TIP3    H149852   3.425   2.287   3.252 -0.4929  1.2952  0.5132
 9479TIP3    H249853   3.422   2.329   3.107  0.2431  0.8615  0.3683
 9480TIP3   OH249854   5.030   5.840   4.653 -0.0401  0.2841 -0.3352
 9480TIP3    H149855   4.935   5.847   4.644 -0.3197 -2.5329 -0.5997
 9480TIP3    H249856   5.043   5.791   4.734  1.2680  1.3421  0.1382
 9481TIP3   OH249857   0.851   0.071  16.422  0.4688 -0.1176  0.2973
 9481TIP3    H149858   0.869   0.088  16.330 -0.8407 -0.5791 -0.0768
 9481TIP3    H249859   0.833  -0.023  16.427 -0.1321  0.0110  0.8850
 9482TIP3   OH249860   2.989   2.740   5.838 -0.0376 -0.2241  0.4397
 9482TIP3    H149861   3.001   2.796   5.915  1.0254 -0.4933  0.4842
 9482TIP3    H249862   2.991   2.651   5.873 -2.2873 -0.3391  0.4483
 9483TIP3   OH249863   3.192   2.038   4.913 -0.3689  0.0837  0.1231
 9483TIP3    H149864   3.279   2.077   4.907 -1.0238  1.4102 -1.6777
 9483TIP3    H249865   3.203   1.962   4.970  2.4185 -1.0127 -1.6888
 9484TIP3   OH249866   4.351   0.603   3.952 -0.2657 -0.1989  1.0255
 9484TIP3    H149867   4.405   0.634   4.024  0.0276  1.3035  0.1911
 9484TIP3    H249868   4.407   0.607   3.875  0.0555 -3.6180  0.9119
 9485TIP3   OH249869   2.999   5.249   1.862 -0.6071  0.0243  0.3151
 9485TIP3    H149870   3.068   5.240   1.797 -1.2474 -2.6653 -0.1177
 9485TIP3    H249871   3.045   5.257   1.946  0.2020  1.6389 -0.2421
 9486TIP3   OH249872   2.294   5.583   3.894  0.6265  0.3370  0.0696
 9486TIP3    H149873   2.340   5.505   3.862 -1.7160 -0.3141 -2.0750
 9486TIP3    H249874   2.322   5.653   3.835 -0.4245  0.1193 -0.7186
 9487TIP3   OH249875   2.203   4.157  12.354 -0.0219  0.5452 -0.4853
 9487TIP3    H149876   2.164   4.072  12.371 -0.2494  1.2063  3.1452
 9487TIP3    H249877   2.149   4.196  12.286 -2.8448 -0.4335  1.0554
 9488TIP3   OH249878   6.007   0.990   5.517  0.1614 -0.1270  0.4789
 9488TIP3    H149879   6.016   0.948   5.602  1.1088 -3.2552 -0.9996
 9488TIP3    H249880   5.938   0.940   5.473 -0.3947  1.4971 -0.5834
 9489TIP3   OH249881   5.163   0.511  15.171 -0.1243 -0.2350  0.6663
 9489TIP3    H149882   5.184   0.548  15.257 -0.2979 -1.1476  1.1159
 9489TIP3    H249883   5.080   0.553  15.147 -0.4468 -0.5067  1.2797
 9490TIP3   OH249884   4.497   5.259   3.252  0.2650 -0.5240  0.0232
 9490TIP3    H149885   4.572   5.225   3.202  0.9329  1.2360 -0.2486
 9490TIP3    H249886   4.534   5.330   3.304 -1.4417  1.3111 -1.1552
 9491TIP3   OH249887   3.960   1.500  12.125  0.2578 -0.1253  0.4500
 9491TIP3    H149888   4.023   1.562  12.162  1.1332 -1.6380  1.5918
 9491TIP3    H249889   4.012   1.425  12.099 -1.0188 -1.3452  1.2683
 9492TIP3   OH249890   1.488   5.180   2.456 -0.1045 -0.1581 -0.1340
 9492TIP3    H149891   1.581   5.158   2.449 -0.4837 -2.2417  0.7064
 9492TIP3    H249892   1.450   5.153   2.372  0.0318  0.7161 -0.4868
 9493TIP3   OH249893   6.808   4.738  16.234 -0.1448  0.5529  0.3300
 9493TIP3    H149894   6.771   4.689  16.308 -1.2766 -2.1883 -1.8530
 9493TIP3    H249895   6.886   4.689  16.210  0.0531  1.2344 -0.4558
 9494TIP3   OH249896   4.740   4.780  13.875 -0.1289  0.5177 -0.6978
 9494TIP3    H149897   4.698   4.776  13.789 -1.1563 -0.1350 -0.1938
 9494TIP3    H249898   4.826   4.739  13.863 -1.8097 -3.5550 -0.5912
 9495TIP3   OH249899   5.195   0.772   2.797 -0.3283 -0.0263 -0.0130
 9495TIP3    H149900   5.215   0.700   2.856  2.0348  1.4259  1.1401
 9495TIP3    H249901   5.277   0.823   2.793 -0.8647  0.8029 -3.3620
 9496TIP3   OH249902   6.688   0.453   5.981  0.0668  0.6506  0.0729
 9496TIP3    H149903   6.640   0.535   5.971  0.9821  1.4107  1.4941
 9496TIP3    H249904   6.708   0.448   6.075  0.1156 -1.1665  0.0097
 9497TIP3   OH249905   5.934   3.298   1.265  0.0898  0.2778 -0.0665
 9497TIP3    H149906   6.030   3.302   1.261  0.0989  0.4393  0.3281
 9497TIP3    H249907   5.909   3.262   1.180  0.5144  0.0067 -0.0824
 9498TIP3   OH249908   4.577   2.191  16.073 -0.2584 -0.3505 -0.2877
 9498TIP3    H149909   4.484   2.168  16.071 -0.5136  0.4457  1.0927
 9498TIP3    H249910   4.618   2.122  16.124  0.1377 -1.3361 -1.8750
 9499TIP3   OH249911   4.435   0.044  14.439 -0.1954 -0.0807  0.1455
 9499TIP3    H149912   4.487   0.002  14.508 -0.0493  1.1135  0.7901
 9499TIP3    H249913   4.347   0.006  14.449 -0.2116  0.1780  1.0855
 9500TIP3   OH249914   3.657   6.672  15.646  0.1600  0.0038 -0.3848
 9500TIP3    H149915   3.597   6.746  15.659 -0.5301 -0.4971 -0.6052
 9500TIP3    H249916   3.636   6.640  15.558 -1.1054 -1.7924  0.4944
 9501TIP3   OH249917   3.632   0.258   0.523  0.2651 -0.2581 -0.2215
 9501TIP3    H149918   3.610   0.168   0.546 -0.9671  0.5608  2.1958
 9501TIP3    H249919   3.725   0.267   0.548  0.5658 -0.9798 -1.0243
 9502TIP3   OH249920   6.512   3.163  12.928  0.0992  0.3935  0.2559
 9502TIP3    H149921   6.598   3.178  12.968 -1.0835  1.5209  2.5484
 9502TIP3    H249922   6.464   3.244  12.943 -1.3277 -0.1356 -1.1841
 9503TIP3   OH249923   4.718   5.171   6.863 -0.1009 -0.4174 -0.0618
 9503TIP3    H149924   4.745   5.262   6.851  0.4821 -0.2166  2.2429
 9503TIP3    H249925   4.797   5.126   6.892 -0.7737 -1.2679  0.5049
 9504TIP3   OH249926   5.338   3.954  16.808  0.1875  0.3628 -0.4856
 9504TIP3    H149927   5.251   3.917  16.797  1.0127 -1.7593 -0.4345
 9504TIP3    H249928   5.324   4.037  16.853 -2.0329  1.6953 -3.3956
 9505TIP3   OH249929   0.088   0.609  13.922 -0.4989  0.4512 -0.9677
 9505TIP3    H149930   0.122   0.541  13.864  0.0468  1.2281 -1.5678
 9505TIP3    H249931   0.035   0.665  13.866  1.5425  2.3005 -1.1919
 9506TIP3   OH249932   5.979   5.301  15.173 -0.3594  0.4054 -0.3207
 9506TIP3    H149933   5.974   5.353  15.093  0.3353  1.4781  0.3259
 9506TIP3    H249934   6.068   5.314  15.205 -1.2179  1.6539  1.7151
 9507TIP3   OH249935   4.808   4.687   2.656 -0.0403 -0.4514  0.3894
 9507TIP3    H149936   4.830   4.743   2.582  0.8726  0.2158  1.1498
 9507TIP3    H249937   4.712   4.678   2.652 -0.0962  0.3963 -0.2720
 9508TIP3   OH249938   3.258   4.649   1.885 -0.2127  0.1587  0.4369
 9508TIP3    H149939   3.185   4.698   1.847 -0.1159 -1.2490 -1.7402
 9508TIP3    H249940   3.313   4.626   1.810  0.1429 -2.5808  1.4433
 9509TIP3   OH249941   6.510   4.553  11.798  0.1336  0.8249 -0.4716
 9509TIP3    H149942   6.456   4.624  11.762 -1.2822 -0.9563 -2.0280
 9509TIP3    H249943   6.585   4.546  11.739 -1.0365 -0.5994 -1.8653
 9510TIP3   OH249944   2.081   5.968  12.021 -0.1225  0.3507 -0.6604
 9510TIP3    H149945   2.063   5.939  12.111 -0.7272 -0.5097 -1.0443
 9510TIP3    H249946   2.012   5.927  11.968  1.5457 -1.1313 -1.8452
 9511TIP3   OH249947   4.813   1.237   4.555  0.3403 -0.4326 -0.1667
 9511TIP3    H149948   4.902   1.201   4.558  0.3129 -0.4379  1.9671
 9511TIP3    H249949   4.756   1.161   4.546  0.5318 -0.4337 -1.4820
 9512TIP3   OH249950   1.980   6.523   4.680  0.1117  0.4023  0.0907
 9512TIP3    H149951   1.950   6.552   4.766  1.1706 -0.4581  0.7706
 9512TIP3    H249952   1.913   6.461   4.651  0.1316  0.1187  0.6381
 9513TIP3   OH249953   4.634   1.262   3.491 -0.5190 -0.1624  0.1296
 9513TIP3    H149954   4.551   1.237   3.530  0.0751 -1.1551  0.8252
 9513TIP3    H249955   4.636   1.214   3.408 -0.3652 -0.6775  0.4225
 9514TIP3   OH249956   0.024   3.177   3.120  0.0317 -0.1605 -0.4708
 9514TIP3    H149957   0.072   3.213   3.046 -1.3504  0.9649 -0.8689
 9514TIP3    H249958   0.031   3.082   3.110  4.8585 -0.2842  1.3001
 9515TIP3   OH249959   1.264   5.140  14.158  0.2232 -0.1565 -0.7097
 9515TIP3    H149960   1.222   5.070  14.208 -0.4972  0.8184  0.0747
 9515TIP3    H249961   1.309   5.094  14.087  0.1561 -1.4541  0.0539
 9516TIP3   OH249962   0.003   6.097   5.028  0.6735 -0.1697  0.0119
 9516TIP3    H149963  -0.088   6.079   5.003  0.7489 -0.5049 -0.0236
 9516TIP3    H249964   0.047   6.012   5.022  0.7332 -0.2262  1.1207
 9517TIP3   OH249965   6.615   4.274   4.770  0.0373 -0.0368  0.2065
 9517TIP3    H149966   6.666   4.239   4.698  0.8014 -1.2975  1.3090
 9517TIP3    H249967   6.613   4.368   4.755 -1.2983 -0.4009 -2.3630
 9518TIP3   OH249968   3.181   3.188   3.998  0.1269 -0.1615 -0.4320
 9518TIP3    H149969   3.209   3.225   4.082  1.0567 -0.9679 -0.3619
 9518TIP3    H249970   3.214   3.098   4.000  0.8236  0.0307 -1.9797
 9519TIP3   OH249971   4.505   2.055   4.353 -0.3082  0.4179  0.2945
 9519TIP3    H149972   4.460   2.090   4.276 -0.5054 -0.0236  0.2074
 9519TIP3    H249973   4.435   2.025   4.410 -0.1380 -0.1596  0.2132
 9520TIP3   OH249974   1.097   6.617   1.712 -0.3808 -0.3177  0.4992
 9520TIP3    H149975   1.018   6.649   1.668 -0.2304 -1.2043 -0.4706
 9520TIP3    H249976   1.117   6.683   1.778 -0.3581  1.3399 -1.0973
 9521TIP3   OH249977   2.440   4.938   4.402  0.3539  0.1904  0.2608
 9521TIP3    H149978   2.476   4.966   4.318 -0.0496  1.6996  0.5646
 9521TIP3    H249979   2.394   4.856   4.382 -1.7469  1.6707 -1.5408
 9522TIP3   OH249980   6.257   2.984  13.977  0.4067  0.0197 -0.5502
 9522TIP3    H149981   6.179   3.022  13.937  0.4498 -1.1188 -1.8084
 9522TIP3    H249982   6.305   3.058  14.012  0.0643  1.0568 -2.1603
 9523TIP3   OH249983   3.554   3.179  14.140 -0.1737 -0.2532  0.4795
 9523TIP3    H149984   3.557   3.259  14.192 -1.4339 -0.9546  1.7050
 9523TIP3    H249985   3.469   3.140  14.161 -0.4065 -0.9634 -1.5395
 9524TIP3   OH249986   4.082   1.468   1.716  0.2853 -0.0425  0.3280
 9524TIP3    H149987   4.064   1.512   1.633  3.5680  4.1257  1.4188
 9524TIP3    H249988   4.002   1.480   1.767 -1.2010 -1.2419 -1.5806
 9525TIP3   OH249989   4.798   4.769  12.634 -0.3387  0.1413  0.0627
 9525TIP3    H149990   4.879   4.748  12.588 -0.5387 -0.1865 -0.1502
 9525TIP3    H249991   4.751   4.828  12.575 -1.3945 -1.6683 -0.9914
 9526TIP3   OH249992   6.220   3.340  11.919 -0.0676  0.0065 -0.2873
 9526TIP3    H149993   6.136   3.361  11.959 -0.4843 -0.8758 -0.6910
 9526TIP3    H249994   6.198   3.297  11.837  0.7703  1.5759 -1.4012
 9527TIP3   OH249995   6.756   6.555   1.884 -0.8051  0.9239  0.9894
 9527TIP3    H149996   6.813   6.582   1.812 -2.2466  0.8442 -0.2224
 9527TIP3    H249997   6.748   6.634   1.938  1.4908  0.5739  1.9635
 9528TIP3   OH249998   1.685   1.873   4.272  0.2935 -0.3484  0.0882
 9528TIP3    H149999   1.670   1.858   4.365  0.0197  1.5192  0.3878
 9528TIP3    H250000   1.737   1.953   4.269  0.1029 -0.2579 -1.3692
 9529TIP3   OH250001   0.786   1.570  14.940 -0.0122  0.2982  0.4232
 9529TIP3    H150002   0.721   1.500  14.941  1.0256 -0.6979  1.2943
 9529TIP3    H250003   0.847   1.547  15.010  2.6867 -0.1809 -1.9281
 9530TIP3   OH250004   6.291   2.245   1.561 -0.5754 -0.5886 -0.0240
 9530TIP3    H150005   6.273   2.176   1.625 -3.2497  0.7840  0.8505
 9530TIP3    H250006   6.274   2.204   1.476 -2.4966 -0.9774  0.5005
 9531TIP3   OH250007   3.064   6.386  15.885  0.4663 -0.2293  0.2855
 9531TIP3    H150008   2.996   6.425  15.830  1.1116 -0.8612 -1.0017
 9531TIP3    H250009   3.144   6.390  15.831  1.1057 -0.9490  1.1470
 9532TIP3   OH250010   2.350   4.649   5.088  0.0060  0.4792  0.0903
 9532TIP3    H150011   2.384   4.675   5.174 -0.6694 -0.0986  0.5422
 9532TIP3    H250012   2.268   4.604   5.107  1.2410 -2.3128 -0.5734
 9533TIP3   OH250013   4.939   2.992   2.967  0.3309  0.2113  0.9285
 9533TIP3    H150014   4.866   2.952   3.014  1.8493 -0.5408  2.7628
 9533TIP3    H250015   5.017   2.953   3.005  1.7263  0.7160 -1.2163
 9534TIP3   OH250016   0.139   4.598  15.549  0.1530  0.0598 -0.0871
 9534TIP3    H150017   0.195   4.633  15.618 -0.2088  0.3817  0.0518
 9534TIP3    H250018   0.096   4.676  15.512  0.3660 -0.1064 -0.6940
 9535TIP3   OH250019   0.844   0.986  13.877  0.0447 -0.0172 -0.2628
 9535TIP3    H150020   0.761   1.029  13.898  0.4669  1.9590 -2.2650
 9535TIP3    H250021   0.878   1.034  13.802  3.4357 -0.2067  0.9598
 9536TIP3   OH250022   6.486   2.689  14.718 -0.0780 -0.2226  0.4312
 9536TIP3    H150023   6.521   2.765  14.671 -0.3313 -0.9003 -0.9227
 9536TIP3    H250024   6.564   2.642  14.748  0.1179 -0.2717 -0.1431
 9537TIP3   OH250025   3.559   0.642  16.887 -0.0832 -0.1641  0.5623
 9537TIP3    H150026   3.590   0.632  16.797 -0.2135  0.7133  0.4068
 9537TIP3    H250027   3.594   0.727  16.915 -1.3519  0.3178  0.7797
 9538TIP3   OH250028   5.813   5.842  17.039 -0.4612  0.3651 -0.2756
 9538TIP3    H150029   5.850   5.768  16.990 -2.6513 -0.0411 -1.4714
 9538TIP3    H250030   5.852   5.920  16.999  0.8046 -0.0792  0.0533
 9539TIP3   OH250031   4.233   0.543  13.579  0.3699 -0.3338 -0.3970
 9539TIP3    H150032   4.155   0.531  13.524 -0.1560 -0.5383  0.3694
 9539TIP3    H250033   4.278   0.459  13.576  0.8790 -0.0373 -1.3056
 9540TIP3   OH250034   4.771   0.053  11.629  0.1998  0.5379  0.0608
 9540TIP3    H150035   4.703  -0.010  11.651 -1.4255  1.6909 -1.3520
 9540TIP3    H250036   4.723   0.134  11.611  2.1633  2.0691  1.3431
 9541TIP3   OH250037   3.878   3.276  13.342  0.0117 -0.1501 -0.8011
 9541TIP3    H150038   3.876   3.361  13.297  0.9363  0.5126  0.3124
 9541TIP3    H250039   3.919   3.296  13.427 -0.8057 -1.5118 -0.0592
 9542TIP3   OH250040   2.594   3.379   1.797  0.1130 -0.1254 -0.0265
 9542TIP3    H150041   2.680   3.406   1.831  0.6744  0.0699 -1.5363
 9542TIP3    H250042   2.533   3.445   1.829  0.5022 -0.2818  1.0902
 9543TIP3   OH250043   6.576   4.189   3.299  0.0966  0.1710  0.1173
 9543TIP3    H150044   6.558   4.202   3.392 -0.6519 -0.1280  0.0209
 9543TIP3    H250045   6.529   4.109   3.276 -1.3390  1.2543 -0.9587
 9544TIP3   OH250046   0.960   3.097  16.813 -0.6200 -0.0924  0.2743
 9544TIP3    H150047   0.916   3.111  16.729 -2.2341 -1.5564  0.8245
 9544TIP3    H250048   0.895   3.124  16.879 -0.2135 -1.0492  1.0894
 9545TIP3   OH250049   0.143   1.128  13.392 -0.1941  0.3003  0.2714
 9545TIP3    H150050   0.068   1.126  13.332  0.0446  0.7672 -0.0464
 9545TIP3    H250051   0.204   1.190  13.352  0.6636 -0.5796  0.1666
 9546TIP3   OH250052   5.003   4.367   1.417  0.4797 -0.4591 -0.4567
 9546TIP3    H150053   4.966   4.319   1.491 -0.1520 -1.9255 -1.6621
 9546TIP3    H250054   5.023   4.299   1.352  5.3918  0.1575  0.0423
 9547TIP3   OH250055   1.616   2.809   3.537 -0.6776 -0.4694  0.5374
 9547TIP3    H150056   1.670   2.736   3.508 -1.0905 -0.3706 -0.5010
 9547TIP3    H250057   1.598   2.859   3.458 -3.1165 -1.0553  0.6332
 9548TIP3   OH250058   5.907   5.886  12.138  0.2954 -0.3253  0.4113
 9548TIP3    H150059   5.968   5.958  12.155  1.8717 -1.4979  0.0519
 9548TIP3    H250060   5.936   5.850  12.054 -1.5384 -0.3336 -0.2549
 9549TIP3   OH250061   2.545   3.834  14.497 -0.5919 -0.2854 -0.0721
 9549TIP3    H150062   2.494   3.755  14.511  1.0941 -1.8399 -2.0876
 9549TIP3    H250063   2.550   3.875  14.584 -1.7915 -2.1720  0.9629
 9550TIP3   OH250064   0.766   1.729  13.615  0.1415 -0.0708 -0.1397
 9550TIP3    H150065   0.842   1.767  13.571  1.7223 -1.5127  1.2312
 9550TIP3    H250066   0.782   1.635  13.614 -1.4156 -0.3717  0.5747
 9551TIP3   OH250067   4.057   2.308   0.025 -0.5792  0.3573  0.1445
 9551TIP3    H150068   4.121   2.277   0.089 -1.0114  2.6774  1.8538
 9551TIP3    H250069   3.977   2.261   0.046 -0.6410  0.8917  1.1898
 9552TIP3   OH250070   0.640   6.256  13.472  0.0236  0.6282  0.4522
 9552TIP3    H150071   0.578   6.224  13.407  0.4107 -0.9329  0.8158
 9552TIP3    H250072   0.611   6.346  13.490 -0.6443  0.7785 -1.1590
 9553TIP3   OH250073   3.030   1.840  13.787 -0.1596  0.3931  0.0607
 9553TIP3    H150074   3.011   1.789  13.866  0.7411 -0.3907 -0.2064
 9553TIP3    H250075   2.944   1.853  13.746 -0.4231 -0.9675  0.1229
 9554TIP3   OH250076   0.458   5.665  14.999  0.2266  0.1489  0.0851
 9554TIP3    H150077   0.462   5.739  14.938 -0.7812 -0.1733 -0.4044
 9554TIP3    H250078   0.366   5.660  15.024  0.4227 -0.4757  0.7092
 9555TIP3   OH250079   0.370   3.701   3.593 -0.0908 -0.2600  0.5818
 9555TIP3    H150080   0.445   3.646   3.615 -0.8454 -0.8716  1.6799
 9555TIP3    H250081   0.297   3.641   3.585 -0.8750  0.5325  1.5309
 9556TIP3   OH250082   5.246   5.461  16.949 -0.1300  0.4514  0.0740
 9556TIP3    H150083   5.244   5.406  17.027  1.2615  1.2407  0.7042
 9556TIP3    H250084   5.257   5.550  16.982 -2.2442  1.1654 -0.9297
 9557TIP3   OH250085   1.180   2.590   1.025  0.1899 -0.3002 -0.0796
 9557TIP3    H150086   1.105   2.640   1.057  0.1821 -0.7047  0.5549
 9557TIP3    H250087   1.221   2.646   0.959  0.2462  0.5861  0.6944
 9558TIP3   OH250088   0.883   5.609  13.897 -0.7557  0.5340  0.7694
 9558TIP3    H150089   0.812   5.665  13.866 -2.1267 -1.2986  0.4705
 9558TIP3    H250090   0.871   5.606  13.992 -0.4285  1.0522  0.8318
 9559TIP3   OH250091   1.399   5.117   6.010 -0.3476  0.0885  0.0011
 9559TIP3    H150092   1.412   5.206   6.043 -0.0201  0.9158 -2.1371
 9559TIP3    H250093   1.365   5.130   5.921  0.4164 -1.9188 -0.6325
 9560TIP3   OH250094   1.787   6.792  13.558  0.5130  0.5774  0.2478
 9560TIP3    H150095   1.837   6.830  13.486 -0.2829 -1.9110 -1.7736
 9560TIP3    H250096   1.837   6.715  13.584  0.5233  1.1569  2.1048
 9561TIP3   OH250097   4.075   0.196   4.162  0.5775  0.0724 -0.3591
 9561TIP3    H150098   4.126   0.142   4.222 -1.0553 -1.3161 -0.1276
 9561TIP3    H250099   3.987   0.196   4.199 -0.1980  0.1939 -2.0907
 9562TIP3   OH250100   2.257   4.583   0.669 -0.2503  0.0817 -0.2026
 9562TIP3    H150101   2.235   4.512   0.609  1.6278 -0.8725  0.1558
 9562TIP3    H250102   2.256   4.542   0.756  0.0234  0.6888  0.0947
 9563TIP3   OH250103   3.030   2.375   4.283 -0.0018  0.1322  0.0786
 9563TIP3    H150104   2.971   2.419   4.343 -0.2675  0.5248 -0.4593
 9563TIP3    H250105   3.109   2.428   4.281  0.7681 -0.9001  1.5263
 9564TIP3   OH250106   2.747   5.360   2.153  0.3734 -0.6168 -0.1998
 9564TIP3    H150107   2.675   5.335   2.211  0.0754 -0.8067 -0.6510
 9564TIP3    H250108   2.826   5.343   2.204  0.1282 -1.1987 -0.0086
 9565TIP3   OH250109   1.189   0.052  16.255 -0.0908  0.9098  0.2288
 9565TIP3    H150110   1.166  -0.024  16.309  2.2218 -0.6638 -0.8652
 9565TIP3    H250111   1.142   0.038  16.173 -1.1390  1.6821  0.6750
 9566TIP3   OH250112   3.441   1.999  11.550  0.5149  0.0638  0.2204
 9566TIP3    H150113   3.465   2.000  11.643  1.3035 -0.8796  0.0428
 9566TIP3    H250114   3.524   1.998  11.503  0.1430 -0.8927 -0.4579
 9567TIP3   OH250115   5.109   1.382  13.126  0.2723 -0.2155  0.0670
 9567TIP3    H150116   5.074   1.306  13.173 -1.7150 -0.3855 -1.5418
 9567TIP3    H250117   5.184   1.348  13.077 -0.5722 -1.1765 -0.6098
 9568TIP3   OH250118   2.848   0.119  15.705 -0.1198  0.0143  0.3660
 9568TIP3    H150119   2.900   0.181  15.654 -0.2651  0.1121  0.3382
 9568TIP3    H250120   2.913   0.062  15.746 -0.0369 -1.3948 -1.5853
 9569TIP3   OH250121   6.418   0.108  13.776 -0.0441 -0.0205  0.5690
 9569TIP3    H150122   6.409   0.203  13.770  2.7514  0.3133  0.1129
 9569TIP3    H250123   6.504   0.090  13.738  1.2608 -2.2923  4.0882
 9570TIP3   OH250124   2.594   0.212  11.509  0.6881  0.3844 -0.5720
 9570TIP3    H150125   2.561   0.220  11.419  0.9919 -0.6846 -0.7931
 9570TIP3    H250126   2.682   0.249  11.505  1.4385 -1.3739 -1.1833
 9571TIP3   OH250127   4.717   1.014  15.824 -0.9130  0.0400  0.1964
 9571TIP3    H150128   4.643   0.977  15.873 -1.2361 -0.2049 -0.4590
 9571TIP3    H250129   4.777   0.941  15.811 -0.5502  0.2405  0.7346
 9572TIP3   OH250130   6.222   0.679   4.446  0.0989  0.1330  0.9504
 9572TIP3    H150131   6.291   0.645   4.389  1.5283  0.7793  2.1914
 9572TIP3    H250132   6.198   0.604   4.501  1.4749  0.4437  2.0280
 9573TIP3   OH250133   0.059   2.911   6.075 -0.5142 -0.4185 -0.1125
 9573TIP3    H150134   0.034   2.821   6.099 -2.0173 -0.7696 -2.6689
 9573TIP3    H250135   0.142   2.901   6.030 -0.9093 -0.6283 -0.8168
 9574TIP3   OH250136   3.901   1.521  12.690 -0.5389  0.3328  0.0626
 9574TIP3    H150137   3.874   1.501  12.600 -1.1638  0.9204  0.1056
 9574TIP3    H250138   3.828   1.493  12.744  0.3449 -1.1634  0.5246
 9575TIP3   OH250139   6.622   2.590  14.196  0.8042 -0.2464 -0.0200
 9575TIP3    H150140   6.534   2.563  14.222  0.7700  1.3736  1.8102
 9575TIP3    H250141   6.608   2.663  14.136  0.9003 -0.6191 -0.4966
 9576TIP3   OH250142   4.582   6.659  11.624  0.2651 -0.3159 -0.2788
 9576TIP3    H150143   4.521   6.613  11.681 -1.4370  0.9983 -0.9277
 9576TIP3    H250144   4.626   6.590  11.574 -0.0035 -1.3433  0.8668
 9577TIP3   OH250145   1.523   1.882  16.097  0.2400  0.2683 -0.3925
 9577TIP3    H150146   1.476   1.964  16.108 -0.1519  0.0524 -0.4235
 9577TIP3    H250147   1.505   1.855  16.007 -2.3149 -1.4590  0.5271
 9578TIP3   OH250148   0.585   1.549   3.201 -0.1656 -0.0862 -0.0669
 9578TIP3    H150149   0.534   1.555   3.281  0.7673 -0.1786  0.5461
 9578TIP3    H250150   0.583   1.638   3.165 -1.8949 -0.3846 -0.7916
 9579TIP3   OH250151   6.005   3.851   2.975 -0.0694 -0.2904 -0.3044
 9579TIP3    H150152   6.000   3.808   3.060  0.3441 -0.4927 -0.3820
 9579TIP3    H250153   5.952   3.930   2.985  1.6344  0.7548  0.7641
 9580TIP3   OH250154   4.404   5.809   1.248 -0.4110  0.3140 -0.2811
 9580TIP3    H150155   4.438   5.817   1.337 -1.5734  0.3160  0.1860
 9580TIP3    H250156   4.411   5.716   1.228 -2.0376 -0.0667  0.6450
 9581TIP3   OH250157   1.721   3.589   1.152  0.0964  0.1710 -0.9568
 9581TIP3    H150158   1.775   3.626   1.083 -0.4815 -0.5452 -1.8240
 9581TIP3    H250159   1.653   3.655   1.168  0.0765  0.2278 -1.2705
 9582TIP3   OH250160   1.471   3.162  11.192 -0.3666  0.1816  0.1810
 9582TIP3    H150161   1.396   3.164  11.132 -1.3821 -0.7883  1.3575
 9582TIP3    H250162   1.531   3.227  11.157 -1.5172  0.5962 -1.1235
 9583TIP3   OH250163   1.432   0.374  16.380 -0.0737 -0.4884  0.6253
 9583TIP3    H150164   1.361   0.343  16.434  0.6120 -3.0245  0.1760
 9583TIP3    H250165   1.511   0.362  16.434  0.4339 -1.5705 -0.3118
 9584TIP3   OH250166   1.983   5.634   5.087  0.1126  0.6937  0.4471
 9584TIP3    H150167   2.059   5.596   5.130 -0.5119  1.9539  2.9235
 9584TIP3    H250168   2.016   5.714   5.046  0.4669  0.1809 -0.2943
 9585TIP3   OH250169   4.482   5.185   5.116  0.1590 -0.1520  0.2234
 9585TIP3    H150170   4.465   5.272   5.155  0.5467  0.8838 -1.7946
 9585TIP3    H250171   4.416   5.128   5.157  0.1217  0.9907  1.8673
 9586TIP3   OH250172   5.658   6.359  11.624 -0.0279  0.5648 -0.3552
 9586TIP3    H150173   5.581   6.339  11.571  0.7842 -0.5538 -1.1794
 9586TIP3    H250174   5.647   6.306  11.703  0.5496 -0.7244 -1.1034
 9587TIP3   OH250175   0.061   0.507   1.471 -0.3309  0.2030  0.2461
 9587TIP3    H150176  -0.028   0.496   1.438 -0.0392  1.1342 -0.9467
 9587TIP3    H250177   0.113   0.527   1.393  0.7915  0.3718  1.0109
 9588TIP3   OH250178   6.098   0.088   2.168 -0.3876  0.1023  0.0067
 9588TIP3    H150179   6.018   0.077   2.117 -0.3493 -1.8509  0.3042
 9588TIP3    H250180   6.071   0.074   2.259 -0.2371  2.4433  0.4930
 9589TIP3   OH250181   2.915   4.012  16.053 -0.7832  0.3528 -0.1942
 9589TIP3    H150182   2.825   3.980  16.052 -0.6507 -0.0163 -1.0948
 9589TIP3    H250183   2.915   4.088  15.995 -0.5997  0.6270  0.1547
 9590TIP3   OH250184   2.341   2.927   3.538 -0.2844 -0.4149 -0.1071
 9590TIP3    H150185   2.340   2.837   3.508 -0.0064 -0.1041 -1.0880
 9590TIP3    H250186   2.265   2.968   3.495  1.2984  0.5582 -2.1399
 9591TIP3   OH250187   5.278   3.566   5.841 -0.4834  0.3996  0.3633
 9591TIP3    H150188   5.356   3.619   5.856  2.4872 -3.1779 -0.7448
 9591TIP3    H250189   5.224   3.580   5.918  1.8873  2.0971  1.8468
 9592TIP3   OH250190   3.131   2.681   4.845  0.2537 -0.4655  0.3589
 9592TIP3    H150191   3.147   2.774   4.863  0.0730 -0.8313  2.6561
 9592TIP3    H250192   3.212   2.637   4.870  0.7136 -0.8659 -1.7038
 9593TIP3   OH250193   0.506   0.198  11.701  0.3064 -0.3895 -0.7449
 9593TIP3    H150194   0.465   0.132  11.645 -1.9886  1.0986 -0.9734
 9593TIP3    H250195   0.584   0.155  11.736  0.0492 -2.4731 -2.5017
 9594TIP3   OH250196   4.031   1.228   2.973  0.0535 -0.3987 -0.0697
 9594TIP3    H150197   4.059   1.157   2.916 -0.6589  0.3306 -1.3810
 9594TIP3    H250198   3.945   1.253   2.939 -0.0645  0.5539  0.8706
 9595TIP3   OH250199   1.659   1.453   0.631 -0.0251  0.5676  0.1463
 9595TIP3    H150200   1.711   1.413   0.701 -0.8378  0.3356  0.6233
 9595TIP3    H250201   1.724   1.485   0.569  0.6781 -1.7353 -0.3979
 9596TIP3   OH250202   5.188   0.784   0.322  0.6948 -0.1533 -0.2825
 9596TIP3    H150203   5.187   0.722   0.249  1.8578 -0.1184 -0.3454
 9596TIP3    H250204   5.151   0.735   0.395  0.9159 -0.6841 -0.5204
 9597TIP3   OH250205   1.257   4.084  12.946 -0.4213  0.0984 -0.1701
 9597TIP3    H150206   1.267   4.153  12.880 -4.0450  0.8941 -0.0744
 9597TIP3    H250207   1.223   4.009  12.898 -1.2500  0.0508  0.4681
 9598TIP3   OH250208   5.811   4.461  14.838  0.1780  0.2950  0.1395
 9598TIP3    H150209   5.869   4.418  14.776 -0.4722 -0.4738  0.0462
 9598TIP3    H250210   5.828   4.417  14.922  0.2718  0.5841  0.2726
 9599TIP3   OH250211   4.401   6.296   1.884  0.8372  0.4626 -0.1794
 9599TIP3    H150212   4.412   6.205   1.855  1.8863  0.3423  0.5732
 9599TIP3    H250213   4.306   6.306   1.895  0.6216 -0.2225 -1.2618
 9600TIP3   OH250214   4.969   0.713  15.158  0.2026 -0.3213 -0.1732
 9600TIP3    H150215   4.875   0.716  15.177  0.2928 -0.9185  0.3859
 9600TIP3    H250216   5.007   0.784  15.209 -0.2240  1.3995 -2.1419
 9601TIP3   OH250217   3.202   3.278   4.710 -0.0408  0.0835  0.6824
 9601TIP3    H150218   3.200   3.296   4.804  1.1225  2.4215  0.3373
 9601TIP3    H250219   3.119   3.313   4.677  0.6713  1.7222  0.5263
 9602TIP3   OH250220   0.219   0.375   5.609 -0.2905 -0.7251  0.0341
 9602TIP3    H150221   0.178   0.371   5.695 -1.7648 -0.9587 -0.6496
 9602TIP3    H250222   0.309   0.402   5.627 -0.6926 -0.3093  1.6020
 9603TIP3   OH250223   1.952   2.424  12.626  0.9864  0.5348  0.4771
 9603TIP3    H150224   1.973   2.479  12.701  0.4144  0.9288  0.3560
 9603TIP3    H250225   1.979   2.477  12.550  1.2750  0.2703  0.3967
 9604TIP3   OH250226   3.666   6.455  12.723  0.2453 -0.0343 -0.7363
 9604TIP3    H150227   3.713   6.478  12.804 -0.5440 -0.1209 -0.2429
 9604TIP3    H250228   3.732   6.411  12.669  0.5551 -0.8165  0.2460
 9605TIP3   OH250229   3.077   1.951  16.460 -0.6406  0.7927 -0.2660
 9605TIP3    H150230   2.983   1.944  16.475 -0.6291  3.0175  1.5326
 9605TIP3    H250231   3.115   1.948  16.548  1.0018 -0.2405 -0.9750
 9606TIP3   OH250232   5.215   6.440  11.851 -0.2419  0.1128 -0.2312
 9606TIP3    H150233   5.150   6.459  11.918  0.2023 -0.2083  0.2997
 9606TIP3    H250234   5.287   6.501  11.869 -0.1528  0.0771 -0.4583
 9607TIP3   OH250235   0.678   0.735  15.696 -0.2838 -0.0335  0.0857
 9607TIP3    H150236   0.610   0.755  15.760  0.4704 -0.7552  1.1652
 9607TIP3    H250237   0.635   0.742  15.611 -1.8960 -1.1691  0.7612
 9608TIP3   OH250238   2.031   2.721   5.747 -0.5674  0.1456  0.0935
 9608TIP3    H150239   2.124   2.744   5.747 -0.2245 -1.0306  1.6326
 9608TIP3    H250240   1.988   2.793   5.703  1.0858  0.7040 -0.6721
 9609TIP3   OH250241   0.810   3.684  14.821  0.2251  0.3093 -0.5106
 9609TIP3    H150242   0.843   3.644  14.740 -2.0229 -0.2842 -1.2215
 9609TIP3    H250243   0.814   3.613  14.885  1.0016  0.4667 -0.3753
 9610TIP3   OH250244   0.424   1.610   3.420  0.2287 -0.0811  0.0363
 9610TIP3    H150245   0.453   1.701   3.416 -1.7817  0.5513 -2.1587
 9610TIP3    H250246   0.368   1.606   3.497  0.8024  0.3503  0.4913
 9611TIP3   OH250247   3.127   6.604  15.603  0.0148  0.5411 -0.1021
 9611TIP3    H150248   3.162   6.677  15.553  0.0059  0.5862 -0.0420
 9611TIP3    H250249   3.118   6.533  15.539 -0.7862  0.8488 -0.3458
 9612TIP3   OH250250   1.707   4.125  16.889  0.3212 -0.0781 -0.0575
 9612TIP3    H150251   1.685   4.063  16.820 -0.0087 -0.8504  0.7356
 9612TIP3    H250252   1.803   4.130  16.887  0.2701  0.9445 -1.4529
 9613TIP3   OH250253   5.308   3.649   4.361 -0.5653  1.0562  0.1544
 9613TIP3    H150254   5.328   3.590   4.434  0.3988  1.8356  0.5447
 9613TIP3    H250255   5.305   3.591   4.284 -0.5455  0.3741  0.6561
 9614TIP3   OH250256   0.091   0.348   4.107 -0.1865  0.1456 -0.6474
 9614TIP3    H150257   0.169   0.318   4.153  0.1466  1.2621 -0.4594
 9614TIP3    H250258   0.060   0.271   4.060 -0.6732 -1.1285  1.5908
 9615TIP3   OH250259   2.732   3.525   4.452 -0.0678 -0.3635 -0.3245
 9615TIP3    H150260   2.790   3.586   4.407  0.2824 -0.4993 -0.0600
 9615TIP3    H250261   2.724   3.560   4.541  1.7196 -1.7414  0.4359
 9616TIP3   OH250262   3.530   6.348   6.406 -0.0540  0.5197  0.3393
 9616TIP3    H150263   3.525   6.263   6.363  2.4988  0.2027  0.4867
 9616TIP3    H250264   3.624   6.369   6.406 -0.1833  1.6160  3.6085
 9617TIP3   OH250265   6.761   2.174  11.549 -0.2160 -0.0882 -0.2397
 9617TIP3    H150266   6.809   2.238  11.496  0.8742 -2.1463 -1.8860
 9617TIP3    H250267   6.726   2.225  11.621 -0.8099  2.6832 -2.3049
 9618TIP3   OH250268   4.765   4.797   0.675 -0.2958 -0.1769 -0.3417
 9618TIP3    H150269   4.699   4.767   0.737 -1.2916 -1.0664 -1.7929
 9618TIP3    H250270   4.717   4.851   0.612  0.4555 -0.3625 -1.0947
 9619TIP3   OH250271   5.816   3.912  12.747 -0.0734 -0.3487  0.8102
 9619TIP3    H150272   5.733   3.958  12.756 -0.1693 -0.5699  1.0879
 9619TIP3    H250273   5.844   3.894  12.837  1.1963  1.3403  0.7982
 9620TIP3   OH250274   3.804   3.343  11.360  0.7533 -0.0949  0.2224
 9620TIP3    H150275   3.879   3.326  11.303  0.0021  0.0598 -0.8442
 9620TIP3    H250276   3.727   3.329  11.305  0.0028  1.7090  0.7008
 9621TIP3   OH250277   5.267   1.947   3.737  0.5547  0.2185 -0.1236
 9621TIP3    H150278   5.258   2.010   3.809  1.3736  2.6618 -2.0291
 9621TIP3    H250279   5.361   1.942   3.721  0.9465 -4.0556  1.9328
 9622TIP3   OH250280   1.704   4.028   0.287  0.3322 -0.1851 -0.1138
 9622TIP3    H150281   1.692   4.097   0.222 -0.5123 -1.7182 -1.6566
 9622TIP3    H250282   1.629   4.038   0.346  1.2411  1.3738  0.8523
 9623TIP3   OH250283   1.353   4.298   4.162  0.3756 -0.0575 -0.1756
 9623TIP3    H150284   1.420   4.347   4.211  0.9200  0.5658 -1.4955
 9623TIP3    H250285   1.392   4.213   4.146  0.4014 -0.0807  0.0044
 9624TIP3   OH250286   1.928   4.756  14.337 -0.3840  0.1350 -0.3890
 9624TIP3    H150287   1.981   4.772  14.259 -2.9084  1.4661 -1.9961
 9624TIP3    H250288   1.956   4.671  14.369  1.7978  0.2358 -1.8424
 9625TIP3   OH250289   3.796   0.235  14.008 -0.4422  0.1713 -0.0636
 9625TIP3    H150290   3.824   0.253  13.918 -1.4543 -0.4485 -0.5213
 9625TIP3    H250291   3.739   0.309  14.030  1.1942  1.2469  0.7381
 9626TIP3   OH250292   3.433   1.894  12.931 -0.1749  0.0180  0.3821
 9626TIP3    H150293   3.401   1.818  12.881 -0.5586 -0.2739  1.0536
 9626TIP3    H250294   3.507   1.861  12.981  1.2420  0.6976 -1.1716
 9627TIP3   OH250295   3.287   3.042   2.322  0.0255  0.3359  0.2208
 9627TIP3    H150296   3.354   3.044   2.390  0.3805 -0.4363 -0.0962
 9627TIP3    H250297   3.334   3.065   2.242  0.1017 -1.0074 -0.1406
 9628TIP3   OH250298   0.079   6.714   6.215  0.6458  0.3101  0.4149
 9628TIP3    H150299   0.148   6.649   6.200  0.7538  0.3630  0.6683
 9628TIP3    H250300   0.123   6.786   6.259  0.4129  0.3087  0.6557
 9629TIP3   OH250301   2.621   0.227  10.960 -0.3464 -0.5159 -0.3377
 9629TIP3    H150302   2.622   0.310  10.911  0.8696 -0.2809  0.0403
 9629TIP3    H250303   2.566   0.245  11.036  1.0218  0.4250  0.4802
 9630TIP3   OH250304   5.945   1.744  13.554  0.4720 -0.6436  0.2414
 9630TIP3    H150305   5.886   1.799  13.605 -1.0774 -0.5000 -1.5833
 9630TIP3    H250306   5.972   1.799  13.480  1.2416 -1.4071 -0.0675
 9631TIP3   OH250307   1.896   4.438   1.044 -0.2608  0.2117 -0.1488
 9631TIP3    H150308   1.897   4.529   1.015 -0.3408  0.5707  0.9284
 9631TIP3    H250309   1.948   4.438   1.125 -1.9617 -0.2765  1.0146
 9632TIP3   OH250310   5.257   1.375   1.554 -0.2492  0.6105 -0.0150
 9632TIP3    H150311   5.206   1.353   1.633  0.4081  0.9576  0.5187
 9632TIP3    H250312   5.224   1.460   1.527  0.8292  1.4047  1.0334
 9633TIP3   OH250313   6.153   3.442   2.305  0.4336  0.1594  0.2160
 9633TIP3    H150314   6.179   3.408   2.220  1.6644  3.3908 -0.8419
 9633TIP3    H250315   6.074   3.494   2.288 -1.5205 -2.0315  1.8052
 9634TIP3   OH250316   4.905   3.961   0.708  0.4174 -0.2276  0.9245
 9634TIP3    H150317   4.974   3.957   0.775  0.0403  0.4099  1.3614
 9634TIP3    H250318   4.838   3.900   0.740 -0.0543  0.5601  1.4819
 9635TIP3   OH250319   4.826   4.441  12.514  0.1345  0.1038  0.1762
 9635TIP3    H150320   4.843   4.492  12.435 -1.5587 -0.3542 -0.5263
 9635TIP3    H250321   4.886   4.477  12.579  1.1593  0.8807 -1.1498
 9636TIP3   OH250322   0.755   5.797  15.566 -0.1965  0.2500 -0.2823
 9636TIP3    H150323   0.683   5.739  15.542  0.2634 -0.1241 -0.7823
 9636TIP3    H250324   0.799   5.816  15.483  0.4701  0.2230  0.0585
 9637TIP3   OH250325   3.777   4.982  15.057 -0.0023 -0.7799 -0.1157
 9637TIP3    H150326   3.755   5.031  15.136 -0.6374  0.1863 -0.8723
 9637TIP3    H250327   3.814   4.899  15.090 -1.2685 -0.8675  1.1851
 9638TIP3   OH250328   3.849   2.988   1.021 -0.0564  0.3589  0.7764
 9638TIP3    H150329   3.931   2.949   1.051 -0.0894 -2.2640 -2.0101
 9638TIP3    H250330   3.875   3.059   0.962  0.3668 -1.3152 -1.1510
 9639TIP3   OH250331   1.576   2.964  15.804 -0.0844  0.3760  0.3898
 9639TIP3    H150332   1.517   2.889  15.793 -0.3441  0.4442  1.2174
 9639TIP3    H250333   1.519   3.038  15.822  0.1585  0.8404 -0.6541
 9640TIP3   OH250334   2.449   1.670   0.328  0.3282 -0.6156  0.0128
 9640TIP3    H150335   2.399   1.593   0.353  1.6455 -1.1087  1.3020
 9640TIP3    H250336   2.534   1.658   0.371  1.3288  0.4917 -1.5427
 9641TIP3   OH250337   1.580   5.115  11.059 -0.0856  0.4113  0.2781
 9641TIP3    H150338   1.486   5.099  11.051 -0.3747  0.5202  2.5770
 9641TIP3    H250339   1.606   5.067  11.138  2.2111 -1.1802 -1.3175
 9642TIP3   OH250340   5.853   3.786  16.545  0.2753  0.4217 -0.2432
 9642TIP3    H150341   5.873   3.880  16.550 -0.7863  0.6783 -0.5016
 9642TIP3    H250342   5.885   3.759  16.459  0.8410  0.4812 -0.0526
 9643TIP3   OH250343   0.189   6.350  16.157  0.3760  0.5837  0.2843
 9643TIP3    H150344   0.227   6.401  16.085  0.9884  0.6381  0.6399
 9643TIP3    H250345   0.100   6.383  16.165 -0.0422 -0.1428 -1.1330
 9644TIP3   OH250346   0.886   0.383  13.268 -0.3562  0.4444  0.1556
 9644TIP3    H150347   0.851   0.320  13.332  0.3863  0.0836  0.2251
 9644TIP3    H250348   0.948   0.331  13.216  0.9719  1.3113  0.8108
 9645TIP3   OH250349   0.018   6.477   2.658  0.0009  0.6697  0.2679
 9645TIP3    H150350   0.068   6.550   2.622  1.7829  0.7640  2.6381
 9645TIP3    H250351   0.038   6.479   2.752  1.2078 -3.5611  0.3197
 9646TIP3   OH250352   4.412   6.246  12.156 -0.2345 -0.3157 -0.3608
 9646TIP3    H150353   4.380   6.223  12.243  1.3404 -0.1688  0.2824
 9646TIP3    H250354   4.386   6.338  12.144  0.9703  0.1900  0.6697
 9647TIP3   OH250355   5.228   6.389  12.486  0.7338  0.5339  0.0273
 9647TIP3    H150356   5.207   6.316  12.428  0.3848  2.8489 -3.0225
 9647TIP3    H250357   5.300   6.357  12.540  1.4462 -1.6972 -2.0515
 9648TIP3   OH250358   3.334   0.579   6.144  0.2818  0.5228  0.5328
 9648TIP3    H150359   3.367   0.668   6.152 -0.1469  0.6336  1.1285
 9648TIP3    H250360   3.335   0.545   6.234  0.6327 -0.1407  0.2859
 9649TIP3   OH250361   2.822   4.346   4.174 -0.1295  0.3108  0.1753
 9649TIP3    H150362   2.739   4.373   4.134 -0.3560  1.3144  1.2760
 9649TIP3    H250363   2.866   4.429   4.195  1.6833 -0.1827 -1.4187
 9650TIP3   OH250364   0.760   0.490  14.851 -0.1348  0.2454 -0.2926
 9650TIP3    H150365   0.687   0.514  14.908 -1.3850 -0.1901 -1.6659
 9650TIP3    H250366   0.797   0.411  14.890 -1.4752 -0.5008 -0.5068
 9651TIP3   OH250367   3.765   2.309  11.446 -0.2557  0.7050  0.2662
 9651TIP3    H150368   3.856   2.305  11.414 -0.9232  0.5369 -1.7440
 9651TIP3    H250369   3.718   2.245  11.392 -1.4403  0.1977  1.8271
 9652TIP3   OH250370   1.213   3.029   1.927  0.3362 -0.7827  0.1350
 9652TIP3    H150371   1.198   3.056   2.018 -0.9493 -0.4130 -0.1637
 9652TIP3    H250372   1.132   2.986   1.901  0.5125 -0.4823 -0.9702
 9653TIP3   OH250373   2.269   6.430  14.986 -0.2408  0.2168 -0.2513
 9653TIP3    H150374   2.225   6.515  14.985  0.6704  0.8620  2.4885
 9653TIP3    H250375   2.313   6.428  15.072  0.3328 -2.7491 -0.5161
 9654TIP3   OH250376   6.334   0.873  14.402  0.1241  0.3936 -0.3392
 9654TIP3    H150377   6.356   0.856  14.311  1.2657  1.6872 -0.3415
 9654TIP3    H250378   6.399   0.937  14.431  0.9302 -1.2971  1.9323
 9655TIP3   OH250379   3.268   5.147  15.761  0.8256  0.2160 -0.5123
 9655TIP3    H150380   3.295   5.228  15.718 -2.9370  1.9496  0.0222
 9655TIP3    H250381   3.214   5.175  15.835  0.0841 -2.7977  0.2421
 9656TIP3   OH250382   4.290   1.619  15.208 -0.3234 -0.0269 -0.5000
 9656TIP3    H150383   4.338   1.679  15.152 -4.3826  2.4256 -1.7861
 9656TIP3    H250384   4.262   1.672  15.283 -1.7843 -1.0145 -0.2965
 9657TIP3   OH250385   0.490   2.304  13.488 -0.3207 -0.2531  0.1869
 9657TIP3    H150386   0.549   2.377  13.508  1.4488 -0.8638 -2.3701
 9657TIP3    H250387   0.494   2.294  13.393 -0.6028 -3.5781  0.3848
 9658TIP3   OH250388   3.066   3.455  11.346 -0.4502 -0.5184  0.7875
 9658TIP3    H150389   2.971   3.465  11.331 -0.2046 -0.0785 -0.6760
 9658TIP3    H250390   3.105   3.480  11.262  0.9036 -1.8745  0.9969
 9659TIP3   OH250391   2.680   4.822  16.458 -0.2548 -0.1744 -0.0791
 9659TIP3    H150392   2.603   4.813  16.515  1.0442 -0.1522  1.7452
 9659TIP3    H250393   2.681   4.741  16.407 -1.6309 -0.0577 -0.3398
 9660TIP3   OH250394   3.774   0.387   4.373 -0.2963  0.7577  0.3656
 9660TIP3    H150395   3.766   0.453   4.443 -2.1696  1.1060 -0.1075
 9660TIP3    H250396   3.699   0.329   4.387 -0.5001  0.6340 -1.1373
 9661TIP3   OH250397   3.065   6.602  16.075 -0.7590  0.5248 -0.7427
 9661TIP3    H150398   3.068   6.517  16.030 -0.9960 -1.3369  2.4182
 9661TIP3    H250399   3.157   6.626  16.086 -0.4898 -1.1151  1.2289
 9662TIP3   OH250400   2.822   5.269   4.677  0.1055  0.4617  0.3432
 9662TIP3    H150401   2.883   5.315   4.620  1.9039 -1.4907  0.5616
 9662TIP3    H250402   2.742   5.262   4.625  0.6440  1.5029 -0.6811
 9663TIP3   OH250403   0.464   2.416  16.354  0.1491  0.0827 -0.0814
 9663TIP3    H150404   0.445   2.501  16.395  0.1498 -0.2495  0.6265
 9663TIP3    H250405   0.478   2.357  16.428  0.4165 -0.4746 -0.5729
 9664TIP3   OH250406   2.249   5.267   2.667 -0.0556 -0.0931 -0.0231
 9664TIP3    H150407   2.315   5.282   2.735 -0.0720  1.0141 -0.2314
 9664TIP3    H250408   2.166   5.284   2.711 -0.0154  1.5906 -0.5428
 9665TIP3   OH250409   3.157   1.140  11.778  0.1256  0.1649  0.3329
 9665TIP3    H150410   3.108   1.220  11.758  0.3270  1.5471  4.4459
 9665TIP3    H250411   3.091   1.078  11.809  0.4074  0.3631  1.3761
 9666TIP3   OH250412   3.612   4.792   0.499 -0.2739  0.4227 -0.4243
 9666TIP3    H150413   3.661   4.764   0.576 -0.0616  1.4652 -0.1563
 9666TIP3    H250414   3.616   4.718   0.438 -1.8695 -1.1153  1.2031
 9667TIP3   OH250415   4.302   1.495  14.869  0.3473  0.0083  0.4102
 9667TIP3    H150416   4.308   1.405  14.898 -1.0886 -0.7324 -1.3964
 9667TIP3    H250417   4.208   1.514  14.868  0.3758  0.4157 -2.2116
 9668TIP3   OH250418   6.222   2.095  11.858 -0.2297 -0.8810 -0.3732
 9668TIP3    H150419   6.252   2.060  11.941  0.1196 -1.2119 -0.6375
 9668TIP3    H250420   6.269   2.177  11.848 -1.5171  0.0197  0.5496
 9669TIP3   OH250421   5.921   3.820  10.346 -0.0470 -0.2640  0.7643
 9669TIP3    H150422   5.959   3.880  10.281  0.6263  0.2909  1.6434
 9669TIP3    H250423   5.875   3.754  10.294 -0.5158  0.8171 -0.2465
 9670TIP3   OH250424   1.577   3.790  15.676 -0.7166 -0.0141  0.1090
 9670TIP3    H150425   1.652   3.819  15.623 -0.1049 -0.8697  0.4728
 9670TIP3    H250426   1.500   3.814  15.625 -0.1400 -1.1352 -1.3650
 9671TIP3   OH250427   6.782   4.816  14.381  0.2757 -0.3937  0.4116
 9671TIP3    H150428   6.851   4.813  14.446  0.9400  0.5608 -0.2236
 9671TIP3    H250429   6.793   4.900  14.337 -1.3982 -0.1423  0.4024
 9672TIP3   OH250430   2.627   4.540   2.323  0.0245  0.9721 -1.0446
 9672TIP3    H150431   2.625   4.450   2.291  0.9962  0.5858 -0.0828
 9672TIP3    H250432   2.689   4.585   2.265  0.0192  0.8596 -1.1367
 9673TIP3   OH250433   1.990   5.433  15.638  0.0399  0.1817  0.0747
 9673TIP3    H150434   2.024   5.495  15.574 -2.7053  0.9191 -0.8423
 9673TIP3    H250435   1.928   5.484  15.690  0.5213 -0.9450  1.8415
 9674TIP3   OH250436   4.514   2.084  13.441  0.3191  0.4598  0.2642
 9674TIP3    H150437   4.553   2.013  13.492  1.3949 -0.1194 -1.2838
 9674TIP3    H250438   4.519   2.160  13.499  0.2031 -0.4662  1.5295
 9675TIP3   OH250439   2.159   1.623  14.630  0.0156 -0.1211 -0.1533
 9675TIP3    H150440   2.101   1.576  14.690  0.2819  0.8957  0.9495
 9675TIP3    H250441   2.144   1.583  14.545 -1.5595 -0.5512  0.2994
 9676TIP3   OH250442   0.799   5.523  14.426  0.3818 -0.1173 -0.5645
 9676TIP3    H150443   0.854   5.484  14.358  2.9215 -0.4431  1.4933
 9676TIP3    H250444   0.843   5.605  14.449 -0.1779 -0.2010  0.9259
 9677TIP3   OH250445   6.579   1.661  15.322 -0.0897 -0.3764  0.4832
 9677TIP3    H150446   6.533   1.745  15.313  0.5064  0.3345  3.1421
 9677TIP3    H250447   6.616   1.645  15.235 -0.2532  2.1150 -0.1242
 9678TIP3   OH250448   3.758   4.539   5.368  0.2656  0.0377 -0.1539
 9678TIP3    H150449   3.735   4.448   5.348  2.0592 -1.3532  3.2492
 9678TIP3    H250450   3.815   4.566   5.296  0.1992 -1.7244 -0.9239
 9679TIP3   OH250451   4.876   4.597   5.679  0.1550 -0.0053  0.1544
 9679TIP3    H150452   4.967   4.614   5.657  0.1170 -0.5851 -0.4848
 9679TIP3    H250453   4.825   4.646   5.615  0.0293 -0.4474 -0.0904
 9680TIP3   OH250454   4.040   3.344  11.175  0.2252  0.2932 -0.1049
 9680TIP3    H150455   4.052   3.439  11.168 -0.1933  0.4436  1.0694
 9680TIP3    H250456   4.127   3.307  11.158  0.3952  0.8764 -0.5392
 9681TIP3   OH250457   2.311   1.912   2.207  0.1934  0.4331 -0.0737
 9681TIP3    H150458   2.349   1.947   2.288  1.7513  0.0841 -0.6089
 9681TIP3    H250459   2.218   1.900   2.227  0.3307  1.3857  1.2960
 9682TIP3   OH250460   0.235   5.084  12.972  0.6354 -0.5433 -0.2012
 9682TIP3    H150461   0.169   5.096  13.040  2.0316 -0.1668  1.1530
 9682TIP3    H250462   0.274   5.171  12.961  0.7259 -0.6924 -1.1946
 9683TIP3   OH250463   1.331   6.503  12.873  0.1550  0.4623 -0.2175
 9683TIP3    H150464   1.335   6.407  12.877  0.4644  0.4706 -0.2972
 9683TIP3    H250465   1.241   6.524  12.896  0.0192  0.1372 -0.4379
 9684TIP3   OH250466   1.491   0.244  13.596  0.1683 -0.9146  0.0641
 9684TIP3    H150467   1.526   0.199  13.519  0.6848 -0.1454 -0.1684
 9684TIP3    H250468   1.547   0.215  13.668 -1.1043 -2.6312  0.4218
 9685TIP3   OH250469   4.145   2.481  11.010 -0.6587  0.1243 -0.6771
 9685TIP3    H150470   4.150   2.435  11.094 -0.3567 -0.0042 -0.7651
 9685TIP3    H250471   4.211   2.550  11.017 -0.6947  0.1691 -0.7768
 9686TIP3   OH250472   3.429   1.899  14.795 -0.2781  0.4210 -0.0402
 9686TIP3    H150473   3.369   1.970  14.814  0.4868  1.8865 -2.6590
 9686TIP3    H250474   3.384   1.846  14.729  0.3765  0.2651 -0.3766
 9687TIP3   OH250475   6.610   4.318  11.880 -0.3838  0.4535 -0.6473
 9687TIP3    H150476   6.551   4.283  11.948  0.1350 -0.5821 -0.7183
 9687TIP3    H250477   6.563   4.394  11.846 -2.4998 -1.2851 -1.8733
 9688TIP3   OH250478   0.022   4.842   0.633  0.1407  0.1239  0.6557
 9688TIP3    H150479   0.046   4.915   0.690  1.5692 -0.1754  0.4778
 9688TIP3    H250480  -0.073   4.842   0.634  0.0163  3.0618 -0.6846
 9689TIP3   OH250481   5.760   3.698   1.826 -0.3034  0.0641 -0.1096
 9689TIP3    H150482   5.758   3.791   1.806  1.4179  0.5037  1.5123
 9689TIP3    H250483   5.736   3.655   1.744 -3.9803  1.9064 -0.2191
 9690TIP3   OH250484   0.499   3.490   2.185  0.1546 -0.1664 -0.1654
 9690TIP3    H150485   0.497   3.420   2.250  0.4021 -1.0851 -1.1322
 9690TIP3    H250486   0.587   3.487   2.148 -0.3896 -0.5511 -1.4905
 9691TIP3   OH250487   5.022   6.645  14.851  0.0217 -0.2535  0.1520
 9691TIP3    H150488   5.012   6.740  14.858 -1.4417 -0.4928  2.2450
 9691TIP3    H250489   5.024   6.615  14.942  1.1814 -2.1856 -0.4659
 9692TIP3   OH250490   0.493   0.821   4.380  0.3168  0.0741 -0.2165
 9692TIP3    H150491   0.419   0.841   4.323 -0.8233  0.7937  1.4198
 9692TIP3    H250492   0.554   0.894   4.367 -0.4442  0.8229  0.2514
 9693TIP3   OH250493   5.060   2.509  11.736  0.2849  0.4190  0.3440
 9693TIP3    H150494   5.031   2.418  11.750  0.7394 -0.1320 -1.9434
 9693TIP3    H250495   4.980   2.561  11.745 -0.4449 -0.4866 -0.5979
 9694TIP3   OH250496   6.522   1.245  13.008  0.4363 -0.1036  0.4926
 9694TIP3    H150497   6.566   1.300  13.073 -0.0699  0.2222  0.5602
 9694TIP3    H250498   6.440   1.291  12.989  0.6696 -0.0793 -0.5264
 9695TIP3   OH250499   3.436   4.706  13.344  0.1063  0.0229 -0.3222
 9695TIP3    H150500   3.416   4.612  13.350 -2.7701  0.3582 -2.4627
 9695TIP3    H250501   3.409   4.741  13.429  0.3338 -0.9530  0.1704
 9696TIP3   OH250502   2.010   3.942  14.946  0.2686 -0.2277  0.2344
 9696TIP3    H150503   2.032   3.849  14.947 -1.2446 -0.6048  0.8752
 9696TIP3    H250504   1.956   3.955  15.024  2.5806  1.7540  1.6733
 9697TIP3   OH250505   3.470   5.128  12.927  0.0693  0.4141  0.4370
 9697TIP3    H150506   3.465   5.072  13.005 -0.1542  0.1454  0.2311
 9697TIP3    H250507   3.387   5.175  12.927 -0.7880 -1.0328 -0.7206
 9698TIP3   OH250508   6.425   1.686  12.654 -0.0681 -0.5958 -0.3573
 9698TIP3    H150509   6.516   1.658  12.656 -0.0903 -0.6328  0.2511
 9698TIP3    H250510   6.427   1.772  12.611  0.2013 -0.7647 -0.6902
 9699TIP3   OH250511   5.142   3.710  13.234 -0.4756  0.2898  0.2510
 9699TIP3    H150512   5.153   3.779  13.300 -0.1331  1.4388 -0.9749
 9699TIP3    H250513   5.211   3.726  13.170 -0.1386 -1.4575  0.1356
 9700TIP3   OH250514   0.113   4.165   4.620 -0.3224 -0.0509  0.2232
 9700TIP3    H150515   0.089   4.257   4.607  1.1431  0.1979 -0.8978
 9700TIP3    H250516   0.060   4.118   4.556 -0.6426  0.0723  0.3946
 9701TIP3   OH250517   4.635   4.557  11.192  0.0872  0.1081 -0.0634
 9701TIP3    H150518   4.699   4.622  11.165  1.1850 -0.3170  1.3960
 9701TIP3    H250519   4.654   4.480  11.139  0.3364  0.2015 -0.1101
 9702TIP3   OH250520   6.155   5.316  11.231  0.1111 -0.0790  0.1775
 9702TIP3    H150521   6.095   5.351  11.297  0.1245 -1.4104  0.9393
 9702TIP3    H250522   6.242   5.330  11.268  0.1506 -0.2576  0.1536
 9703TIP3   OH250523   3.914   3.315   4.696  0.3725  0.2814 -0.5369
 9703TIP3    H150524   3.885   3.402   4.723  1.1875  0.0478  1.2717
 9703TIP3    H250525   3.888   3.257   4.768  2.1768 -0.4926 -0.4401
 9704TIP3   OH250526   4.727   3.815  15.091  0.3703  0.0787  0.5794
 9704TIP3    H150527   4.643   3.791  15.053  0.7562 -2.9703  1.4075
 9704TIP3    H250528   4.707   3.841  15.180  0.3051 -0.8979  0.8584
 9705TIP3   OH250529   6.635   3.787   4.140 -0.5216  0.2773 -0.0951
 9705TIP3    H150530   6.701   3.762   4.204  1.0871 -1.1995 -2.2439
 9705TIP3    H250531   6.623   3.882   4.154  2.1233  0.6098  0.2858
 9706TIP3   OH250532   2.502   3.454   0.540  0.3138 -0.2885  0.3821
 9706TIP3    H150533   2.507   3.497   0.626  0.1864  1.4329 -0.4348
 9706TIP3    H250534   2.439   3.505   0.490 -1.0611 -2.3874 -0.1727
 9707TIP3   OH250535   0.206   2.020   5.155  0.3229 -0.1954  0.4312
 9707TIP3    H150536   0.204   2.031   5.250 -0.7514  0.7442  0.3194
 9707TIP3    H250537   0.221   2.108   5.121 -2.6552  0.1079 -0.3458
 9708TIP3   OH250538   5.754   3.736   4.495 -0.0458  0.0954  0.8276
 9708TIP3    H150539   5.734   3.642   4.494 -0.5729  0.1995  1.3396
 9708TIP3    H250540   5.822   3.745   4.562  1.2981 -0.1593 -0.4400
 9709TIP3   OH250541   6.110   0.982   2.885 -1.1214  0.4379 -0.0976
 9709TIP3    H150542   6.047   1.029   2.830 -0.4467  2.9745  1.1592
 9709TIP3    H250543   6.194   1.026   2.870 -0.5244 -0.0912  1.4232
 9710TIP3   OH250544   3.687   6.671   5.291 -0.2592 -0.3608  0.2978
 9710TIP3    H150545   3.637   6.699   5.368  0.2581 -1.2469  0.9682
 9710TIP3    H250546   3.658   6.731   5.221 -0.0534  1.0741  1.3906
 9711TIP3   OH250547   5.728   3.897   3.642 -0.7648  0.2303  0.4286
 9711TIP3    H150548   5.807   3.894   3.697  1.0984  0.2950 -2.0954
 9711TIP3    H250549   5.669   3.835   3.684  0.8441 -0.3024  2.0872
 9712TIP3   OH250550   2.092   5.299   1.309 -0.0838  0.3475 -0.0184
 9712TIP3    H150551   2.148   5.345   1.246  1.1665 -1.2560 -0.1556
 9712TIP3    H250552   2.096   5.207   1.282  1.1779 -0.5568  2.8567
 9713TIP3   OH250553   6.248   0.878  16.588  0.3259 -0.1055  0.0069
 9713TIP3    H150554   6.189   0.815  16.628 -0.6739  0.9193  0.1931
 9713TIP3    H250555   6.280   0.932  16.661  0.3365  0.2787 -0.2735
 9714TIP3   OH250556   0.604   2.377   0.619  0.0566 -0.0872 -0.1492
 9714TIP3    H150557   0.648   2.406   0.699 -3.2171  1.4295  1.2717
 9714TIP3    H250558   0.661   2.409   0.549  1.9711  0.4269  1.5297
 9715TIP3   OH250559   0.399   1.150   0.827  0.7065  0.0737  0.3715
 9715TIP3    H150560   0.442   1.170   0.744  1.1630  2.4607  1.1107
 9715TIP3    H250561   0.309   1.128   0.803  0.7026  1.1926 -0.7495
 9716TIP3   OH250562   3.165   3.935   3.288  0.9811  0.2020  0.6740
 9716TIP3    H150563   3.123   3.962   3.370  2.4582 -0.1768  1.5988
 9716TIP3    H250564   3.203   3.850   3.307 -0.9713 -1.2170 -1.2875
 9717TIP3   OH250565   2.065   2.955   0.959 -0.1930 -0.0597 -0.6297
 9717TIP3    H150566   2.090   2.948   0.867 -2.6084  0.2429 -1.3815
 9717TIP3    H250567   2.071   2.865   0.991 -0.3572 -0.3550 -1.3901
 9718TIP3   OH250568   4.511   1.194   2.715 -0.2426  0.2958  0.3668
 9718TIP3    H150569   4.552   1.270   2.757  0.5449  0.2866 -0.3517
 9718TIP3    H250570   4.429   1.227   2.679 -0.0453  0.7364  0.3162
 9719TIP3   OH250571   0.775   5.110  13.487 -0.3827  0.2266  0.3603
 9719TIP3    H150572   0.684   5.135  13.475 -0.7082  0.0909  2.2413
 9719TIP3    H250573   0.776   5.060  13.569  0.9670 -2.0906 -0.9518
 9720TIP3   OH250574   0.855   3.205   3.291 -0.7982  0.6100 -0.6186
 9720TIP3    H150575   0.939   3.185   3.333 -0.8175 -0.2032 -0.9597
 9720TIP3    H250576   0.832   3.125   3.243 -0.3243  1.7506 -2.9240
 9721TIP3   OH250577   3.543   3.151  12.396 -0.4309  0.2036 -0.0052
 9721TIP3    H150578   3.554   3.138  12.302  0.8120  0.2535  0.1115
 9721TIP3    H250579   3.573   3.069  12.435 -2.9517 -0.6608  0.2964
 9722TIP3   OH250580   2.944   2.211  14.131  0.9608 -0.3357  0.5512
 9722TIP3    H150581   2.997   2.244  14.203 -0.8664  1.3292  1.2249
 9722TIP3    H250582   2.929   2.287  14.075  0.7067 -1.1555 -0.5318
 9723TIP3   OH250583   5.883   1.621   1.212 -0.3477  0.7216 -0.4880
 9723TIP3    H150584   5.961   1.568   1.226  0.4214  2.0981  0.6919
 9723TIP3    H250585   5.833   1.574   1.145  1.5648 -0.1084 -1.3913
 9724TIP3   OH250586   4.807   4.662   2.030  0.2134  0.1545 -0.0691
 9724TIP3    H150587   4.743   4.732   2.017 -0.0846  0.0814  0.9460
 9724TIP3    H250588   4.766   4.604   2.094 -0.0882 -1.6264 -1.7640
 9725TIP3   OH250589   5.027   0.855   1.551  0.2486  0.2261  0.3723
 9725TIP3    H150590   4.983   0.774   1.524  2.4516 -1.1364  0.6410
 9725TIP3    H250591   5.107   0.857   1.499  0.9273  1.4812  1.4230
 9726TIP3   OH250592   5.931   4.730   2.275  0.0102  0.0197 -0.7802
 9726TIP3    H150593   5.959   4.638   2.277  0.8695  0.2825  0.3581
 9726TIP3    H250594   5.894   4.746   2.362  1.4153  1.1852 -0.3561
 9727TIP3   OH250595   0.645   0.138   2.939  0.5619 -0.1708 -0.0097
 9727TIP3    H150596   0.620   0.140   2.847 -1.6635 -0.8510  0.4997
 9727TIP3    H250597   0.717   0.201   2.947 -0.3576  1.2013 -1.8816
 9728TIP3   OH250598   5.735   4.755   3.378  0.0703 -0.1727 -0.2259
 9728TIP3    H150599   5.821   4.721   3.353  0.2295 -0.3320  0.5268
 9728TIP3    H250600   5.699   4.688   3.436 -0.0532  0.4611  0.4339
 9729TIP3   OH250601   0.403   1.078  14.277  0.2287 -0.3422  0.3000
 9729TIP3    H150602   0.408   1.167  14.312  1.7463 -0.4782  0.5072
 9729TIP3    H250603   0.454   1.026  14.339  0.0718 -1.2009 -0.2828
 9730TIP3   OH250604   4.294   2.740  14.114 -0.2756  0.4333 -0.2293
 9730TIP3    H150605   4.300   2.650  14.147 -1.0596 -0.0024 -1.2345
 9730TIP3    H250606   4.203   2.766  14.129 -0.1766  0.8881 -0.3806
 9731TIP3   OH250607   4.016   2.969  16.839 -0.9298 -0.3192 -0.3835
 9731TIP3    H150608   4.109   2.980  16.820 -0.7084 -0.8750  0.3180
 9731TIP3    H250609   3.981   3.058  16.840 -0.4477 -0.1180 -0.8525
 9732TIP3   OH250610   4.388   0.984   0.584  0.2389  0.5275  0.0573
 9732TIP3    H150611   4.385   0.900   0.538  1.7339 -0.0560  0.9545
 9732TIP3    H250612   4.440   1.041   0.526  0.7335  0.2869  0.2589
 9733TIP3   OH250613   4.262   5.416   4.428  0.1643  0.2087  0.4394
 9733TIP3    H150614   4.326   5.405   4.358  1.0573 -1.1612  1.4125
 9733TIP3    H250615   4.189   5.462   4.387  0.5616 -0.7506 -1.4498
 9734TIP3   OH250616   0.562   6.229  14.802  0.6216 -0.4293 -0.5040
 9734TIP3    H150617   0.613   6.168  14.856  0.1205 -0.9391 -0.5968
 9734TIP3    H250618   0.472   6.218  14.833  0.3702 -0.5204 -1.2460
 9735TIP3   OH250619   1.489   6.018   0.338  0.2209  0.0685 -1.0385
 9735TIP3    H150620   1.553   6.089   0.336  0.3052 -0.0226 -1.7196
 9735TIP3    H250621   1.405   6.062   0.326  0.1645  0.1671 -0.3385
 9736TIP3   OH250622   4.801   6.678  15.915 -0.8594  0.7409  0.0193
 9736TIP3    H150623   4.712   6.713  15.903 -1.0017  0.0532 -0.9938
 9736TIP3    H250624   4.805   6.602  15.858 -0.1693 -0.2451  1.3247
 9737TIP3   OH250625   4.265   4.652   0.744  0.3509 -0.1181 -0.2153
 9737TIP3    H150626   4.271   4.718   0.675  0.6808 -2.4006 -2.5255
 9737TIP3    H250627   4.192   4.680   0.798  1.7539  3.1991  0.2000
 9738TIP3   OH250628   2.038   5.407  13.096  0.0861  0.0559 -0.2588
 9738TIP3    H150629   2.047   5.403  13.001 -0.2779 -0.1032 -0.2886
 9738TIP3    H250630   1.996   5.491  13.113 -0.7082 -0.3209 -0.3123
 9739TIP3   OH250631   0.310   3.766  14.281  0.3415  0.6286 -0.1877
 9739TIP3    H150632   0.245   3.769  14.351 -0.2163 -1.3653 -0.5565
 9739TIP3    H250633   0.393   3.789  14.324  0.5886 -3.3421  1.9724
 9740TIP3   OH250634   1.404   1.130   1.444 -0.7931  0.3800  0.0481
 9740TIP3    H150635   1.342   1.203   1.440 -0.2041  0.9011  0.2450
 9740TIP3    H250636   1.474   1.161   1.501  1.0133  0.8655 -2.2950
 9741TIP3   OH250637   1.772   4.615   0.561 -0.2527 -0.3953  0.2852
 9741TIP3    H150638   1.733   4.571   0.637  0.6528  0.0207  1.0045
 9741TIP3    H250639   1.769   4.708   0.583 -2.0374 -0.0467 -1.1758
 9742TIP3   OH250640   6.785   0.627  11.745  0.1304 -0.1111  0.2012
 9742TIP3    H150641   6.744   0.675  11.818  1.7220  2.2208 -0.3264
 9742TIP3    H250642   6.727   0.643  11.671  0.4821  0.7330  0.1048
 9743TIP3   OH250643   5.954   4.570   0.706  0.1592 -0.4109  0.0743
 9743TIP3    H150644   5.997   4.655   0.716 -0.2417 -0.1691 -0.2769
 9743TIP3    H250645   5.861   4.590   0.701  0.1049 -0.8219 -0.6108
 9744TIP3   OH250646   2.408   1.298   0.632 -0.0180 -0.3403  0.4973
 9744TIP3    H150647   2.379   1.291   0.723  1.5912 -1.1025  0.9980
 9744TIP3    H250648   2.403   1.208   0.598 -2.5835  0.2228 -0.8838
 9745TIP3   OH250649   0.640   6.801   2.275 -0.1847 -0.2694  0.1205
 9745TIP3    H150650   0.634   6.724   2.219  0.2407 -1.4045  1.5508
 9745TIP3    H250651   0.723   6.790   2.322 -0.4878  0.6524  0.9086
 9746TIP3   OH250652   3.144   3.563   3.994 -0.2574 -0.2300  0.4255
 9746TIP3    H150653   3.136   3.552   3.899 -0.0873  1.3155  0.2073
 9746TIP3    H250654   3.238   3.550   4.011 -0.4295 -1.4202  0.5285
 9747TIP3   OH250655   2.391   1.687   3.181 -0.3412  0.6999  0.0016
 9747TIP3    H150656   2.478   1.651   3.166 -0.0067 -0.0274  3.0263
 9747TIP3    H250657   2.338   1.654   3.108  1.3212 -1.0233 -0.5089
 9748TIP3   OH250658   1.903   6.106   2.897 -0.0878 -0.5734  0.7452
 9748TIP3    H150659   1.910   6.033   2.958  0.3062 -1.4971 -0.3807
 9748TIP3    H250660   1.993   6.125   2.872 -0.3080 -0.9802 -0.4273
 9749TIP3   OH250661   3.572   0.389   2.467 -0.0475 -0.1457 -0.3293
 9749TIP3    H150662   3.637   0.331   2.427 -0.5220 -0.7492 -0.2369
 9749TIP3    H250663   3.565   0.463   2.407 -2.3923 -2.0335 -2.6199
 9750TIP3   OH250664   0.025   0.682   1.903 -0.1307 -0.5819 -0.4529
 9750TIP3    H150665  -0.034   0.713   1.835  1.5371 -0.1587 -1.7733
 9750TIP3    H250666   0.108   0.726   1.885  0.7244 -1.4546  1.0928
 9751TIP3   OH250667   5.152   1.851  14.082 -0.4770  0.2153 -0.2769
 9751TIP3    H150668   5.078   1.827  14.138  0.1808 -0.9299  0.1489
 9751TIP3    H250669   5.228   1.845  14.139  0.2401 -1.1928 -1.3154
 9752TIP3   OH250670   0.870   2.712   1.928  0.2497  0.5449 -0.4019
 9752TIP3    H150671   0.845   2.622   1.909  0.7018  0.2915  0.1773
 9752TIP3    H250672   0.815   2.765   1.870  0.5489 -0.1338 -1.3210
 9753TIP3   OH250673   3.797   3.333   0.513 -0.0490  0.0140 -0.2700
 9753TIP3    H150674   3.714   3.328   0.562  0.7159  1.3936  1.2504
 9753TIP3    H250675   3.780   3.283   0.434 -2.7291  1.1855 -0.5587
 9754TIP3   OH250676   3.956   2.955  16.384  0.1972  0.7909 -0.8563
 9754TIP3    H150677   4.026   2.953  16.319  0.1615  0.7474 -0.8930
 9754TIP3    H250678   3.989   3.014  16.452  0.5433  0.2747 -0.5648
 9755TIP3   OH250679   4.937   1.406   2.768 -0.3303 -0.6402 -1.2176
 9755TIP3    H150680   4.962   1.369   2.683 -0.5555  0.5734 -1.8331
 9755TIP3    H250681   4.881   1.481   2.747 -0.0433 -0.0520 -0.0190
 9756TIP3   OH250682   5.237   0.915  13.969  1.2886  0.6306  0.3813
 9756TIP3    H150683   5.189   0.941  14.048  2.5141  2.7170  0.5210
 9756TIP3    H250684   5.327   0.904  13.998  1.7001  1.1288 -0.6539
 9757TIP3   OH250685   4.624   4.655  16.002  0.7218  0.3482  0.1614
 9757TIP3    H150686   4.608   4.641  15.909  2.3356  1.2278 -0.2888
 9757TIP3    H250687   4.695   4.594  16.024 -1.0876 -1.4538  1.3973
 9758TIP3   OH250688   2.931   2.120  16.741 -0.0907  0.2150 -0.0913
 9758TIP3    H150689   3.013   2.114  16.789  0.2177 -0.9590 -0.7368
 9758TIP3    H250690   2.917   2.214  16.729  0.8351  0.4471  0.5530
 9759TIP3   OH250691   2.252   5.380  12.421 -0.1939  0.4231  0.8313
 9759TIP3    H150692   2.237   5.334  12.504 -0.0764 -0.3750  0.4163
 9759TIP3    H250693   2.197   5.335  12.358  0.4974  0.3621  0.2576
 9760TIP3   OH250694   1.075   6.779   0.024  0.5868  0.1712  0.4556
 9760TIP3    H150695   1.029   6.696   0.033  2.3942 -1.3132 -2.5053
 9760TIP3    H250696   1.006   6.843   0.006 -0.6434 -1.2688 -0.1882
 9761TIP3   OH250697   5.487   4.209   3.362  0.2393 -0.6126  0.2493
 9761TIP3    H150698   5.558   4.183   3.420  0.4557 -0.9031 -0.1389
 9761TIP3    H250699   5.515   4.179   3.275 -0.5371 -1.0800  0.1545
 9762TIP3   OH250700   5.108   0.111   4.886 -0.0059 -0.4690 -0.1494
 9762TIP3    H150701   5.184   0.089   4.832 -1.2669 -0.9308 -1.8245
 9762TIP3    H250702   5.120   0.203   4.908  1.4588 -0.7615  0.3404
 9763TIP3   OH250703   4.809   0.465   3.690  0.0638  0.2505 -0.1187
 9763TIP3    H150704   4.734   0.520   3.669 -0.0585  0.2463  0.2878
 9763TIP3    H250705   4.771   0.381   3.718  0.2686 -0.3043 -1.4454
 9764TIP3   OH250706   2.685   1.560  16.600 -0.8104  0.1096 -0.7019
 9764TIP3    H150707   2.639   1.557  16.684  0.7725  1.4356  0.2737
 9764TIP3    H250708   2.743   1.484  16.603 -0.6258  0.2569 -0.5141
 9765TIP3   OH250709   1.253   3.052  16.252  0.1154 -0.1000  0.2615
 9765TIP3    H150710   1.160   3.071  16.256  0.3069  0.8651  0.4291
 9765TIP3    H250711   1.273   3.045  16.159 -0.5337 -2.5742  0.2421
 9766TIP3   OH250712   5.341   4.757   0.236  0.6023 -0.7969 -0.0629
 9766TIP3    H150713   5.256   4.747   0.280  0.2418  1.4909 -0.0869
 9766TIP3    H250714   5.336   4.699   0.160 -0.4066 -1.6815  0.6471
 9767TIP3   OH250715   6.546   2.929   2.973 -0.6118  0.0379  0.2616
 9767TIP3    H150716   6.546   3.022   2.992  2.8270  0.1326  0.3229
 9767TIP3    H250717   6.530   2.923   2.879 -0.6337  0.6966  0.2237
 9768TIP3   OH250718   2.927   3.078   2.615 -0.2427 -0.1096 -0.1409
 9768TIP3    H150719   2.949   3.060   2.523 -0.5082 -0.7055 -0.0907
 9768TIP3    H250720   3.011   3.104   2.655  0.0231 -0.6031 -0.3709
 9769TIP3   OH250721   6.622   2.181   4.798 -0.0958  0.3827  0.2699
 9769TIP3    H150722   6.560   2.109   4.788 -0.1242  0.5336 -0.7221
 9769TIP3    H250723   6.569   2.260   4.794  0.0965  0.4978 -0.1636
 9770TIP3   OH250724   1.075   3.390  16.007 -0.2751 -0.1435  0.3957
 9770TIP3    H150725   1.107   3.440  16.082 -0.0625  1.0093 -0.4338
 9770TIP3    H250726   1.001   3.440  15.974 -0.7889 -0.9937  0.2214
 9771TIP3   OH250727   4.883   1.147  15.425  0.2959 -0.3782  0.1841
 9771TIP3    H150728   4.787   1.145  15.432  0.3276 -0.2615  0.7146
 9771TIP3    H250729   4.900   1.142  15.331 -0.2208 -0.8340  0.1065
 9772TIP3   OH250730   3.136   2.291  16.000 -0.5917  0.5980 -0.0779
 9772TIP3    H150731   3.109   2.296  16.092 -2.4790 -0.8894 -0.4753
 9772TIP3    H250732   3.161   2.199  15.988 -0.9528  0.6273 -1.1756
 9773TIP3   OH250733   3.458   4.336   2.340  0.4163  0.3412 -0.3768
 9773TIP3    H150734   3.524   4.404   2.327  1.6673 -0.6335  0.6843
 9773TIP3    H250735   3.422   4.354   2.427 -0.9118  0.9933 -1.0316
 9774TIP3   OH250736   1.297   2.853  16.446 -0.7415  0.2711 -0.1806
 9774TIP3    H150737   1.366   2.876  16.507  0.4590  1.9698 -2.0508
 9774TIP3    H250738   1.301   2.921  16.378 -2.7653 -0.8499 -1.5417
 9775TIP3   OH250739   6.638   3.409  13.087  0.2713  0.2602 -0.1966
 9775TIP3    H150740   6.631   3.475  13.156 -0.5305 -0.1636  0.1434
 9775TIP3    H250741   6.652   3.460  13.007  0.2421  0.8089  0.1420
 9776TIP3   OH250742   6.474   1.019   5.236  0.0936 -0.0000 -0.1950
 9776TIP3    H150743   6.456   1.107   5.203  1.3341  0.3880  0.1162
 9776TIP3    H250744   6.511   0.972   5.161 -0.2235 -0.1450 -0.2610
 9777TIP3   OH250745   0.580   3.274  15.034  0.2709  0.2130  0.5846
 9777TIP3    H150746   0.593   3.358  15.078 -3.4036  0.2092  2.0491
 9777TIP3    H250747   0.634   3.213  15.084 -1.7481  0.7126  3.6617
 9778TIP3   OH250748   5.449   6.714  12.626 -0.7239  0.2208 -0.3020
 9778TIP3    H150749   5.355   6.696  12.629 -0.4526 -1.1411  0.7975
 9778TIP3    H250750   5.462   6.782  12.693 -0.5853 -1.4904  1.5082
 9779TIP3   OH250751   2.595   5.180   4.542 -0.1482  0.0449 -0.0111
 9779TIP3    H150752   2.539   5.103   4.530 -1.3292  0.9610 -0.6589
 9779TIP3    H250753   2.538   5.254   4.520  1.0715  1.0787  0.2085
 9780TIP3   OH250754   1.923   2.332   6.205 -0.7806  0.1923  0.1662
 9780TIP3    H150755   1.999   2.349   6.260 -0.7620  1.2598 -0.1854
 9780TIP3    H250756   1.895   2.418   6.174 -1.1077 -0.3378 -1.0783
 9781TIP3   OH250757   3.172   0.433   2.422 -0.8250  0.3001  0.2678
 9781TIP3    H150758   3.147   0.448   2.513  0.7407 -3.1819  1.4570
 9781TIP3    H250759   3.091   0.405   2.379 -1.2731  0.3873  1.0440
 9782TIP3   OH250760   4.208   6.622   4.586 -0.0119 -0.3089  0.2772
 9782TIP3    H150761   4.158   6.685   4.638  3.0157  3.5406 -0.9080
 9782TIP3    H250762   4.236   6.555   4.649 -0.5775  1.4283  2.5199
 9783TIP3   OH250763   4.793   1.457  13.045 -0.0117 -0.4775 -0.4551
 9783TIP3    H150764   4.845   1.529  13.081 -0.3532 -1.2037  1.5852
 9783TIP3    H250765   4.842   1.428  12.968  0.8820  0.9773 -0.4648
 9784TIP3   OH250766   6.380   6.008   2.181  0.2293  0.0712  0.4274
 9784TIP3    H150767   6.288   6.022   2.161  0.3421 -0.2525 -0.4011
 9784TIP3    H250768   6.381   5.943   2.251 -0.2049  1.5337  1.8218
 9785TIP3   OH250769   6.073   4.305   3.958  0.2251 -0.1613  0.5154
 9785TIP3    H150770   6.002   4.369   3.968  1.2475  0.9656  0.7120
 9785TIP3    H250771   6.028   4.220   3.957 -1.1974  0.5614 -0.1825
 9786TIP3   OH250772   2.892   4.249   0.293  0.0742  0.0325 -0.2221
 9786TIP3    H150773   2.943   4.285   0.221  0.7817  0.8447  0.6438
 9786TIP3    H250774   2.862   4.164   0.263  1.3501 -0.1517 -1.0228
 9787TIP3   OH250775   0.428   4.123  13.033 -0.3610  0.7382  0.2159
 9787TIP3    H150776   0.469   4.044  12.998 -0.4146  1.1118 -0.7129
 9787TIP3    H250777   0.502   4.178  13.060 -0.3290  0.2698  1.1278
 9788TIP3   OH250778   5.425   1.687  16.525 -0.0507 -0.0544 -0.2583
 9788TIP3    H150779   5.501   1.667  16.578 -0.4522  0.2500  0.4571
 9788TIP3    H250780   5.459   1.741  16.454  1.1016 -3.3508 -2.4144
 9789TIP3   OH250781   6.567   0.529   4.809 -0.4115  0.1881 -0.1239
 9789TIP3    H150782   6.519   0.540   4.891  0.3704 -0.3192  0.4121
 9789TIP3    H250783   6.552   0.610   4.761 -1.3310  0.2674  0.2806
 9790TIP3   OH250784   0.225   1.817  14.283  0.8254  0.0063  0.0215
 9790TIP3    H150785   0.151   1.822  14.223  1.3150  1.4803 -0.4949
 9790TIP3    H250786   0.274   1.898  14.268  2.2641 -0.7031  0.7181
 9791TIP3   OH250787   2.204   6.707   1.263  0.1279  0.6409 -0.2858
 9791TIP3    H150788   2.185   6.613   1.261  0.7183  0.5195 -0.4642
 9791TIP3    H250789   2.252   6.720   1.344 -1.7082  1.1536  0.7662
 9792TIP3   OH250790   6.582   1.858  10.805 -0.1729 -0.5081 -0.3394
 9792TIP3    H150791   6.598   1.933  10.862 -1.9821  0.1400 -0.6149
 9792TIP3    H250792   6.552   1.788  10.864  0.8674 -0.8212 -0.1637
 9793TIP3   OH250793   6.000   0.374   1.681  0.2921 -0.7090 -0.1345
 9793TIP3    H150794   6.043   0.445   1.634  0.3424 -0.3721  0.4175
 9793TIP3    H250795   5.963   0.319   1.612 -0.3369  0.2134 -0.5498
 9794TIP3   OH250796   5.044   3.746  17.029  0.2892  0.0258 -0.3342
 9794TIP3    H150797   5.036   3.742  16.934 -0.1324  0.9394 -0.3479
 9794TIP3    H250798   4.960   3.783  17.058  0.3302 -0.4529  0.4061
 9795TIP3   OH250799   4.306   5.765   4.404 -0.0281 -0.2079  0.5810
 9795TIP3    H150800   4.216   5.736   4.388  0.2955 -0.4445 -0.9978
 9795TIP3    H250801   4.304   5.804   4.491 -2.4887  3.0503 -0.7478
 9796TIP3   OH250802   5.061   1.236   0.520 -0.5838  0.1074  0.6453
 9796TIP3    H150803   5.059   1.267   0.429 -0.1777  0.6874  0.8310
 9796TIP3    H250804   5.041   1.143   0.513  0.2351 -0.0233 -0.1104
 9797TIP3   OH250805   6.634   2.968   5.048  0.1432 -0.3816 -0.3320
 9797TIP3    H150806   6.550   3.004   5.021  0.3159  1.8490  1.7873
 9797TIP3    H250807   6.618   2.874   5.059 -1.6088 -0.2592 -1.5004
 9798TIP3   OH250808   4.659   2.318  11.724  0.0770 -0.0614  0.3138
 9798TIP3    H150809   4.638   2.322  11.817  0.0816  0.2851  0.3015
 9798TIP3    H250810   4.730   2.382  11.712  1.4035 -1.4675  0.4154
 9799TIP3   OH250811   1.963   0.651   3.066  0.0436 -0.0263  0.5918
 9799TIP3    H150812   1.994   0.609   3.147  0.4403  1.4893  1.2526
 9799TIP3    H250813   1.917   0.729   3.096 -0.2962  0.2591 -0.6387
 9800TIP3   OH250814   3.042   4.271  11.804  0.2300 -0.3581  0.4153
 9800TIP3    H150815   3.079   4.229  11.881  0.0772 -2.2844 -0.4739
 9800TIP3    H250816   2.997   4.199  11.758 -0.0186  0.8007 -1.2382
 9801TIP3   OH250817   3.216   6.671  14.519  0.1008 -0.0709  0.2509
 9801TIP3    H150818   3.136   6.628  14.551  0.4377 -0.9659 -0.1038
 9801TIP3    H250819   3.193   6.764  14.517 -0.4297 -0.1481  1.6437
 9802TIP3   OH250820   4.610   0.088  14.698  0.5020 -0.6323 -0.6042
 9802TIP3    H150821   4.630   0.163  14.641 -3.9665  1.0136 -0.3813
 9802TIP3    H250822   4.638   0.116  14.785 -0.6341  0.6644 -0.6153
 9803TIP3   OH250823   0.416   1.490   2.741 -0.0048  0.2608  0.0135
 9803TIP3    H150824   0.394   1.533   2.823 -0.6776  0.8923 -0.4824
 9803TIP3    H250825   0.350   1.421   2.731  1.4653 -1.4027  1.1408
 9804TIP3   OH250826   6.029   0.638  12.226  0.2470 -0.3852  0.2166
 9804TIP3    H150827   5.941   0.674  12.221  0.9460  1.3206 -0.4529
 9804TIP3    H250828   6.035   0.601  12.314 -1.1213 -0.5460  0.2611
 9805TIP3   OH250829   3.442   6.361   2.972 -0.3943 -0.2187  0.0739
 9805TIP3    H150830   3.446   6.295   2.903  1.5099 -1.5258  1.3344
 9805TIP3    H250831   3.356   6.348   3.012 -0.2542 -1.6064 -0.0276
 9806TIP3   OH250832   1.770   4.735  12.336 -0.0132  0.3156  0.5610
 9806TIP3    H150833   1.765   4.698  12.424 -1.7537  0.6080  0.6169
 9806TIP3    H250834   1.687   4.711  12.295 -0.3677  2.4153 -0.0825
 9807TIP3   OH250835   2.956   1.705   4.988  0.3724 -0.0362 -0.1128
 9807TIP3    H150836   2.895   1.775   4.967  0.7444  0.2927 -0.1165
 9807TIP3    H250837   3.020   1.746   5.047  0.0613 -0.6132  0.6418
 9808TIP3   OH250838   5.242   4.790  14.185  0.7811 -0.0103  0.0067
 9808TIP3    H150839   5.230   4.873  14.140  1.2370 -0.5069 -1.0865
 9808TIP3    H250840   5.266   4.814  14.275  0.7924  1.0292 -0.2609
 9809TIP3   OH250841   2.999   1.273   1.037 -0.3977  0.6539 -0.2183
 9809TIP3    H150842   3.082   1.237   1.068  1.6199  3.5882 -1.7817
 9809TIP3    H250843   2.999   1.254   0.943 -1.2591  1.1015 -0.3181
 9810TIP3   OH250844   2.295   1.482   2.742 -0.1778  0.3752  0.0732
 9810TIP3    H150845   2.374   1.429   2.735 -0.2687  0.0431  1.3105
 9810TIP3    H250846   2.228   1.431   2.696  0.0661  0.1314 -0.0143
 9811TIP3   OH250847   1.013   1.643  13.927 -0.0511 -0.0971 -0.4727
 9811TIP3    H150848   0.972   1.729  13.939  0.1257  0.1332 -1.4080
 9811TIP3    H250849   0.944   1.590  13.887  0.0792 -0.1617 -0.6132
 9812TIP3   OH250850   1.219   2.938   3.594  0.5092  0.3768 -0.0673
 9812TIP3    H150851   1.248   2.932   3.503  1.8313  4.2853 -0.0832
 9812TIP3    H250852   1.299   2.924   3.645 -0.2723 -2.0652  0.6284
 9813TIP3   OH250853   6.014   2.287  15.157  0.0031 -0.7172 -0.0315
 9813TIP3    H150854   5.962   2.309  15.234  0.0143 -1.5232  0.2212
 9813TIP3    H250855   6.068   2.213  15.186  0.4995 -0.5831 -0.6126
 9814TIP3   OH250856   4.734   5.846   6.003 -0.4329  0.4626  0.3106
 9814TIP3    H150857   4.827   5.827   6.016 -0.9381 -0.9258  2.2876
 9814TIP3    H250858   4.702   5.773   5.950 -0.3607  1.1633 -0.7449
 9815TIP3   OH250859   3.048   4.761   1.741  0.0255 -0.2993  0.0882
 9815TIP3    H150860   3.099   4.839   1.724  1.2572 -0.8853  0.9488
 9815TIP3    H250861   2.965   4.793   1.777 -0.1128  0.6410 -0.9918
 9816TIP3   OH250862   6.362   1.960  15.652  0.6403 -0.1977 -0.1646
 9816TIP3    H150863   6.346   1.923  15.566 -1.1231 -0.4829  0.2451
 9816TIP3    H250864   6.333   1.892  15.713  1.1431  0.2957  0.6460
 9817TIP3   OH250865   3.209   6.124  15.602 -0.1931  0.0669  0.4765
 9817TIP3    H150866   3.139   6.070  15.566 -0.5136  0.5929  0.3145
 9817TIP3    H250867   3.280   6.061  15.620 -0.4595 -0.3688  0.0359
 9818TIP3   OH250868   6.608   1.591  11.818 -0.2670  0.4789 -0.6961
 9818TIP3    H150869   6.614   1.677  11.858 -1.6095  0.4583 -0.3947
 9818TIP3    H250870   6.526   1.554  11.852 -0.1191 -0.5912 -1.4340
 9819TIP3   OH250871   5.534   2.854   3.132  0.1413 -0.5598  0.6358
 9819TIP3    H150872   5.573   2.827   3.049  0.5288  0.2213  0.5558
 9819TIP3    H250873   5.441   2.835   3.122  0.1638 -0.3291 -0.0421
 9820TIP3   OH250874   4.145   5.038  14.384 -0.0449 -0.0107  0.1740
 9820TIP3    H150875   4.133   5.084  14.468 -0.0445  2.1381 -0.9383
 9820TIP3    H250876   4.074   5.070  14.329 -0.8195 -2.3819 -0.3123
 9821TIP3   OH250877   2.718   5.824  16.390 -0.0239 -0.0752  0.4413
 9821TIP3    H150878   2.680   5.904  16.352 -1.3002 -0.2992  1.1888
 9821TIP3    H250879   2.753   5.777  16.315  0.4755  1.0305 -0.0535
 9822TIP3   OH250880   2.895   4.458  11.504  0.1668 -0.1792  0.0805
 9822TIP3    H150881   2.985   4.427  11.509  0.5921  1.0897  0.7505
 9822TIP3    H250882   2.850   4.392  11.451  1.9061  0.1143 -1.8995
 9823TIP3   OH250883   3.089   6.001  10.485 -0.7045  0.0165  0.0410
 9823TIP3    H150884   3.084   6.097  10.483  1.3300  0.1653 -0.0221
 9823TIP3    H250885   3.119   5.977  10.398 -2.9419 -0.8700 -0.5508
 9824TIP3   OH250886   2.872   2.964  10.824  0.6078 -0.0952  0.5417
 9824TIP3    H150887   2.816   2.942  10.898  1.7531 -2.5905  0.7887
 9824TIP3    H250888   2.865   2.888  10.766  0.4465  1.4090 -1.4993
 9825TIP3   OH250889   5.235   5.328  12.509 -0.0180 -0.0148 -0.4211
 9825TIP3    H150890   5.249   5.363  12.421 -0.5565 -3.7616 -2.1940
 9825TIP3    H250891   5.313   5.353  12.558  0.9519  0.9748 -2.3599
 9826TIP3   OH250892   6.515   1.014   1.697 -0.0036  0.4089  0.2037
 9826TIP3    H150893   6.531   0.941   1.757  2.2279 -0.3679 -1.1781
 9826TIP3    H250894   6.532   1.092   1.750 -0.2159 -0.1509  1.1279
 9827TIP3   OH250895   0.449   2.675  16.077 -0.1191  0.0994  0.2197
 9827TIP3    H150896   0.359   2.706  16.078 -0.3522 -0.4546 -1.4879
 9827TIP3    H250897   0.467   2.655  15.986  1.7429  0.1874  0.5282
 9828TIP3   OH250898   0.797   1.030  16.301 -0.1751  0.2901 -0.5905
 9828TIP3    H150899   0.845   0.951  16.328 -0.1336  0.7753  0.8658
 9828TIP3    H250900   0.865   1.090  16.269  0.0928  0.5715  0.4586
 9829TIP3   OH250901   2.995   0.978  16.186  0.2976  0.4335  0.4559
 9829TIP3    H150902   2.942   1.029  16.124 -0.2658  0.3789  0.8864
 9829TIP3    H250903   2.943   0.977  16.266  0.3060 -0.7869  0.4625
 9830TIP3   OH250904   5.852   0.299   0.024  0.5275 -0.1237  0.0915
 9830TIP3    H150905   5.870   0.393   0.023  1.5325 -0.3002 -0.1287
 9830TIP3    H250906   5.921   0.262   0.079  1.9382 -1.0403 -2.1731
 9831TIP3   OH250907   3.013   2.938   5.624  0.5119 -0.3640  0.1664
 9831TIP3    H150908   2.974   2.864   5.670 -1.1939  0.6612  0.4501
 9831TIP3    H250909   3.023   3.006   5.691  0.0039  0.4010 -0.5114
 9832TIP3   OH250910   4.828   0.292  15.284 -0.4874 -0.2803  0.5499
 9832TIP3    H150911   4.763   0.223  15.296  0.0690 -1.1259 -1.0414
 9832TIP3    H250912   4.806   0.332  15.199 -0.4998  1.1884  1.2089
 9833TIP3   OH250913   1.907   0.734   0.574  0.1385 -0.0197 -0.0993
 9833TIP3    H150914   1.845   0.766   0.640 -2.1953 -2.4499 -0.9080
 9833TIP3    H250915   1.942   0.653   0.612 -0.3845 -0.8495 -1.3431
 9834TIP3   OH250916   6.503   3.584   3.983 -0.8838 -0.4697  0.5362
 9834TIP3    H150917   6.433   3.605   4.044 -0.8267  0.9313  0.1372
 9834TIP3    H250918   6.559   3.661   3.982 -1.1445 -0.2363 -1.6255
 9835TIP3   OH250919   4.496   3.732   2.608  0.3815  0.6308 -0.5135
 9835TIP3    H150920   4.560   3.729   2.537  0.2655 -0.9131 -0.5870
 9835TIP3    H250921   4.458   3.820   2.603  0.2155  0.4837 -2.5038
 9836TIP3   OH250922   5.432   3.570   0.994 -0.4761 -0.8297  0.3959
 9836TIP3    H150923   5.370   3.610   0.933  0.2383  1.2715  0.9506
 9836TIP3    H250924   5.398   3.482   1.008 -2.0717 -0.5072 -1.0403
 9837TIP3   OH250925   1.256   5.924  11.439 -0.3797 -0.9304  0.0180
 9837TIP3    H150926   1.319   5.995  11.423  0.4863 -1.8045 -0.5716
 9837TIP3    H250927   1.264   5.905  11.532 -0.9058 -0.0011  0.2650
 9838TIP3   OH250928   0.231   1.586   4.905 -0.1143  0.0943 -0.5356
 9838TIP3    H150929   0.255   1.666   4.952  0.1659 -0.5704  0.4849
 9838TIP3    H250930   0.169   1.615   4.838  0.3332  1.2251 -0.4716
 9839TIP3   OH250931   1.047   3.638  15.690 -0.0055  0.4372 -0.2279
 9839TIP3    H150932   1.044   3.724  15.649 -0.9736 -0.2009 -1.6016
 9839TIP3    H250933   1.137   3.608  15.678  0.4683  1.4396  0.7061
 9840TIP3   OH250934   3.276   3.630  11.450  0.1390  0.7857  0.2453
 9840TIP3    H150935   3.329   3.588  11.382 -1.8479 -0.0415 -0.9162
 9840TIP3    H250936   3.194   3.579  11.450 -1.5680  3.3756  0.2830
 9841TIP3   OH250937   4.620   5.610  11.545  0.7224 -0.6260  0.1517
 9841TIP3    H150938   4.656   5.698  11.534  0.0089 -0.3768 -0.2952
 9841TIP3    H250939   4.637   5.588  11.636 -0.3296  0.5515  0.6664
 9842TIP3   OH250940   0.734   2.016  16.264  0.2350  0.1779  0.0945
 9842TIP3    H150941   0.661   1.985  16.210 -1.1059  0.3276  1.7364
 9842TIP3    H250942   0.792   1.941  16.273 -0.1414 -0.1949 -0.5362
 9843TIP3   OH250943   5.857   1.449   2.095 -0.4960 -0.5396  0.5579
 9843TIP3    H150944   5.939   1.419   2.134 -0.1409 -1.3831 -0.7801
 9843TIP3    H250945   5.855   1.408   2.008 -1.7748  0.4039  0.1097
 9844TIP3   OH250946   4.235   3.548   0.851 -0.1798 -0.3796  0.0827
 9844TIP3    H150947   4.197   3.462   0.836 -0.4550 -0.1080 -0.8796
 9844TIP3    H250948   4.326   3.531   0.875 -0.2751 -0.9383  0.0607
 9845TIP3   OH250949   0.232   2.972  12.088 -0.6096  0.1376  0.1820
 9845TIP3    H150950   0.154   2.961  12.142 -0.2566  1.6432  1.0820
 9845TIP3    H250951   0.221   3.057  12.047 -0.3323 -0.4948 -1.2402
 9846TIP3   OH250952   4.794   5.646   4.084 -0.0809  0.4093  0.0171
 9846TIP3    H150953   4.723   5.656   4.021  0.7564  0.5872 -0.9199
 9846TIP3    H250954   4.827   5.734   4.097  1.3097  0.1015 -1.1665
 9847TIP3   OH250955   6.501   6.441   1.873  0.0648 -0.5304 -0.4464
 9847TIP3    H150956   6.589   6.476   1.882  0.4313 -1.4854 -0.2028
 9847TIP3    H250957   6.511   6.346   1.882 -1.2277 -0.5428  1.7619
 9848TIP3   OH250958   2.673   5.015   3.513  0.5318 -0.7322  0.3932
 9848TIP3    H150959   2.643   5.089   3.566  1.4425  1.2887 -1.7212
 9848TIP3    H250960   2.594   4.965   3.494 -0.3239  0.3949  0.8583
 9849TIP3   OH250961   0.090   0.629   4.216  0.0960  0.7377 -0.1703
 9849TIP3    H150962   0.041   0.550   4.192 -0.1621  0.0399  2.3874
 9849TIP3    H250963   0.033   0.676   4.276  1.2079  1.6763  0.1920
 9850TIP3   OH250964   5.399   0.400   0.763  0.2390  0.1387  0.2539
 9850TIP3    H150965   5.327   0.359   0.713 -0.0397  1.1392 -0.1891
 9850TIP3    H250966   5.477   0.380   0.712  0.0880  0.2436 -0.0236
 9851TIP3   OH250967   3.544   6.338  16.242  0.0561 -0.4536  0.2153
 9851TIP3    H150968   3.460   6.297  16.263  0.8498 -2.3391 -0.1045
 9851TIP3    H250969   3.544   6.348  16.147 -1.5720  3.7247  0.4326
 9852TIP3   OH250970   3.731   5.289   6.220 -0.1898 -0.1019 -0.5574
 9852TIP3    H150971   3.675   5.288   6.298  0.7907 -0.4976  0.1704
 9852TIP3    H250972   3.693   5.355   6.164 -0.5780  0.6260  0.5300
 9853TIP3   OH250973   0.854   6.411   0.769  0.0219 -0.2617 -0.5438
 9853TIP3    H150974   0.864   6.406   0.864 -0.2588  1.5716 -0.3760
 9853TIP3    H250975   0.927   6.466   0.740  0.7286 -1.6723 -1.5531
 9854TIP3   OH250976   0.836   2.020   3.099 -0.2137  0.5449  0.3479
 9854TIP3    H150977   0.830   1.930   3.132  0.2142  0.4930  0.2885
 9854TIP3    H250978   0.779   2.070   3.158 -0.4913  0.2316  0.3533
 9855TIP3   OH250979   4.270   6.191  16.887  0.1555  0.5884 -0.3300
 9855TIP3    H150980   4.277   6.117  16.826 -0.6214  1.1460 -1.1078
 9855TIP3    H250981   4.285   6.152  16.973 -3.3559 -1.1591 -0.3250
 9856TIP3   OH250982   2.013   2.440  11.176 -0.3617  0.0985 -0.0749
 9856TIP3    H150983   2.052   2.353  11.186  1.3395  0.7930 -0.3753
 9856TIP3    H250984   1.939   2.426  11.116  0.6134 -0.9561 -1.0914
 9857TIP3   OH250985   6.161   2.067   3.869 -0.3663 -0.2141 -0.0353
 9857TIP3    H150986   6.103   1.991   3.877  0.1174 -0.6338 -0.4038
 9857TIP3    H250987   6.102   2.140   3.848 -0.9540 -0.2582  1.3954
 9858TIP3   OH250988   0.667   2.660  11.810  0.9638 -0.0913 -0.1628
 9858TIP3    H150989   0.756   2.690  11.826 -0.0302  2.1372  1.9255
 9858TIP3    H250990   0.616   2.698  11.882 -1.8065 -0.6591 -1.6874
 9859TIP3   OH250991   1.529   0.006  14.430  0.1736 -0.7607  0.6250
 9859TIP3    H150992   1.525   0.020  14.525 -0.9501 -2.8626  0.9462
 9859TIP3    H250993   1.446   0.039  14.397 -0.0902 -1.4293  0.6043
 9860TIP3   OH250994   5.049   6.670  16.303 -0.2101 -0.1301 -0.0996
 9860TIP3    H150995   5.048   6.574  16.296  2.9036 -0.4066  1.5641
 9860TIP3    H250996   5.137   6.695  16.275 -0.5516  2.1409  0.6634
 9861TIP3   OH250997   2.114   2.076   2.634  0.6361 -0.5089 -0.1278
 9861TIP3    H150998   2.020   2.090   2.647  0.7867 -0.4222  0.9592
 9861TIP3    H250999   2.152   2.164   2.640  0.5336 -0.1461 -3.2711
 9862TIP3   OH251000   3.551   3.758   5.978  0.4895 -0.7614  0.0767
 9862TIP3    H151001   3.471   3.728   6.020  0.3979 -0.2019  0.3119
 9862TIP3    H251002   3.622   3.725   6.034  0.3651  0.1242  0.7913
 9863TIP3   OH251003   1.334   4.208  12.713  0.2575  0.2097  0.8823
 9863TIP3    H151004   1.399   4.148  12.676  0.7531  0.8019  0.7555
 9863TIP3    H251005   1.304   4.260  12.638  0.3139  0.5489  1.0879
 9864TIP3   OH251006   1.084   4.247   5.780 -0.5866 -0.1311  0.3948
 9864TIP3    H151007   1.107   4.208   5.865 -1.2339  0.1970  0.7257
 9864TIP3    H251008   0.989   4.249   5.779 -0.5778  0.4074 -0.0955
 9865TIP3   OH251009   6.173   6.564  12.219  0.1742  0.2013 -0.4060
 9865TIP3    H151010   6.129   6.626  12.161 -1.5223 -0.3402  0.2671
 9865TIP3    H251011   6.257   6.548  12.176 -0.4941  0.8102 -2.0273
 9866TIP3   OH251012   2.005   3.121  12.487 -0.1818  0.1221  0.2922
 9866TIP3    H151013   1.929   3.106  12.542 -0.5506 -0.3768 -0.3416
 9866TIP3    H251014   1.984   3.078  12.404  0.7785 -0.0083  0.1004
 9867TIP3   OH251015   1.176   4.273  15.556  0.5904  0.4385 -0.3099
 9867TIP3    H151016   1.223   4.208  15.609  0.4386 -0.0609 -0.7736
 9867TIP3    H251017   1.176   4.352  15.609  4.7217  1.4892 -1.5598
 9868TIP3   OH251018   1.834   3.541  13.135  0.1209  0.0303  0.0738
 9868TIP3    H151019   1.854   3.453  13.102 -1.1869 -0.3838  0.3365
 9868TIP3    H251020   1.774   3.577  13.069  2.0249  1.4281 -0.9609
 9869TIP3   OH251021   0.148   3.861   5.879 -0.1552  0.2843  0.9571
 9869TIP3    H151022   0.083   3.838   5.946 -0.7715  0.8139  0.5588
 9869TIP3    H251023   0.217   3.797   5.890 -0.3803  0.1846  1.9138
 9870TIP3   OH251024   4.619   0.873  14.493 -0.2742 -0.3177  0.3169
 9870TIP3    H151025   4.612   0.950  14.550  0.3152 -1.7095  2.3774
 9870TIP3    H251026   4.533   0.866  14.452 -1.6120 -0.6318  2.9474
 9871TIP3   OH251027   2.793   5.125   2.760 -0.5451  0.0837  0.4622
 9871TIP3    H151028   2.839   5.158   2.837 -0.5488  0.4834  0.2933
 9871TIP3    H251029   2.749   5.045   2.791  0.1156 -0.2039  0.6664
 9872TIP3   OH251030   5.418   4.448  14.188 -0.5052  0.0772  0.3221
 9872TIP3    H151031   5.500   4.400  14.179  0.5583  1.3053  2.5993
 9872TIP3    H251032   5.436   4.533  14.148 -1.4772 -0.4316 -1.2562
 9873TIP3   OH251033   4.553   1.290   5.845  0.1408  0.5410  0.1566
 9873TIP3    H151034   4.630   1.307   5.790 -0.1364  0.4378 -0.2669
 9873TIP3    H251035   4.587   1.237   5.917  0.1174 -1.3129 -1.1156
 9874TIP3   OH251036   4.933   1.399  14.834  0.3118 -0.8274  0.5851
 9874TIP3    H151037   4.972   1.460  14.896  0.4100 -1.9638  1.6996
 9874TIP3    H251038   4.849   1.437  14.811 -1.0045 -1.6259  3.5988
 9875TIP3   OH251039   6.617   3.752   0.894  0.2624 -0.7966  0.5944
 9875TIP3    H151040   6.631   3.737   0.987 -1.5328 -0.5977  0.9338
 9875TIP3    H251041   6.578   3.839   0.889  2.6484  0.2888 -0.6020
 9876TIP3   OH251042   4.936   0.356   0.537  0.0649 -0.5354 -0.0914
 9876TIP3    H151043   4.920   0.263   0.519 -0.4756 -0.8902  1.9876
 9876TIP3    H251044   4.854   0.399   0.513  0.4528 -0.5099 -1.4443
 9877TIP3   OH251045   5.802   3.087   0.821 -0.2219 -0.3254  0.0494
 9877TIP3    H151046   5.820   3.151   0.752 -0.5502  1.0339  1.1666
 9877TIP3    H251047   5.731   3.033   0.786 -0.3869  0.3389 -0.6680
 9878TIP3   OH251048   2.873   6.596  11.784 -0.2265 -0.3508  0.0911
 9878TIP3    H151049   2.965   6.618  11.768 -1.3805  3.1385 -3.1539
 9878TIP3    H251050   2.858   6.517  11.733  1.1056 -1.5210  1.4238
 9879TIP3   OH251051   4.637   5.149   6.132 -0.0095  0.3995 -0.1778
 9879TIP3    H151052   4.674   5.082   6.188 -2.6535 -2.4600 -1.5190
 9879TIP3    H251053   4.563   5.184   6.181 -0.8008 -0.2969 -0.8457
 9880TIP3   OH251054   6.150   4.283   0.422 -0.5696 -0.4173  0.2916
 9880TIP3    H151055   6.186   4.342   0.488  1.3978 -1.2705  0.0557
 9880TIP3    H251056   6.192   4.309   0.340 -0.8968 -1.1237 -0.1158
 9881TIP3   OH251057   1.125   0.033  11.288 -0.0012  0.0887 -0.1242
 9881TIP3    H151058   1.031   0.045  11.274 -0.4876 -1.1029  1.7242
 9881TIP3    H251059   1.152  -0.028  11.220 -1.1503 -1.5029  0.7646
 9882TIP3   OH251060   3.303   3.186  14.750 -0.2188  0.3066 -0.1406
 9882TIP3    H151061   3.237   3.255  14.740 -0.6939 -0.2437 -0.8485
 9882TIP3    H251062   3.311   3.147  14.663 -0.0704 -0.6442  0.2834
 9883TIP3   OH251063   0.066   6.447  16.971  0.0881  0.4206 -0.0032
 9883TIP3    H151064   0.028   6.397  16.899 -0.4354 -0.1077  0.6229
 9883TIP3    H251065   0.008   6.522  16.982  0.4697  0.7948 -0.4709
 9884TIP3   OH251066   5.617   5.977  14.077 -0.0824  0.0018  0.5922
 9884TIP3    H151067   5.548   5.982  14.011 -1.1857  0.4131  1.7550
 9884TIP3    H251068   5.669   6.055  14.062  0.4869 -0.5745 -0.6316
 9885TIP3   OH251069   5.375   3.782   6.649 -0.4188  0.0127 -0.1531
 9885TIP3    H151070   5.335   3.858   6.607 -0.7779 -0.2556 -0.3092
 9885TIP3    H251071   5.465   3.808   6.666 -0.0914 -0.0459 -1.5976
 9886TIP3   OH251072   5.218   0.059  13.756  0.5708 -0.2619 -0.1603
 9886TIP3    H151073   5.251  -0.027  13.732  1.5297 -0.0644  0.3716
 9886TIP3    H251074   5.125   0.045  13.774  0.9292 -1.4157  0.9692
 9887TIP3   OH251075   2.561   2.788   5.342  0.0266 -0.4462  0.3593
 9887TIP3    H151076   2.494   2.728   5.375  0.6258 -1.9936 -1.1137
 9887TIP3    H251077   2.621   2.732   5.293  0.1610  1.4765 -1.8051
 9888TIP3   OH251078   5.234   3.501  12.559  0.0340  0.3047 -0.3770
 9888TIP3    H151079   5.270   3.558  12.491  0.3322 -0.4272 -0.8462
 9888TIP3    H251080   5.248   3.548  12.640  2.9740 -0.3557 -0.3973
 9889TIP3   OH251081   4.828   4.320  13.040  0.2963  0.5041 -0.0953
 9889TIP3    H151082   4.890   4.307  12.969 -1.4109  1.0364 -1.7835
 9889TIP3    H251083   4.750   4.271  13.014  0.4036 -1.3134  2.6218
 9890TIP3   OH251084   1.063   1.880  13.087  0.0080  0.0720 -0.2469
 9890TIP3    H151085   1.026   1.792  13.088  0.6000 -0.1762  0.4242
 9890TIP3    H251086   1.109   1.888  13.171  0.8349  0.6368 -0.7346
 9891TIP3   OH251087   5.649   0.596  12.006 -0.2468 -0.5817  0.1944
 9891TIP3    H151088   5.613   0.580  11.919  2.2942 -0.1673 -1.0209
 9891TIP3    H251089   5.611   0.679  12.033  0.1633  0.1170 -1.2629
 9892TIP3   OH251090   1.884   2.710   1.024 -0.7233 -0.6485  0.2230
 9892TIP3    H151091   1.934   2.724   1.104  0.8326  0.3261 -0.8549
 9892TIP3    H251092   1.908   2.621   0.997  3.8743  1.0534 -2.3850
 9893TIP3   OH251093   4.825   6.238  14.328 -0.2199  0.2714 -0.1898
 9893TIP3    H151094   4.870   6.198  14.402  2.4076  1.8867 -0.8084
 9893TIP3    H251095   4.749   6.281  14.367 -0.1719 -0.8252  1.1967
 9894TIP3   OH251096   0.940   6.523  16.524 -0.4515 -0.4221  0.5538
 9894TIP3    H151097   0.973   6.440  16.558  2.6819  0.9057  1.1523
 9894TIP3    H251098   0.920   6.575  16.602  0.2050  0.2840  0.2645
 9895TIP3   OH251099   6.583   6.273   1.285  0.5205  0.4387 -0.6422
 9895TIP3    H151100   6.678   6.275   1.286  0.6567 -2.0361  1.5252
 9895TIP3    H251101   6.560   6.272   1.192  2.4942  2.1416 -1.2254
 9896TIP3   OH251102   6.771   2.487  15.411  0.8851 -0.2047 -0.1907
 9896TIP3    H151103   6.781   2.564  15.356 -0.5568 -0.0975 -0.3512
 9896TIP3    H251104   6.859   2.452  15.422  1.3269  0.4259 -1.6150
 9897TIP3   OH251105   1.746   1.222   4.041  0.1125 -0.6446 -0.1865
 9897TIP3    H151106   1.841   1.213   4.052  0.1282 -0.4771 -0.1725
 9897TIP3    H251107   1.733   1.224   3.946  0.3549  1.5042 -0.2312
 9898TIP3   OH251108   4.409   5.844  13.804  0.2434  0.0612 -0.6666
 9898TIP3    H151109   4.414   5.758  13.845  0.0685  0.0298 -0.7094
 9898TIP3    H251110   4.355   5.831  13.726  2.0146 -0.2600 -1.8964
 9899TIP3   OH251111   2.456   0.069  11.715  0.1389  0.1876  0.2746
 9899TIP3    H151112   2.495  -0.016  11.696 -1.0660 -0.1956 -0.5652
 9899TIP3    H251113   2.494   0.128  11.651  2.1114  0.6648  1.7739
 9900TIP3   OH251114   6.116   0.936  11.818 -0.3794  0.1653 -0.0132
 9900TIP3    H151115   6.150   0.854  11.855  0.4721  0.5544  0.0917
 9900TIP3    H251116   6.121   0.999  11.890  1.0427  0.8573 -0.6827
 9901TIP3   OH251117   4.431   4.895   4.356 -0.1685  0.2974 -0.0121
 9901TIP3    H151118   4.337   4.881   4.342 -0.0294 -3.9422  1.7551
 9901TIP3    H251119   4.436   4.934   4.443 -0.3098  0.2278  0.0289
 9902TIP3   OH251120   5.704   1.558  12.868  0.1705  0.5895  0.5188
 9902TIP3    H151121   5.757   1.487  12.829  1.2164  1.4501  0.3358
 9902TIP3    H251122   5.688   1.529  12.958 -0.9324 -0.6936 -0.0438
 9903TIP3   OH251123   3.028   3.852  14.363 -0.1710 -0.8269  0.5021
 9903TIP3    H151124   3.018   3.904  14.283 -0.7741  0.7525  1.5711
 9903TIP3    H251125   2.950   3.796  14.365 -0.2869 -0.6802  0.1193
 9904TIP3   OH251126   5.473   2.040   1.553  0.2186  0.0476  0.2334
 9904TIP3    H151127   5.476   2.112   1.490 -0.8946 -1.8858 -2.2141
 9904TIP3    H251128   5.395   1.991   1.530  0.6188 -1.6529  2.1788
 9905TIP3   OH251129   4.775   1.400   4.336 -0.0045  0.4871 -0.7886
 9905TIP3    H151130   4.775   1.337   4.408  0.2256  1.2411 -0.1099
 9905TIP3    H251131   4.717   1.470   4.366  0.2764  0.9152 -1.2305
 9906TIP3   OH251132   3.973   0.346   0.077  0.0141  0.6291  0.1471
 9906TIP3    H151133   3.898   0.379   0.126 -0.6288 -2.2117  1.3030
 9906TIP3    H251134   3.941   0.335  -0.012 -1.1531 -0.9677  0.7266
 9907TIP3   OH251135   6.194   0.732   2.424 -0.3987 -0.5985 -0.4270
 9907TIP3    H151136   6.188   0.809   2.367 -0.6459 -0.2718  0.0259
 9907TIP3    H251137   6.114   0.683   2.407  0.1545 -1.2227 -1.3506
 9908TIP3   OH251138   5.483   1.799   2.777 -0.9259 -0.6002 -0.0397
 9908TIP3    H151139   5.455   1.877   2.729 -1.5188 -1.4109 -1.0406
 9908TIP3    H251140   5.465   1.820   2.869 -0.7749  0.5585 -0.2591
 9909TIP3   OH251141   1.801   2.162   1.021 -0.0155  0.0725  0.1955
 9909TIP3    H151142   1.713   2.125   1.016 -0.5933  1.2487  0.9906
 9909TIP3    H251143   1.850   2.102   1.078  0.0356 -1.1667 -1.1162
 9910TIP3   OH251144   1.161   1.623   3.701 -0.3353 -0.0653  0.4836
 9910TIP3    H151145   1.155   1.668   3.785 -0.1789  2.1968 -0.6521
 9910TIP3    H251146   1.247   1.581   3.702 -0.0996  0.4177  1.2338
 9911TIP3   OH251147   3.527   3.875   5.202  0.7219  0.1776  0.3078
 9911TIP3    H151148   3.529   3.825   5.283  1.1131  0.4971  0.5003
 9911TIP3    H251149   3.619   3.894   5.183  0.6447 -0.0517 -0.3073
 9912TIP3   OH251150   0.908   3.982  16.868 -0.3468  0.0671 -0.0979
 9912TIP3    H151151   0.952   3.963  16.785 -4.2088 -0.6152 -2.2084
 9912TIP3    H251152   0.941   4.068  16.894  3.0745 -0.8968 -0.6742
 9913TIP3   OH251153   6.483   6.644   2.098  0.2008  0.4470  0.0782
 9913TIP3    H151154   6.418   6.709   2.070  1.6790  1.7022 -0.6041
 9913TIP3    H251155   6.489   6.583   2.024 -0.5127  0.0560  0.3332
 9914TIP3   OH251156   2.930   3.584  13.603 -0.0645 -0.3063  0.2219
 9914TIP3    H151157   2.881   3.652  13.555 -0.2984  0.7572  1.9010
 9914TIP3    H251158   3.009   3.629  13.633 -0.6340 -0.4902  2.1104
 9915TIP3   OH251159   5.822   6.298   5.392 -0.1944  1.1734  0.0297
 9915TIP3    H151160   5.833   6.319   5.485 -0.7766 -0.3179  0.4637
 9915TIP3    H251161   5.728   6.308   5.376 -0.1067  1.3563 -0.4013
 9916TIP3   OH251162   1.478   6.070  15.894  0.2512 -0.7249 -0.5000
 9916TIP3    H151163   1.522   6.150  15.923  1.8863 -1.7649  0.0465
 9916TIP3    H251164   1.424   6.043  15.968 -1.4404  0.5897 -1.1928
 9917TIP3   OH251165   1.718   5.899   0.260 -0.7096  0.6107  0.1851
 9917TIP3    H151166   1.629   5.927   0.283 -0.8807 -0.3988  0.7820
 9917TIP3    H251167   1.763   5.980   0.237 -2.4035  0.9524 -2.3496
 9918TIP3   OH251168   4.243   1.760   2.137 -0.2499  0.6583  0.0454
 9918TIP3    H151169   4.244   1.701   2.062 -1.1747 -2.1531  2.0922
 9918TIP3    H251170   4.153   1.791   2.142 -1.0303 -1.6160  1.6567
 9919TIP3   OH251171   0.829   1.888  17.008 -0.3174 -0.8827  0.0741
 9919TIP3    H151172   0.809   1.796  17.025 -0.4067 -1.3516 -2.3056
 9919TIP3    H251173   0.917   1.901  17.045  0.2821 -2.3223 -0.7580
 9920TIP3   OH251174   3.861   3.721   4.320 -0.1926  0.0485 -0.0465
 9920TIP3    H151175   3.908   3.689   4.398 -0.4891  0.6556  0.3892
 9920TIP3    H251176   3.771   3.731   4.350 -0.2528  0.5424 -0.3952
 9921TIP3   OH251177   3.469   1.669   3.079 -0.0262  0.2912 -0.2503
 9921TIP3    H151178   3.376   1.664   3.100 -0.2587  0.5213 -1.1905
 9921TIP3    H251179   3.511   1.610   3.141 -0.8248  0.0192  0.0361
 9922TIP3   OH251180   5.941   3.100   0.495  0.1364  0.1913 -0.7702
 9922TIP3    H151181   5.968   3.020   0.449  2.0357 -0.5197  1.3791
 9922TIP3    H251182   6.019   3.156   0.493 -0.4694  1.0700 -0.3533
 9923TIP3   OH251183   3.025   2.304   2.308  0.1553  0.1971  0.2121
 9923TIP3    H151184   2.956   2.335   2.366 -0.3555 -0.6151  0.0553
 9923TIP3    H251185   2.991   2.320   2.219 -0.8211 -2.1208  0.0747
 9924TIP3   OH251186   4.155   6.178   2.490 -0.1918  0.0050  0.0947
 9924TIP3    H151187   4.071   6.184   2.535 -0.5728  0.0060 -0.6067
 9924TIP3    H251188   4.197   6.101   2.530 -0.7775 -0.3547  0.0352
 9925TIP3   OH251189   2.047   5.047  14.474 -0.8982  0.8058 -0.1014
 9925TIP3    H151190   2.049   4.997  14.555 -2.8237 -2.5694 -1.9063
 9925TIP3    H251191   2.095   5.127  14.494  2.7668 -1.7948  3.0540
 9926TIP3   OH251192   3.242   2.359   1.781  0.4108  0.3370  0.1804
 9926TIP3    H151193   3.229   2.388   1.691  0.6109  0.9796  0.3534
 9926TIP3    H251194   3.178   2.288   1.793 -1.8229  2.2903  0.4901
 9927TIP3   OH251195   6.317   4.963  12.513 -0.0266  0.3406 -0.4845
 9927TIP3    H151196   6.295   4.892  12.574  0.3115  0.0645 -0.6804
 9927TIP3    H251197   6.278   5.041  12.553 -0.1724  0.0916 -0.1292
 9928TIP3   OH251198   0.030   0.841  15.635 -0.2425 -0.1112 -0.0193
 9928TIP3    H151199  -0.002   0.770  15.580 -2.1736  1.1017 -0.5831
 9928TIP3    H251200  -0.034   0.911  15.623  0.3936  0.9510  2.2117
 9929TIP3   OH251201   4.483   2.837   4.595  0.1842 -0.0791  0.6839
 9929TIP3    H151202   4.564   2.884   4.575 -1.2593  2.4855  0.5003
 9929TIP3    H251203   4.488   2.758   4.542  2.1328  0.4512 -0.0269
 9930TIP3   OH251204   0.783   3.645   3.984  0.4642  0.7059  0.2406
 9930TIP3    H151205   0.707   3.687   4.027  1.0352 -0.0052  2.0462
 9930TIP3    H251206   0.845   3.716   3.970  0.0606  1.0392  0.1252
 9931TIP3   OH251207   4.066   6.594  15.160 -0.2754 -0.0404  0.2100
 9931TIP3    H151208   4.045   6.501  15.145  0.4644 -0.5961  2.3153
 9931TIP3    H251209   3.985   6.631  15.195 -0.3307 -0.0770  0.1213
 9932TIP3   OH251210   5.947   4.437  14.231  0.3836 -0.4077 -0.2494
 9932TIP3    H151211   6.011   4.367  14.233 -0.5894 -1.3259 -0.1714
 9932TIP3    H251212   5.998   4.516  14.214  1.6456 -0.9450  0.8727
 9933TIP3   OH251213   1.888   2.048   3.320 -1.2230  0.1812 -0.0073
 9933TIP3    H151214   1.894   1.953   3.316  0.9601  0.2957 -0.2988
 9933TIP3    H251215   1.896   2.069   3.413 -1.7277  0.0940  0.0592
 9934TIP3   OH251216   0.498   0.308  15.301 -0.7846  0.4359  0.6590
 9934TIP3    H151217   0.502   0.383  15.360 -1.0462  0.5126  0.5834
 9934TIP3    H251218   0.404   0.295  15.286 -0.7040  0.6994 -0.0941
 9935TIP3   OH251219   4.483   3.329   0.475  0.9885  0.6080  0.6366
 9935TIP3    H151220   4.492   3.260   0.410 -1.2132  0.8280 -0.0090
 9935TIP3    H251221   4.491   3.285   0.559 -0.0796 -0.4272  0.2281
 9936TIP3   OH251222   4.605   4.005   5.115  0.5634 -0.2242 -0.3981
 9936TIP3    H151223   4.593   3.913   5.089  0.1776 -0.0721 -0.7763
 9936TIP3    H251224   4.687   4.031   5.075  1.9143 -1.0804  1.6416
 9937TIP3   OH251225   5.297   5.555   5.404  0.0759 -0.1351  0.2283
 9937TIP3    H151226   5.251   5.638   5.393  0.7564  0.1038 -0.9927
 9937TIP3    H251227   5.228   5.491   5.418 -0.5512  0.4230 -0.2190
 9938TIP3   OH251228   0.660   1.988   1.307  0.4294  0.1303 -0.0672
 9938TIP3    H151229   0.739   1.959   1.261 -1.0062 -4.1772 -0.2570
 9938TIP3    H251230   0.590   1.977   1.243 -0.8865 -0.4692  1.4117
 9939TIP3   OH251231   1.526   4.590  13.717  0.0920  0.0189 -0.0021
 9939TIP3    H151232   1.609   4.561  13.681  1.0462  1.6254  0.7935
 9939TIP3    H251233   1.484   4.639  13.646 -0.1387 -0.6642 -0.3525
 9940TIP3   OH251234   2.580   0.900  13.598  0.3165  0.6489  0.5970
 9940TIP3    H151235   2.597   0.947  13.680 -1.7274 -1.0273  2.1029
 9940TIP3    H251236   2.597   0.808  13.619 -1.1864  0.0628 -0.5355
 9941TIP3   OH251237   5.440   5.010   2.260  0.2701  0.0091 -0.2014
 9941TIP3    H151238   5.414   5.078   2.322  1.2499 -0.4347  0.7099
 9941TIP3    H251239   5.530   5.031   2.237  0.6294 -1.0452  0.1949
 9942TIP3   OH251240   0.110   2.300  15.056 -0.3504 -0.4570  0.0178
 9942TIP3    H151241   0.096   2.244  15.132  0.1711  0.4860  0.8211
 9942TIP3    H251242   0.174   2.252  15.003  2.4318  0.6608  2.1481
 9943TIP3   OH251243   2.470   6.800   4.926  0.2092  0.0022 -0.6066
 9943TIP3    H151244   2.472   6.892   4.953  1.2091  0.3531 -1.7719
 9943TIP3    H251245   2.380   6.772   4.945 -0.0698  1.1609 -0.0764
 9944TIP3   OH251246   3.245   5.112   0.233 -0.2451  0.1398  0.1791
 9944TIP3    H151247   3.198   5.094   0.315 -0.5453  1.3508  0.2836
 9944TIP3    H251248   3.278   5.201   0.242 -0.0885  0.2126 -0.9287
 9945TIP3   OH251249   6.696   3.708   2.429 -0.0088 -0.8219  0.1961
 9945TIP3    H151250   6.775   3.676   2.386  0.1847  2.0168 -1.8153
 9945TIP3    H251251   6.728   3.748   2.510  1.1719  2.7376 -1.8516
 9946TIP3   OH251252   5.257   2.364   3.966 -0.1261  0.2237  0.0915
 9946TIP3    H151253   5.220   2.418   3.897  0.1643  0.1508 -0.1220
 9946TIP3    H251254   5.259   2.421   4.043 -0.6950  0.2227  0.1100
 9947TIP3   OH251255   3.412   3.684  15.957  0.1736 -0.5123 -0.4871
 9947TIP3    H151256   3.323   3.680  15.923 -0.0307 -1.6892  0.1528
 9947TIP3    H251257   3.415   3.767  16.005  0.1039  0.5826 -2.3040
 9948TIP3   OH251258   6.472   6.760   1.458  0.5870 -0.4988  0.1784
 9948TIP3    H151259   6.486   6.674   1.498 -0.6535 -0.2531  1.2335
 9948TIP3    H251260   6.416   6.742   1.382  2.0124 -0.8319 -0.8398
 9949TIP3   OH251261   1.991   6.312   1.277 -0.7331 -0.1298  0.3380
 9949TIP3    H151262   2.011   6.363   1.199  1.7114 -0.8242  0.4353
 9949TIP3    H251263   2.022   6.366   1.350  0.2920 -0.9891  0.5577
 9950TIP3   OH251264   4.586   1.146  16.480 -0.4097 -0.7273 -0.1663
 9950TIP3    H151265   4.538   1.080  16.530  0.2507 -0.2700  1.1268
 9950TIP3    H251266   4.634   1.196  16.546  0.2515  0.1154 -1.2414
 9951TIP3   OH251267   1.510   6.774  11.665 -0.3158  0.3091  0.1436
 9951TIP3    H151268   1.487   6.857  11.706 -1.3642 -0.8544  2.0508
 9951TIP3    H251269   1.458   6.772  11.585  0.3171  1.7977 -0.3395
 9952TIP3   OH251270   4.303   0.687   5.070 -0.1772 -0.0945 -0.7426
 9952TIP3    H151271   4.298   0.764   5.014  0.4827  0.0272 -0.6396
 9952TIP3    H251272   4.349   0.621   5.017  1.2449  0.3070 -0.0494
 9953TIP3   OH251273   0.699   6.699  15.475  0.3701  0.3242 -0.6376
 9953TIP3    H151274   0.689   6.772  15.536  0.4216 -0.0691 -0.1570
 9953TIP3    H251275   0.718   6.741  15.391  0.9954  0.8422 -0.2460
 9954TIP3   OH251276   3.734   2.598   3.082 -0.0794  0.3785 -0.4577
 9954TIP3    H151277   3.742   2.693   3.089 -0.1197  0.3214  0.3701
 9954TIP3    H251278   3.811   2.572   3.032  0.7911  0.6808  0.6827
 9955TIP3   OH251279   0.012   2.325  16.743 -0.0487 -0.5867  0.0137
 9955TIP3    H151280   0.073   2.254  16.760 -0.2399 -0.9628 -0.8548
 9955TIP3    H251281   0.043   2.366  16.662  0.1968  0.4810  0.6186
 9956TIP3   OH251282   0.301   1.987   6.539  0.2741 -0.3909  0.1929
 9956TIP3    H151283   0.384   2.007   6.496 -0.1591 -0.6018 -0.7727
 9956TIP3    H251284   0.324   1.970   6.630  1.4335 -1.5241 -0.2871
 9957TIP3   OH251285   1.758   5.486  12.505 -0.3834 -0.4122  0.5196
 9957TIP3    H151286   1.750   5.575  12.539 -0.8499 -0.4862  0.6048
 9957TIP3    H251287   1.843   5.456  12.538 -0.2296 -0.0056  0.5003
 9958TIP3   OH251288   3.857   3.551  15.435  0.2238  0.1752  0.2766
 9958TIP3    H151289   3.840   3.553  15.341 -1.7483  0.0950  0.5886
 9958TIP3    H251290   3.773   3.527  15.474  1.4482 -1.6674  1.9674
 9959TIP3   OH251291   6.669   2.257   2.809 -0.1341  0.4097 -0.1166
 9959TIP3    H151292   6.594   2.250   2.867  0.4550 -0.6507  0.5377
 9959TIP3    H251293   6.741   2.285   2.866 -0.1887  2.2566 -0.8818
 9960TIP3   OH251294   4.490   4.868   3.420  0.0604 -0.3215 -0.3803
 9960TIP3    H151295   4.433   4.878   3.496  1.9745  0.2374  1.0686
 9960TIP3    H251296   4.520   4.777   3.423  2.4005  0.3989  1.3491
 9961TIP3   OH251297   5.552   4.571   1.155  0.0363  0.1321 -0.0597
 9961TIP3    H151298   5.632   4.552   1.107  1.1999  2.0785  1.0237
 9961TIP3    H251299   5.495   4.613   1.091  0.5589  0.3346 -0.3964
 9962TIP3   OH251300   4.483   2.982   0.781 -0.4208 -0.3995 -0.1271
 9962TIP3    H151301   4.533   2.950   0.706 -0.7259  0.9185 -0.9120
 9962TIP3    H251302   4.487   3.077   0.775 -2.9897 -0.2182 -0.2273
 9963TIP3   OH251303   5.366   1.608   3.373 -0.2753  0.1925 -0.1657
 9963TIP3    H151304   5.393   1.687   3.420 -1.1517  0.6450 -0.4067
 9963TIP3    H251305   5.315   1.640   3.298 -1.7050 -0.6314  0.4163
 9964TIP3   OH251306   0.114   3.624   4.750  0.0421  0.8254 -0.2884
 9964TIP3    H151307   0.060   3.684   4.699  0.3187 -0.3577 -2.0457
 9964TIP3    H251308   0.057   3.549   4.766  0.2396  0.8209  0.4560
 9965TIP3   OH251309   5.212   2.084   3.956  0.3877  0.2331  0.0103
 9965TIP3    H151310   5.230   2.177   3.969  0.0705  0.0580  1.9785
 9965TIP3    H251311   5.150   2.062   4.025 -2.7730 -0.5793 -2.8365
 9966TIP3   OH251312   1.440   5.301  15.936  0.5353  0.2123 -0.0170
 9966TIP3    H151313   1.523   5.327  15.896  0.2220 -1.5355 -1.9695
 9966TIP3    H251314   1.393   5.383  15.949  2.0558  1.1248 -0.0526
 9967TIP3   OH251315   2.788   4.403  12.395 -0.1764 -0.3929 -0.2329
 9967TIP3    H151316   2.728   4.453  12.449  0.3340  1.2074 -1.0951
 9967TIP3    H251317   2.751   4.314  12.394 -1.3529  0.0609  0.9410
 9968TIP3   OH251318   1.889   1.444  16.823 -0.1473 -0.5996  0.1278
 9968TIP3    H151319   1.861   1.409  16.738 -0.9961 -0.3037  0.2798
 9968TIP3    H251320   1.959   1.505  16.801 -1.2419  0.4716 -0.5061
 9969TIP3   OH251321   4.206   0.914  16.004 -0.3158 -0.1310  0.2461
 9969TIP3    H151322   4.161   0.930  15.921  2.2205 -0.3153 -1.2536
 9969TIP3    H251323   4.234   0.822  15.999  0.3344  0.0066  1.0733
 9970TIP3   OH251324   3.026   6.760   2.183  0.0135  0.0832  0.0106
 9970TIP3    H151325   3.019   6.842   2.134  2.1276  0.1128 -0.3143
 9970TIP3    H251326   3.056   6.786   2.270 -1.0643 -0.2100  0.4814
 9971TIP3   OH251327   5.350   3.320   1.052 -0.0615  0.2014  0.3059
 9971TIP3    H151328   5.285   3.334   1.121  0.2013  1.2297  0.3714
 9971TIP3    H251329   5.299   3.297   0.975 -0.4107 -0.2345  0.6607
 9972TIP3   OH251330   6.529   3.085  11.601 -0.2596 -0.4939  0.3212
 9972TIP3    H151331   6.562   3.092  11.511  2.6968 -2.3299  1.0978
 9972TIP3    H251332   6.522   3.175  11.631 -0.7189  0.1302 -1.5326
 9973TIP3   OH251333   2.804   0.363  11.504 -0.8258  0.3431  0.1131
 9973TIP3    H151334   2.744   0.415  11.558 -0.7049  0.8042 -0.1870
 9973TIP3    H251335   2.889   0.406  11.516 -0.4094 -0.6972  1.0534
 9974TIP3   OH251336   5.059   4.854  15.484  0.4332  0.1598 -0.2107
 9974TIP3    H151337   5.002   4.807  15.424 -0.3858  0.4797  0.2982
 9974TIP3    H251338   5.141   4.864  15.437  0.1668 -0.5663 -0.8452
 9975TIP3   OH251339   3.634   2.435   5.968  0.5941  0.0581  0.5182
 9975TIP3    H151340   3.583   2.354   5.965  2.7972 -1.4329  0.9697
 9975TIP3    H251341   3.586   2.496   5.912  0.0684 -2.3147 -1.8083
 9976TIP3   OH251342   2.430   6.092  13.781 -0.0764  0.5490 -0.0868
 9976TIP3    H151343   2.469   6.065  13.864  3.2414 -2.7416 -2.4362
 9976TIP3    H251344   2.343   6.052  13.781  0.2745 -0.2568  1.3618
 9977TIP3   OH251345   0.293   3.100   2.346  0.4499  0.0342 -0.1883
 9977TIP3    H151346   0.252   3.019   2.315  0.1237  0.0293  0.2445
 9977TIP3    H251347   0.386   3.088   2.329  0.5337 -0.8674  0.8267
 9978TIP3   OH251348   6.267   3.701  11.852 -0.1527  0.0587 -0.6252
 9978TIP3    H151349   6.194   3.720  11.912  0.3589 -1.5787  0.5851
 9978TIP3    H251350   6.279   3.782  11.802 -0.3158  1.6550  1.7869
 9979TIP3   OH251351   2.186   6.202   4.410  0.1989  0.1423  0.2910
 9979TIP3    H151352   2.159   6.187   4.501 -0.9194 -0.0550 -0.0691
 9979TIP3    H251353   2.224   6.118   4.383  0.6984  0.2545  0.6207
 9980TIP3   OH251354   0.044   0.700   2.850 -0.1497  0.0205 -0.0465
 9980TIP3    H151355   0.137   0.719   2.848  0.1847 -1.4576  0.0756
 9980TIP3    H251356   0.019   0.692   2.758 -0.0378 -0.0903 -0.0676
 9981TIP3   OH251357   5.157   0.580   6.218 -0.1159 -0.2360  0.5345
 9981TIP3    H151358   5.119   0.516   6.278 -0.1532 -1.2031 -0.5018
 9981TIP3    H251359   5.092   0.590   6.149 -0.3326  1.3078  0.9082
 9982TIP3   OH251360   2.582   0.982  14.457  0.1658  0.5411 -0.6736
 9982TIP3    H151361   2.628   0.952  14.379  2.0505  0.4895  0.4146
 9982TIP3    H251362   2.525   0.909  14.481 -0.4127  0.5439 -1.9438
 9983TIP3   OH251363   4.264   4.383  15.787  0.6716  0.3818 -0.3721
 9983TIP3    H151364   4.211   4.412  15.861  0.1949  0.0283 -0.5758
 9983TIP3    H251365   4.330   4.452  15.777  1.2315  0.0653  0.8636
 9984TIP3   OH251366   2.414   6.237  14.263  0.0677 -0.1707 -0.0424
 9984TIP3    H151367   2.426   6.146  14.234 -2.9113 -0.3984 -0.9355
 9984TIP3    H251368   2.488   6.253  14.321  2.8132 -1.8602 -2.7310
 9985TIP3   OH251369   3.770   2.167   2.841  0.0928  0.5833 -0.2564
 9985TIP3    H151370   3.717   2.226   2.787 -0.2827 -0.4758 -1.0888
 9985TIP3    H251371   3.779   2.212   2.925 -2.3920  0.6901  0.0392
 9986TIP3   OH251372   5.890   4.106  14.696  0.2734 -0.2300  0.2329
 9986TIP3    H151373   5.942   4.161  14.755  0.6924  1.0015 -1.1879
 9986TIP3    H251374   5.930   4.121  14.610 -0.3189 -1.9406 -0.3725
 9987TIP3   OH251375   6.223   4.487  12.565 -0.2145 -0.6324 -0.0900
 9987TIP3    H151376   6.154   4.454  12.622 -0.0348 -1.9614 -0.6077
 9987TIP3    H251377   6.180   4.501  12.481  0.2398 -2.1303 -0.6148
 9988TIP3   OH251378   6.073   5.925  14.753  0.2927 -0.3203 -0.4431
 9988TIP3    H151379   6.003   5.879  14.800 -0.4501  0.2526 -0.9694
 9988TIP3    H251380   6.066   6.016  14.782  2.3854 -0.6505  1.3443
 9989TIP3   OH251381   2.316   1.031  14.724 -0.0166 -0.3565  0.0478
 9989TIP3    H151382   2.319   0.950  14.673 -0.0586 -0.0526 -0.4400
 9989TIP3    H251383   2.343   1.004  14.812 -1.1217 -1.1200  0.1788
 9990TIP3   OH251384   2.590   1.478   6.511 -0.0813 -0.0284  0.2960
 9990TIP3    H151385   2.496   1.499   6.508 -0.2987 -1.0919 -1.2167
 9990TIP3    H251386   2.631   1.558   6.544 -1.1766  1.8111 -2.4782
 9991TIP3   OH251387   6.255   3.406   5.383 -0.3876 -0.0452 -0.5343
 9991TIP3    H151388   6.176   3.357   5.363 -0.4373 -0.2262  0.0725
 9991TIP3    H251389   6.318   3.340   5.413 -0.2658  0.1864 -0.2701
 9992TIP3   OH251390   3.136   6.658  11.801  0.1750 -0.4100  0.1016
 9992TIP3    H151391   3.229   6.635  11.806 -0.0920 -1.9651 -1.2099
 9992TIP3    H251392   3.121   6.713  11.878  1.8353 -1.3619  1.1790
 9993TIP3   OH251393   2.916   5.550  16.496 -0.3525 -0.0217  0.3564
 9993TIP3    H151394   2.941   5.518  16.409  1.3087 -0.5902  0.9969
 9993TIP3    H251395   2.947   5.482  16.556 -1.5706  0.3089  1.3945
 9994TIP3   OH251396   5.908   0.436   6.278 -0.3499  0.5425  0.1069
 9994TIP3    H151397   5.818   0.411   6.258  0.2847 -2.4555  0.5097
 9994TIP3    H251398   5.949   0.355   6.309  2.8025  1.4972 -1.1695
 9995TIP3   OH251399   3.819   2.873   1.937  0.8316 -0.0929 -0.5857
 9995TIP3    H151400   3.855   2.803   1.991 -0.8206  1.5309  2.9453
 9995TIP3    H251401   3.724   2.867   1.949  0.5934  2.2303 -0.8159
 9996TIP3   OH251402   4.710   0.234   2.443 -0.4730 -0.3741 -0.1790
 9996TIP3    H151403   4.638   0.269   2.391 -0.4642  1.0304  0.7191
 9996TIP3    H251404   4.672   0.216   2.529  0.3914  1.1842  0.5697
 9997TIP3   OH251405   6.333   2.724   4.974  0.1050 -0.0853 -0.1584
 9997TIP3    H151406   6.281   2.673   5.036  0.5201 -0.4706 -0.1199
 9997TIP3    H251407   6.417   2.678   4.970  0.1382  0.0242 -0.8787
 9998TIP3   OH251408   3.153   3.663  13.931  0.9892  0.6754 -0.1569
 9998TIP3    H151409   3.147   3.700  14.019 -1.7393  0.5963 -0.2195
 9998TIP3    H251410   3.124   3.734  13.873  0.4673 -0.0100 -0.7516
 9999TIP3   OH251411   2.100   5.061  13.524 -0.1508  0.2278 -0.3113
 9999TIP3    H151412   2.117   5.033  13.435  0.0291  4.1621 -1.7273
 9999TIP3    H251413   2.016   5.107  13.519  0.4819  1.6649  1.1728
10000TIP3   OH251414   6.247   4.954   3.463  0.1995  0.0829  0.4318
10000TIP3    H151415   6.262   5.048   3.471  2.1832 -0.2103  0.5781
10000TIP3    H251416   6.303   4.926   3.390  1.5626 -1.3468  1.9231
10001TIP3   OH251417   5.896   3.516   2.244 -0.0956  0.1091  0.5149
10001TIP3    H151418   5.820   3.509   2.302 -0.5800  0.1268 -0.1099
10001TIP3    H251419   5.906   3.428   2.206  0.5734 -0.0560  1.0558
10002TIP3   OH251420   5.232   0.334   5.947  0.5753  0.6600 -0.3144
10002TIP3    H151421   5.238   0.263   5.883 -0.4237 -0.4568  0.8011
10002TIP3    H251422   5.254   0.294   6.031 -2.2926  1.0330  0.7323
10003TIP3   OH251423   0.157   3.833  16.147  0.5526  0.0084 -0.4007
10003TIP3    H151424   0.111   3.899  16.199  1.3343 -1.4081  2.2484
10003TIP3    H251425   0.246   3.833  16.181  1.2718 -0.6327 -2.1637
10004TIP3   OH251426   4.453   1.815   6.442 -0.6702 -0.0901  0.4934
10004TIP3    H151427   4.547   1.805   6.428 -0.9259  1.1464 -2.8697
10004TIP3    H251428   4.419   1.726   6.444  0.3554 -0.5087 -0.1387
10005TIP3   OH251429   5.508   4.154  12.685 -0.3389  0.4605  0.6682
10005TIP3    H151430   5.419   4.188  12.688 -0.9543 -1.0441  0.6141
10005TIP3    H251431   5.497   4.061  12.662  1.2382  0.2430  0.6910
10006TIP3   OH251432   5.384   0.220  14.128 -0.2916  0.0040  0.2765
10006TIP3    H151433   5.477   0.242  14.125 -1.0204  3.6138 -0.0638
10006TIP3    H251434   5.363   0.194  14.038  0.2355 -0.0267  0.1563
10007TIP3   OH251435   2.097   4.297   2.118  0.1162  0.1930 -0.5498
10007TIP3    H151436   2.160   4.225   2.112 -0.4889 -0.2837 -1.3392
10007TIP3    H251437   2.094   4.317   2.212  1.0965 -0.0774 -0.4425
10008TIP3   OH251438   5.024   4.900   2.229  0.4655  0.4693 -0.0383
10008TIP3    H151439   4.950   4.878   2.286  0.5819  0.9816  0.3167
10008TIP3    H251440   5.036   4.994   2.241  1.5972  0.2813  0.4074
10009TIP3   OH251441   1.717   3.325   1.536 -0.0405  0.9100  0.2956
10009TIP3    H151442   1.763   3.399   1.578  2.3549 -0.6912  0.6997
10009TIP3    H251443   1.688   3.271   1.609 -0.8920  0.9264 -0.0225
10010TIP3   OH251444   3.596   6.191  14.967 -0.2296 -0.8280 -0.2141
10010TIP3    H151445   3.558   6.110  15.001 -0.7051 -0.3284  0.4820
10010TIP3    H251446   3.689   6.173  14.959  0.6355  0.0643  4.7904
10011TIP3   OH251447   1.753   5.651   4.907  0.6614  0.6291  0.6517
10011TIP3    H151448   1.817   5.647   4.979  1.3225  2.2365  0.2028
10011TIP3    H251449   1.705   5.733   4.922 -1.8826 -0.9038  1.4012
10012TIP3   OH251450   1.128   2.361   4.197  0.2992  0.6791 -0.7827
10012TIP3    H151451   1.046   2.393   4.160  1.2726  0.6416 -3.1690
10012TIP3    H251452   1.194   2.381   4.130  2.6515  2.5655  1.8378
10013TIP3   OH251453   6.105   2.854  16.271  0.5612 -0.7826  0.0744
10013TIP3    H151454   6.012   2.838  16.289  0.2400 -1.2748 -1.7689
10013TIP3    H251455   6.116   2.827  16.180  2.0523  1.1719 -0.3968
10014TIP3   OH251456   4.929   2.694   4.354 -0.3707  0.1043  0.0937
10014TIP3    H151457   4.897   2.649   4.276  0.1568 -1.1332  0.5782
10014TIP3    H251458   4.858   2.753   4.378 -1.8788 -1.7823  0.5025
10015TIP3   OH251459   5.121   2.839  13.171 -0.0645  0.4373  0.3790
10015TIP3    H151460   5.117   2.930  13.140 -3.6903  0.3657  0.1815
10015TIP3    H251461   5.068   2.791  13.108 -1.5491 -1.0744  2.6532
10016TIP3   OH251462   1.104   6.686  13.919  0.2606 -0.1265  0.5140
10016TIP3    H151463   1.171   6.742  13.958  2.7750 -2.5035 -0.0506
10016TIP3    H251464   1.100   6.715  13.827  0.5132  0.0226  0.5482
10017TIP3   OH251465   2.698   2.959  12.115  0.0117 -0.1607  0.2351
10017TIP3    H151466   2.776   2.930  12.067 -0.2033 -1.2139  0.4980
10017TIP3    H251467   2.703   3.054  12.112  1.6606 -0.1919  0.8154
10018TIP3   OH251468   1.723   1.588  16.564 -0.0294  0.1689 -0.1469
10018TIP3    H151469   1.781   1.527  16.518  1.7341  0.8355  1.0818
10018TIP3    H251470   1.668   1.625  16.495 -0.7191 -2.2827 -1.0181
10019TIP3   OH251471   6.434   5.915  14.071 -0.0826 -0.1329  0.2445
10019TIP3    H151472   6.383   5.837  14.092  0.3900 -1.0810 -1.8202
10019TIP3    H251473   6.517   5.902  14.117  0.9180 -2.1243 -1.9050
10020TIP3   OH251474   3.669   4.609  10.894 -0.8360 -0.0369 -0.1708
10020TIP3    H151475   3.695   4.525  10.856 -2.1531 -0.5985  0.1109
10020TIP3    H251476   3.647   4.588  10.985 -1.6403  0.5013 -0.2271
10021TIP3   OH251477   1.633   4.054   1.738  0.5792 -0.0827  0.3100
10021TIP3    H151478   1.639   4.072   1.831  0.1862  1.1588  0.1077
10021TIP3    H251479   1.541   4.033   1.722  0.1863  1.8380 -0.1384
10022TIP3   OH251480   4.026   6.329  12.284  0.2145  0.1103  0.0876
10022TIP3    H151481   3.987   6.252  12.242 -1.3335  0.9453 -0.0758
10022TIP3    H251482   4.078   6.370  12.216  3.2793 -2.1359  0.8322
10023TIP3   OH251483   4.894   0.197  14.762 -0.2331 -0.2980 -0.1546
10023TIP3    H151484   4.890   0.293  14.758 -0.0869 -0.2601  0.4155
10023TIP3    H251485   4.828   0.173  14.826 -1.6308 -0.7319 -1.7094
10024TIP3   OH251486   1.992   4.073   5.053 -0.0008  0.2316 -0.5802
10024TIP3    H151487   1.902   4.040   5.052  0.3801 -1.0001  1.1986
10024TIP3    H251488   2.044   4.001   5.018  0.5372 -0.0499  0.7391
10025TIP3   OH251489   2.374   0.849   2.039 -0.1680  0.4987  0.5998
10025TIP3    H151490   2.446   0.840   1.976 -1.2725  1.9865 -0.9834
10025TIP3    H251491   2.305   0.792   2.004  0.2780 -1.1826  2.2883
10026TIP3   OH251492   1.755   6.393  13.538 -0.0599  0.0399  0.2527
10026TIP3    H151493   1.769   6.307  13.577 -1.9017 -0.0471  0.8027
10026TIP3    H251494   1.754   6.454  13.612  1.5348  0.6237 -0.1564
10027TIP3   OH251495   0.079   4.931   5.691  0.3214  0.1123  0.1437
10027TIP3    H151496   0.033   4.928   5.775  0.5450 -0.4335  0.2521
10027TIP3    H251497   0.169   4.953   5.714  0.1836  0.8936 -0.0429
10028TIP3   OH251498   5.174   1.179  16.722 -0.1555  0.1544 -0.5863
10028TIP3    H151499   5.210   1.247  16.780 -2.3596  0.5051  0.4515
10028TIP3    H251500   5.250   1.125  16.700  1.5800  2.5811 -0.9961
10029TIP3   OH251501   3.865   6.047   4.112  0.3246 -0.2957  0.0209
10029TIP3    H151502   3.777   6.065   4.144 -0.1182 -0.8351 -0.8402
10029TIP3    H251503   3.923   6.073   4.183 -0.4591  1.2671  0.1249
10030TIP3   OH251504   3.995   4.316  13.130 -0.2377 -0.1883 -0.2705
10030TIP3    H151505   3.910   4.349  13.103 -0.6218 -1.8060 -1.2039
10030TIP3    H251506   4.046   4.311  13.049  1.2533  2.0137  0.4575
10031TIP3   OH251507   5.091   2.887   3.207  0.2725  0.1245 -0.0984
10031TIP3    H151508   5.170   2.838   3.184  0.6135  1.0733 -1.0096
10031TIP3    H251509   5.123   2.962   3.258 -0.3500 -1.1955  2.4121
10032TIP3   OH251510   5.682   3.317  11.459  0.0803 -0.1886  0.2065
10032TIP3    H151511   5.622   3.339  11.531 -0.4968  2.0918 -0.8732
10032TIP3    H251512   5.635   3.252  11.408  0.1756 -1.2642  1.4467
10033TIP3   OH251513   4.056   5.925   0.598  0.0242 -1.0562 -0.5319
10033TIP3    H151514   4.084   5.837   0.573  1.7144 -1.3633  2.0499
10033TIP3    H251515   4.126   5.957   0.654 -0.9065  1.6860 -0.7901
10034TIP3   OH251516   3.886   4.511   3.633  0.1540  0.1760  0.2458
10034TIP3    H151517   3.852   4.468   3.712  0.1664 -2.4187 -1.0395
10034TIP3    H251518   3.825   4.485   3.564  0.4842  1.8779 -0.7377
10035TIP3   OH251519   3.025   2.452   5.863 -0.1649 -0.2157  0.4855
10035TIP3    H151520   3.067   2.367   5.852 -1.0836 -0.3849 -2.9584
10035TIP3    H251521   2.933   2.433   5.874 -0.4262  0.2718 -0.6341
10036TIP3   OH251522   0.274   2.239   2.504  0.1864 -0.3183 -0.2815
10036TIP3    H151523   0.288   2.300   2.577  0.4831  1.5845 -1.8529
10036TIP3    H251524   0.182   2.216   2.509 -0.1561  0.9962 -0.1802
10037TIP3   OH251525   6.087   4.873   0.452  0.5123 -0.0299 -0.0586
10037TIP3    H151526   6.121   4.889   0.540 -0.2709  0.2884  0.1970
10037TIP3    H251527   6.020   4.939   0.440 -1.5697 -1.9369  0.3422
10038TIP3   OH251528   6.435   4.440   3.351 -0.1004 -1.3170  0.4443
10038TIP3    H151529   6.488   4.517   3.373 -0.5816 -0.5428 -0.9428
10038TIP3    H251530   6.495   4.381   3.305  0.4558 -2.1404  2.1557
10039TIP3   OH251531   3.665   0.540   4.585 -0.1012 -0.6562  0.1997
10039TIP3    H151532   3.641   0.528   4.676  0.4383  2.7433  0.9412
10039TIP3    H251533   3.701   0.629   4.581 -0.1831 -0.6192 -3.3431
10040TIP3   OH251534   6.484   2.200  12.855  0.2109  0.2005  0.1052
10040TIP3    H151535   6.521   2.199  12.767  0.4424  0.4690  0.1998
10040TIP3    H251536   6.403   2.251  12.846  0.8299  1.2507  0.2788
10041TIP3   OH251537   1.774   2.133   1.732  0.5040 -0.2948 -0.5758
10041TIP3    H151538   1.736   2.170   1.811 -0.1797 -0.6083 -0.7479
10041TIP3    H251539   1.868   2.146   1.742  0.4967 -0.9823  0.6272
10042TIP3   OH251540   4.753   4.391   2.854  1.1125  0.1214  0.0118
10042TIP3    H151541   4.722   4.449   2.784  2.0484 -0.5723 -1.0259
10042TIP3    H251542   4.786   4.449   2.922 -0.4841  0.8293  0.2221
10043TIP3   OH251543   0.358   2.697   0.457 -0.0619 -0.2917 -0.2794
10043TIP3    H151544   0.419   2.643   0.408  0.5928  0.2327 -0.0539
10043TIP3    H251545   0.407   2.727   0.533  0.6909  3.1868 -1.9226
10044TIP3   OH251546   2.315   1.744  16.234 -0.0284 -0.0242  0.4173
10044TIP3    H151547   2.281   1.746  16.145 -3.6474 -0.1548  1.6299
10044TIP3    H251548   2.336   1.652  16.251 -1.9328 -0.4843  0.4921
10045TIP3   OH251549   0.895   6.093  16.894 -0.2900 -0.3907 -0.1173
10045TIP3    H151550   0.853   6.026  16.839 -0.1096  0.0161 -0.7596
10045TIP3    H251551   0.923   6.045  16.972  0.8365 -1.3302 -1.0445
10046TIP3   OH251552   3.223   4.560   0.450  0.3717  0.0683  0.2453
10046TIP3    H151553   3.243   4.653   0.458  3.1960 -0.4450  0.0975
10046TIP3    H251554   3.282   4.528   0.381  0.2502 -2.0249  1.0172
10047TIP3   OH251555   2.600   1.614   1.201 -0.2216 -0.2447 -0.1902
10047TIP3    H151556   2.621   1.618   1.294 -1.6653 -0.5863  0.1739
10047TIP3    H251557   2.675   1.655   1.158  0.0619  0.7389  1.1682
10048TIP3   OH251558   6.063   6.774  12.409 -0.0165 -0.6854 -0.0678
10048TIP3    H151559   6.136   6.832  12.389 -0.0144  0.6296  3.1730
10048TIP3    H251560   6.098   6.711  12.472 -1.3092 -0.8505  0.5229
10049TIP3   OH251561   1.401   0.668  12.487 -0.6998 -0.7134  0.3959
10049TIP3    H151562   1.393   0.742  12.547 -0.8926  0.7750 -1.3847
10049TIP3    H251563   1.484   0.626  12.511 -0.4459  0.2273  1.2452
10050TIP3   OH251564   4.827   4.288  15.863  0.3063  0.5941 -0.3874
10050TIP3    H151565   4.907   4.259  15.907 -1.7889 -1.2034  2.6205
10050TIP3    H251566   4.844   4.274  15.770  2.8526 -1.4966  0.2793
10051TIP3   OH251567   2.217   0.292   5.976 -0.0216 -0.1477  0.3134
10051TIP3    H151568   2.299   0.333   5.946  0.1271  0.0472  0.9623
10051TIP3    H251569   2.175   0.360   6.028 -1.8671  0.6884 -2.0877
10052TIP3   OH251570   6.193   5.368   2.300 -0.2353 -0.1784  0.0275
10052TIP3    H151571   6.137   5.290   2.298  0.4139 -0.6444 -1.7706
10052TIP3    H251572   6.137   5.439   2.268 -0.9788  0.2687  2.1317
10053TIP3   OH251573   3.150   6.401   3.035  0.2141 -0.3763 -0.0117
10053TIP3    H151574   3.083   6.340   3.066 -0.9628  1.4008  1.1308
10053TIP3    H251575   3.131   6.412   2.942 -0.6230 -0.4796  0.1366
10054TIP3   OH251576   4.700   2.060   2.247  0.5095  0.2996 -0.5168
10054TIP3    H151577   4.760   2.104   2.187  1.0597 -0.4324 -0.5287
10054TIP3    H251578   4.619   2.050   2.197  0.2664  1.5681 -0.3941
10055TIP3   OH251579   4.892   3.525  10.491 -0.4605 -0.1785 -0.4311
10055TIP3    H151580   4.803   3.515  10.523 -0.1104 -2.6619 -0.0533
10055TIP3    H251581   4.933   3.586  10.553 -0.9155 -1.8355  1.6035
10056TIP3   OH251582   1.933   3.056  13.815 -0.2433  0.7531  0.1854
10056TIP3    H151583   1.863   3.096  13.764 -0.3898 -0.3241 -0.4757
10056TIP3    H251584   1.919   2.962  13.806  1.2881  0.5154  0.0273
10057TIP3   OH251585   4.150   6.450   2.453  0.6662 -0.3349  0.0379
10057TIP3    H151586   4.174   6.362   2.424  1.7241 -0.5517  1.4363
10057TIP3    H251587   4.097   6.436   2.531  1.7148  0.2374  0.8971
10058TIP3   OH251588   0.174   4.078   0.063  0.3814  0.0068 -0.1288
10058TIP3    H151589   0.101   4.077   0.002  1.2748 -1.2607 -1.2370
10058TIP3    H251590   0.172   3.993   0.105  1.2257 -0.0527 -0.1922
10059TIP3   OH251591   6.278   4.720   1.404  0.0790 -0.0767  0.3919
10059TIP3    H151592   6.269   4.731   1.499  0.5943 -1.0279  0.5679
10059TIP3    H251593   6.327   4.638   1.395 -0.9739 -0.5941 -0.7316
10060TIP3   OH251594   5.139   2.950  13.920 -1.1182 -0.3561 -0.0779
10060TIP3    H151595   5.163   3.039  13.896 -0.8648 -0.8228 -1.6957
10060TIP3    H251596   5.187   2.933  14.001  0.3805  0.3277 -0.7818
10061TIP3   OH251597   4.933   1.743   4.815 -0.0078 -0.0015 -0.4558
10061TIP3    H151598   4.908   1.670   4.759  1.6527 -1.0757  0.1594
10061TIP3    H251599   4.853   1.763   4.864 -0.4012 -1.6568 -0.3585
10062TIP3   OH251600   6.797   3.981   1.319 -0.1354 -0.1774  0.0741
10062TIP3    H151601   6.844   4.019   1.393 -2.2182 -0.6941  1.7634
10062TIP3    H251602   6.732   4.047   1.295  1.5188  0.6797 -2.4496
10063TIP3   OH251603   1.026   3.216  16.210 -0.3029 -0.2055 -0.2911
10063TIP3    H151604   0.931   3.199  16.211 -0.4916  0.7733  0.2706
10063TIP3    H251605   1.042   3.253  16.123 -0.9309  2.0108  0.4596
10064TIP3   OH251606   4.171   0.843  14.243 -0.4969 -0.1939  0.4615
10064TIP3    H151607   4.186   0.762  14.195 -0.2503  1.1972 -1.9752
10064TIP3    H251608   4.076   0.856  14.238 -0.5848 -0.5334  1.2109
10065TIP3   OH251609   2.107   1.289   2.658  0.4588 -0.4630  0.4459
10065TIP3    H151610   2.105   1.208   2.606 -0.1889 -0.1415 -0.0397
10065TIP3    H251611   2.023   1.330   2.642  0.8187  0.3608  0.6272
10066TIP3   OH251612   0.553   5.842   0.835  0.0771 -0.6646  0.1571
10066TIP3    H151613   0.555   5.871   0.744  0.4847 -0.0457  0.3512
10066TIP3    H251614   0.644   5.817   0.854 -0.1409 -1.4679  0.1923
10067TIP3   OH251615   5.421   4.663  12.921 -0.0812 -0.5017 -0.9280
10067TIP3    H151616   5.400   4.679  13.013  0.1257 -0.7349 -0.8400
10067TIP3    H251617   5.516   4.652  12.919 -0.1428 -1.0364 -1.0878
10068TIP3   OH251618   4.294   2.725   3.495  0.2021  0.4921  0.0614
10068TIP3    H151619   4.214   2.762   3.458  0.2716  1.7877  1.1430
10068TIP3    H251620   4.281   2.729   3.590  1.1050 -0.3159  0.2433
10069TIP3   OH251621   5.598   2.569  16.394  0.3238 -0.5347 -0.1363
10069TIP3    H151622   5.570   2.560  16.485  0.6082  0.1510  0.0276
10069TIP3    H251623   5.606   2.479  16.362  0.5239 -0.7897  0.6120
10070TIP3   OH251624   1.758   2.567   3.472 -0.1740 -0.2045 -0.1113
10070TIP3    H151625   1.830   2.523   3.518 -0.8320  0.3424  1.5225
10070TIP3    H251626   1.720   2.499   3.416  1.2479 -0.6433 -0.5789
10071TIP3   OH251627   3.731   4.383   3.447  0.1093 -0.1703 -0.9558
10071TIP3    H151628   3.654   4.428   3.482  0.5150  0.0133 -0.2712
10071TIP3    H251629   3.699   4.297   3.421  0.3343 -1.6551  2.9972
10072TIP3   OH251630   5.842   3.766   2.084  0.1541 -0.2176  0.3108
10072TIP3    H151631   5.797   3.746   2.002  0.2077  1.3115 -0.1228
10072TIP3    H251632   5.854   3.681   2.126  0.1865 -1.0461 -1.2928
10073TIP3   OH251633   5.868   4.245   1.929  0.0365  0.4269 -0.1871
10073TIP3    H151634   5.795   4.305   1.913 -0.5805 -0.3890 -0.4992
10073TIP3    H251635   5.946   4.296   1.907 -0.4314  1.3133  0.1583
10074TIP3   OH251636   6.010   1.911  10.398 -0.2245 -0.4849  0.2520
10074TIP3    H151637   5.961   1.993  10.404  0.2002 -0.2509  0.5358
10074TIP3    H251638   6.101   1.938  10.384 -0.1062 -0.9100  0.1825
10075TIP3   OH251639   5.192   6.258   3.660 -0.0837  0.2433  0.3952
10075TIP3    H151640   5.158   6.255   3.749 -0.3862  2.1209  0.3707
10075TIP3    H251641   5.115   6.241   3.605  0.1733 -1.3111  0.4512
10076TIP3   OH251642   1.001   3.352  11.037  0.4993 -0.3649  0.2729
10076TIP3    H151643   1.025   3.443  11.057  0.0379 -0.1049 -0.3043
10076TIP3    H251644   1.035   3.337  10.949 -1.0012 -0.1337 -0.3773
10077TIP3   OH251645   3.550   5.015   0.789 -0.1622 -0.4047 -0.0781
10077TIP3    H151646   3.630   5.013   0.737  0.2632  3.3683  0.0962
10077TIP3    H251647   3.576   4.980   0.874  0.7618 -1.0544 -0.6128
10078TIP3   OH251648   1.098   6.764  11.674  0.0630  0.2520  0.1732
10078TIP3    H151649   1.191   6.752  11.651  0.1539  0.2490  0.5412
10078TIP3    H251650   1.099   6.828  11.745 -0.1896 -0.0325  0.4358
10079TIP3   OH251651   4.414   5.659  12.694  0.0275  0.2574 -0.0669
10079TIP3    H151652   4.430   5.724  12.762  1.5887 -0.3538  0.1934
10079TIP3    H251653   4.481   5.676  12.628 -0.5203 -0.1116 -0.7345
10080TIP3   OH251654   4.720   2.795   5.703  0.2081  0.0082 -0.0958
10080TIP3    H151655   4.691   2.818   5.614 -2.4826 -0.8569  0.4737
10080TIP3    H251656   4.816   2.793   5.697  0.1265  0.5098 -2.8326
10081TIP3   OH251657   2.175   4.044   0.493 -0.5732  0.0625 -0.4233
10081TIP3    H151658   2.113   4.047   0.420 -1.7493  1.4617  0.5621
10081TIP3    H251659   2.194   4.136   0.512  1.2516 -0.3288 -0.2134
10082TIP3   OH251660   1.717   5.721  14.837 -0.5473 -0.8143 -0.1264
10082TIP3    H151661   1.715   5.697  14.745  0.8660 -2.9479  0.3302
10082TIP3    H251662   1.657   5.796  14.844 -1.3538 -1.1507 -2.5881
10083TIP3   OH251663   3.210   5.893  16.738  0.8289 -0.1612  0.7525
10083TIP3    H151664   3.176   5.836  16.669  1.2986  1.1107 -0.5561
10083TIP3    H251665   3.166   5.977  16.725  3.1901  1.0446  0.0015
10084TIP3   OH251666   1.017   6.438   0.454 -0.0861  0.0818  0.9146
10084TIP3    H151667   0.955   6.480   0.396 -1.9692 -0.6485  2.3038
10084TIP3    H251668   1.065   6.510   0.496 -0.5631  0.6846  0.4259
10085TIP3   OH251669   0.953   2.161   0.266 -0.2839  0.2234  0.3839
10085TIP3    H151670   0.952   2.088   0.204  3.7683 -1.1212  1.5586
10085TIP3    H251671   0.915   2.125   0.346  0.2966 -0.1618  0.4981
10086TIP3   OH251672   1.222   1.786   2.821 -0.3645  0.1876 -0.9046
10086TIP3    H151673   1.182   1.854   2.876  0.4743 -0.6121  0.7574
10086TIP3    H251674   1.312   1.816   2.807 -0.2226 -0.2031 -0.8346
10087TIP3   OH251675   1.877   5.051  14.073 -0.3289  0.0933  0.0136
10087TIP3    H151676   1.836   4.967  14.052 -1.7767  0.6826  0.3881
10087TIP3    H251677   1.861   5.062  14.166 -0.6022  1.0240 -0.1383
10088TIP3   OH251678   0.503   0.997   0.177  0.3919 -0.1303 -0.7098
10088TIP3    H151679   0.556   0.940   0.234  0.2620  1.0960  0.7175
10088TIP3    H251680   0.549   0.998   0.094 -0.4200 -3.5414 -1.3635
10089TIP3   OH251681   6.795   2.094   4.985 -0.5314 -0.6691  0.2370
10089TIP3    H151682   6.768   2.154   4.916 -1.3869 -0.9015  0.3582
10089TIP3    H251683   6.772   2.140   5.067  2.8260  0.7641  0.5241
10090TIP3   OH251684   3.823   2.750   1.245  0.3459 -0.4951 -1.0576
10090TIP3    H151685   3.889   2.789   1.302  0.6436 -1.7727 -0.5001
10090TIP3    H251686   3.830   2.656   1.261 -1.3049 -0.6870 -1.3168
10091TIP3   OH251687   3.232   0.735  14.888 -0.1255 -0.1591 -0.1128
10091TIP3    H151688   3.195   0.659  14.843  1.6726  0.4723 -2.9507
10091TIP3    H251689   3.175   0.808  14.863 -1.3416 -0.3454  1.8995
10092TIP3   OH251690   3.713   0.106   2.920 -0.6442  0.0116  0.2961
10092TIP3    H151691   3.705   0.011   2.909 -0.1935 -0.0398  0.3744
10092TIP3    H251692   3.687   0.121   3.011 -2.0044  0.1343 -0.0931
10093TIP3   OH251693   5.679   4.349   3.082  0.2510 -0.3543  0.1538
10093TIP3    H151694   5.641   4.436   3.085 -2.5344 -1.4204 -0.6573
10093TIP3    H251695   5.749   4.350   3.146  0.8648  2.6919 -0.4487
10094TIP3   OH251696   2.451   5.187  14.876  0.4107  0.3564 -0.8010
10094TIP3    H151697   2.499   5.122  14.928  0.2955 -1.2416 -2.5542
10094TIP3    H251698   2.514   5.257  14.861  1.7126 -0.9349 -1.6647
10095TIP3   OH251699   6.105   4.052  11.256 -0.3392 -0.8521 -0.1184
10095TIP3    H151700   6.159   3.996  11.200  0.0007 -0.5899 -0.0577
10095TIP3    H251701   6.162   4.125  11.279 -1.1250  0.1165 -1.1140
10096TIP3   OH251702   4.246   4.436  16.208 -0.4557 -0.1143 -0.0528
10096TIP3    H151703   4.195   4.464  16.284 -0.4533  0.2320 -0.1792
10096TIP3    H251704   4.337   4.438  16.239 -0.5239 -0.9113  0.2294
10097TIP3   OH251705   2.759   0.433   2.710 -0.3340 -0.3880  0.6015
10097TIP3    H151706   2.837   0.415   2.763 -0.8665  0.1021  1.5789
10097TIP3    H251707   2.794   0.454   2.623  0.8684  2.3213  1.6229
10098TIP3   OH251708   1.126   0.246  13.174  0.0639 -0.1065  0.0145
10098TIP3    H151709   1.155   0.176  13.232 -0.1436 -1.6669 -1.6943
10098TIP3    H251710   1.155   0.327  13.218 -0.7994 -1.1228  2.6764
10099TIP3   OH251711   3.327   2.267  16.700  0.0651 -0.1734 -0.5063
10099TIP3    H151712   3.373   2.238  16.779  0.1756  0.1837 -0.4351
10099TIP3    H251713   3.239   2.286  16.730  0.6740  2.1092  0.0252
10100TIP3   OH251714   2.604   0.569   5.229 -0.1376 -0.5641  0.0023
10100TIP3    H151715   2.536   0.561   5.162 -1.1469 -0.1642  0.9519
10100TIP3    H251716   2.593   0.657   5.263  1.4704 -0.1639 -0.4393
10101TIP3   OH251717   0.108   4.531   4.287 -0.6644  0.3942  0.2194
10101TIP3    H151718   0.094   4.566   4.199  0.6639  0.0516 -0.1502
10101TIP3    H251719   0.154   4.448   4.272  1.2617  1.2186  1.2914
10102TIP3   OH251720   4.490   4.266   3.862  0.6515 -0.2640 -1.0378
10102TIP3    H151721   4.428   4.312   3.805  1.2606 -1.9927 -3.2344
10102TIP3    H251722   4.574   4.309   3.846  0.7348 -0.4354 -1.0665
10103TIP3   OH251723   1.692   5.717   3.160  0.0858 -0.4171  0.3871
10103TIP3    H151724   1.691   5.808   3.188 -2.4132 -0.1494 -0.3745
10103TIP3    H251725   1.734   5.670   3.233  0.0486  1.1306  1.4522
10104TIP3   OH251726   5.394   1.945  12.876 -0.4505 -0.1546  0.4770
10104TIP3    H151727   5.362   1.857  12.898  0.0992 -0.7871 -1.1110
10104TIP3    H251728   5.374   1.998  12.954 -3.6336 -0.9089  0.3076
10105TIP3   OH251729   4.275   1.274   1.698  0.1216 -0.2292 -0.0682
10105TIP3    H151730   4.229   1.356   1.684  1.6866  0.7668  0.3523
10105TIP3    H251731   4.368   1.299   1.704  0.6454 -2.0334 -0.0288
10106TIP3   OH251732   5.555   6.431  16.031 -0.0223  0.0852 -0.0476
10106TIP3    H151733   5.595   6.393  15.954 -1.3918  0.4323 -0.9763
10106TIP3    H251734   5.528   6.519  16.003 -0.0042  0.4454  1.0104
10107TIP3   OH251735   5.306   0.513   2.950  0.4573 -0.1891  0.6592
10107TIP3    H151736   5.329   0.440   2.892 -0.4679  0.6205 -0.7789
10107TIP3    H251737   5.390   0.553   2.972  0.7427  0.5875 -1.6303
10108TIP3   OH251738   6.503   5.007   4.372 -0.2600 -0.3465  0.1596
10108TIP3    H151739   6.597   4.997   4.388 -0.2819 -0.3965  0.2564
10108TIP3    H251740   6.471   5.060   4.444  0.0812  1.5899 -1.0360
10109TIP3   OH251741   3.344   2.712   1.894  0.3960  0.2552  0.3173
10109TIP3    H151742   3.278   2.740   1.957 -1.8278 -2.6741 -0.4904
10109TIP3    H251743   3.303   2.725   1.809  0.9057 -1.3673 -0.2169
10110TIP3   OH251744   5.038   2.082  12.223 -0.2492 -0.3986  0.8676
10110TIP3    H151745   5.102   2.064  12.155  1.6223  0.7554  2.2131
10110TIP3    H251746   5.060   2.022  12.294 -2.1613 -1.5786  0.5172
10111TIP3   OH251747   4.883   5.697   1.602 -0.6149 -0.0894 -0.1783
10111TIP3    H151748   4.849   5.784   1.582 -0.3007 -0.0429 -0.5279
10111TIP3    H251749   4.832   5.638   1.547  0.3466  0.0529 -1.2505
10112TIP3   OH251750   0.386   3.872  16.285  0.4048 -0.3687 -0.2814
10112TIP3    H151751   0.403   3.964  16.303  1.2460 -0.2983 -1.3479
10112TIP3    H251752   0.469   3.828  16.302  0.1855 -0.8362 -0.3831
10113TIP3   OH251753   3.566   2.471  11.571  0.1274  0.5491  0.1152
10113TIP3    H151754   3.613   2.418  11.506  0.6290  0.2098  0.7413
10113TIP3    H251755   3.569   2.419  11.650 -0.4150  0.9969  0.4339
10114TIP3   OH251756   1.777   2.691   5.424 -0.2184 -0.6007 -0.7925
10114TIP3    H151757   1.855   2.675   5.477 -0.7853 -1.7183 -0.2716
10114TIP3    H251758   1.704   2.662   5.479 -0.9282 -0.5014 -1.6602
10115TIP3   OH251759   5.812   2.430   5.634 -0.1755  0.5020  0.2751
10115TIP3    H151760   5.750   2.499   5.610 -0.5894  1.0993  2.7215
10115TIP3    H251761   5.852   2.462   5.716  1.7584 -0.8756 -0.0716
10116TIP3   OH251762   3.352   6.689  14.148 -0.0975 -0.5187  0.2562
10116TIP3    H151763   3.346   6.746  14.225  0.7914 -0.7386  0.5015
10116TIP3    H251764   3.362   6.749  14.074  0.2490 -0.3304  0.4517
10117TIP3   OH251765   6.394   3.198  15.743 -0.0582 -0.0017  0.2648
10117TIP3    H151766   6.320   3.235  15.792 -0.7269  0.2490 -0.9166
10117TIP3    H251767   6.469   3.211  15.801 -0.8658  0.0886  1.3216
10118TIP3   OH251768   6.188   6.750  13.921 -0.3137  0.0289 -0.0977
10118TIP3    H151769   6.267   6.711  13.958  0.3372  0.3159 -1.1597
10118TIP3    H251770   6.140   6.676  13.884  0.2986  0.0581 -0.9714
10119TIP3   OH251771   2.281   2.311   2.253 -0.2969 -0.0605 -0.2877
10119TIP3    H151772   2.232   2.245   2.203  0.8515 -1.0699 -0.1206
10119TIP3    H251773   2.296   2.382   2.190  0.2908 -0.8852 -1.1052
10120TIP3   OH251774   0.399   1.226  12.674 -0.2813 -0.2543  0.1944
10120TIP3    H151775   0.412   1.234  12.769 -0.6916  0.1244  0.2249
10120TIP3    H251776   0.486   1.212  12.639 -0.0740  0.0017  0.5933
10121TIP3   OH251777   3.631   0.602   4.969  0.5013  0.2234 -0.5501
10121TIP3    H151778   3.578   0.543   4.915  0.1214  0.6823 -0.6891
10121TIP3    H251779   3.591   0.688   4.957  1.5950  0.6761 -1.0622
10122TIP3   OH251780   2.836   4.678  15.744 -0.2649 -0.4601  0.2201
10122TIP3    H151781   2.805   4.766  15.723  0.2049 -0.3690 -0.1340
10122TIP3    H251782   2.830   4.671  15.839 -1.5958 -0.5436  0.1407
10123TIP3   OH251783   4.782   0.152   5.995 -0.1052 -0.2061 -0.0023
10123TIP3    H151784   4.732   0.229   5.967  2.3705  1.4528 -0.2531
10123TIP3    H251785   4.818   0.117   5.913  1.2211  0.2417  0.3639
10124TIP3   OH251786   1.992   2.535  15.954  0.3116 -0.3437 -0.4596
10124TIP3    H151787   1.925   2.481  15.913  0.9068 -1.3628 -0.1343
10124TIP3    H251788   1.979   2.523  16.048  0.1679  0.4417 -0.3740
10125TIP3   OH251789   2.687   1.413  12.615  0.5429 -0.7859  0.0005
10125TIP3    H151790   2.702   1.507  12.620  1.4972 -0.9271 -0.0714
10125TIP3    H251791   2.607   1.399  12.666 -0.3163  0.2165 -1.0047
10126TIP3   OH251792   0.013   0.181   3.894  0.1461  0.2682  0.0457
10126TIP3    H151793   0.059   0.098   3.879 -1.2505 -0.1732 -2.1678
10126TIP3    H251794  -0.065   0.157   3.943  0.2519  0.4237  0.2908
10127TIP3   OH251795   4.670   0.987  10.705 -0.3413  0.0224 -0.0056
10127TIP3    H151796   4.673   0.950  10.617  0.7464 -0.5603  0.2669
10127TIP3    H251797   4.660   1.081  10.691 -0.8319 -0.1263 -0.7307
10128TIP3   OH251798   6.349   1.940   4.029 -0.0391 -0.3425  0.3720
10128TIP3    H151799   6.291   1.968   3.957  0.7001 -0.8328 -0.4394
10128TIP3    H251800   6.364   1.847   4.012  0.3834 -0.3886  1.0019
10129TIP3   OH251801   3.837   2.619   0.865 -0.4580 -0.6336 -0.1880
10129TIP3    H151802   3.894   2.600   0.940  1.1754  1.2865 -0.8396
10129TIP3    H251803   3.882   2.581   0.790  0.6021  1.7463 -0.8552
10130TIP3   OH251804   2.252   2.242  13.553 -0.2275 -0.6109 -0.4927
10130TIP3    H151805   2.238   2.156  13.514 -1.5285 -0.2949 -0.7576
10130TIP3    H251806   2.334   2.273  13.514  0.3171 -1.7535 -0.3141
10131TIP3   OH251807   6.125   2.744  11.574  0.6999  0.2591 -0.4442
10131TIP3    H151808   6.187   2.816  11.581  2.1933 -0.8042 -1.9777
10131TIP3    H251809   6.173   2.667  11.608  0.6009 -0.7450 -2.4447
10132TIP3   OH251810   2.640   3.301  10.173 -0.0670 -0.0319  0.2638
10132TIP3    H151811   2.706   3.289  10.241  0.1918  1.6258  0.3427
10132TIP3    H251812   2.673   3.375  10.121 -1.0656 -0.2295 -0.6750
10133TIP3   OH251813   6.045   5.780  12.433  0.3410 -0.2636 -0.2593
10133TIP3    H151814   6.113   5.734  12.482  1.2836 -0.2338 -1.4721
10133TIP3    H251815   5.982   5.712  12.410  0.3825 -0.4519  0.1816
10134TIP3   OH251816   1.403   2.752   2.409  0.3888 -0.1366 -0.2508
10134TIP3    H151817   1.444   2.669   2.432 -0.2471 -0.3764  0.0424
10134TIP3    H251818   1.420   2.761   2.315 -0.4031 -1.1117 -0.5085
10135TIP3   OH251819   1.654   0.600   4.413 -0.1670  0.4649 -0.3340
10135TIP3    H151820   1.608   0.668   4.462 -1.9339  0.2701 -1.5988
10135TIP3    H251821   1.667   0.637   4.326  2.0686  0.4587 -0.0649
10136TIP3   OH251822   5.602   3.015   4.373 -0.0499 -0.2923  0.4402
10136TIP3    H151823   5.682   3.023   4.425  0.7275 -4.5640  0.2544
10136TIP3    H251824   5.584   2.921   4.371 -3.2697  0.1965 -2.2816
10137TIP3   OH251825   1.120   5.776  11.244  0.5452 -0.2481  0.6756
10137TIP3    H151826   1.154   5.794  11.332  1.5513 -0.4361  0.3332
10137TIP3    H251827   1.192   5.800  11.185 -0.3408  0.4882 -0.1471
10138TIP3   OH251828   3.663   5.818  13.463  0.2262  0.4085 -0.3022
10138TIP3    H151829   3.634   5.858  13.546 -0.1660 -1.0922  0.3218
10138TIP3    H251830   3.618   5.734  13.461  1.9296 -0.5248 -0.9946
10139TIP3   OH251831   3.120   1.044  12.296  0.3677 -0.4336 -0.2950
10139TIP3    H151832   3.069   1.054  12.377  1.1986  0.9272  0.0944
10139TIP3    H251833   3.054   1.038  12.227 -0.4173  2.8257  0.0200
10140TIP3   OH251834   6.694   3.202   1.582 -0.2397  0.0288  0.5507
10140TIP3    H151835   6.779   3.246   1.592  0.0873 -0.5814  0.5506
10140TIP3    H251836   6.717   3.110   1.566 -0.8718  0.1292 -1.0505
10141TIP3   OH251837   1.951   4.080  15.575 -0.4315 -0.1041 -0.7227
10141TIP3    H151838   2.023   4.032  15.615 -0.3154 -1.4349 -2.3765
10141TIP3    H251839   1.917   4.137  15.644 -1.2030 -3.2450  1.6890
10142TIP3   OH251840   1.968   2.330   0.459  0.3201 -0.0170 -0.2548
10142TIP3    H151841   1.931   2.243   0.442 -0.4377  0.3664 -0.5974
10142TIP3    H251842   1.977   2.334   0.554  0.4632 -0.5150 -0.2463
10143TIP3   OH251843   0.747   5.020  13.968  0.4067 -0.6012  0.0669
10143TIP3    H151844   0.765   4.930  13.993  0.1893 -0.8726 -0.7388
10143TIP3    H251845   0.666   5.043  14.015 -0.9442 -1.6624 -1.6378
10144TIP3   OH251846   1.176   0.873   3.280 -0.7691 -0.1242 -0.0122
10144TIP3    H151847   1.106   0.919   3.236  1.5923  1.5948 -2.2828
10144TIP3    H251848   1.213   0.814   3.214 -1.0122 -2.2156  1.5934
10145TIP3   OH251849   4.056   1.451  15.465  0.1910 -0.1413  0.2682
10145TIP3    H151850   4.062   1.417  15.375 -0.5503 -0.9716  0.5197
10145TIP3    H251851   3.979   1.509  15.463 -1.2210 -1.9151  0.8878
10146TIP3   OH251852   1.484   2.417  16.848 -0.7090  0.0585 -0.0756
10146TIP3    H151853   1.404   2.428  16.796  0.0554  0.7136 -1.1601
10146TIP3    H251854   1.543   2.369  16.790 -0.4993 -0.9306  0.9336
10147TIP3   OH251855   1.474   2.302  12.659 -0.8319 -0.4700  0.0120
10147TIP3    H151856   1.566   2.310  12.681 -0.9055  2.5039 -0.3037
10147TIP3    H251857   1.447   2.217  12.694  1.6127 -0.6969  1.5224
10148TIP3   OH251858   4.451   0.999   2.890  0.0033  0.0973  0.4926
10148TIP3    H151859   4.498   1.071   2.847 -0.7390  1.7014  2.1924
10148TIP3    H251860   4.509   0.923   2.880  2.5782  1.7604  1.6974
10149TIP3   OH251861   5.766   5.249  11.238 -0.3152  0.2280 -0.1491
10149TIP3    H151862   5.687   5.301  11.251 -1.7746 -1.8583 -0.1092
10149TIP3    H251863   5.740   5.160  11.261  1.5094 -0.8947 -2.0509
10150TIP3   OH251864   1.829   3.508   1.743  0.1347  0.4870  0.1545
10150TIP3    H151865   1.741   3.506   1.782  0.2673 -0.7155  0.4381
10150TIP3    H251866   1.886   3.531   1.816  0.1400  0.5110  0.1428
10151TIP3   OH251867   6.481   1.310   4.098 -1.0025  0.8082 -1.6681
10151TIP3    H151868   6.477   1.295   4.003 -0.0485 -0.8125 -1.4935
10151TIP3    H251869   6.565   1.354   4.112  0.3661 -1.6999 -1.3377
10152TIP3   OH251870   3.827   3.413   5.908  0.3592 -0.3859  0.7610
10152TIP3    H151871   3.897   3.348   5.916  0.3439 -0.1843  2.9429
10152TIP3    H251872   3.760   3.385   5.970 -0.9939  0.0844 -0.4367
10153TIP3   OH251873   1.597   1.869   3.443 -0.0468  0.0177 -0.0933
10153TIP3    H151874   1.686   1.876   3.409  0.2790  1.3355  0.9775
10153TIP3    H251875   1.594   1.782   3.482  0.5534 -0.2872 -0.6962
10154TIP3   OH251876   1.454   5.028  14.789 -0.4830  0.1269 -0.4287
10154TIP3    H151877   1.476   5.083  14.864 -0.9230  1.7641 -1.4567
10154TIP3    H251878   1.406   5.086  14.729 -0.3707 -1.1951 -1.8720
10155TIP3   OH251879   2.988   0.752  16.015  0.2984  0.5286 -0.3646
10155TIP3    H151880   3.043   0.808  16.070 -0.6859  2.4945 -1.2942
10155TIP3    H251881   2.912   0.806  15.995 -0.7273 -1.1871 -1.2858
10156TIP3   OH251882   4.802   0.057   1.794 -0.3756  0.2809  0.0420
10156TIP3    H151883   4.874   0.119   1.787 -0.2884  0.1561 -0.1956
10156TIP3    H251884   4.841  -0.027   1.769  0.1814 -0.3854  2.7976
10157TIP3   OH251885   6.688   0.692  14.697 -0.6659  0.1431 -0.7190
10157TIP3    H151886   6.674   0.648  14.613 -0.2287 -1.0471 -0.1945
10157TIP3    H251887   6.770   0.655  14.729 -0.2836  1.3582 -0.2388
10158TIP3   OH251888   1.936   3.858   3.329  0.1552 -0.2819  0.1630
10158TIP3    H151889   2.004   3.910   3.371  0.5701  0.2752 -1.1463
10158TIP3    H251890   1.983   3.786   3.287  0.0709  0.5260 -1.3951
10159TIP3   OH251891   3.878   4.739  14.557  0.2942 -0.2229 -0.1000
10159TIP3    H151892   3.897   4.646  14.573  0.7708 -0.2786 -0.9255
10159TIP3    H251893   3.862   4.775  14.644  0.7525 -0.9404  0.2971
10160TIP3   OH251894   6.722   5.771  14.785  0.4740 -0.5984  0.0479
10160TIP3    H151895   6.806   5.755  14.828 -0.0227  0.2794  1.3905
10160TIP3    H251896   6.698   5.860  14.811 -0.8439 -0.8147 -0.3602
10161TIP3   OH251897   5.316   6.170   5.314 -0.2653  0.2794  0.5250
10161TIP3    H151898   5.388   6.200   5.370 -0.2847  2.4647 -0.5290
10161TIP3    H251899   5.341   6.198   5.226 -1.6256 -0.4679 -0.1260
10162TIP3   OH251900   2.409   0.348  12.003 -0.2104  0.3682  0.1496
10162TIP3    H151901   2.414   0.388  12.090  0.5419  1.5939 -0.4277
10162TIP3    H251902   2.482   0.286  12.001 -0.9478 -0.5618  0.7917
10163TIP3   OH251903   0.828   1.866  15.816 -0.0433 -0.1040 -0.4342
10163TIP3    H151904   0.820   1.773  15.839 -1.9466  0.0247 -0.4814
10163TIP3    H251905   0.833   1.866  15.720  0.1180 -0.1533 -0.4271
10164TIP3   OH251906   1.922   6.539   3.888  0.1368  0.4153  0.6726
10164TIP3    H151907   1.966   6.507   3.809  1.1272 -0.8096  1.6616
10164TIP3    H251908   1.900   6.630   3.868  0.2133  0.1035 -1.0541
10165TIP3   OH251909   4.946   2.869   2.552 -0.2974 -0.6664 -0.2336
10165TIP3    H151910   4.895   2.809   2.605  0.3005 -1.8594 -0.9654
10165TIP3    H251911   4.897   2.876   2.469 -2.2618  2.6601  0.9794
10166TIP3   OH251912   4.596   1.402  12.660  0.0414 -0.5688  0.3260
10166TIP3    H151913   4.664   1.438  12.604  0.2948  1.0377  1.5923
10166TIP3    H251914   4.532   1.472  12.668 -0.8930 -1.4316  0.5728
10167TIP3   OH251915   2.286   0.509   1.691  0.2268  0.0295 -0.2034
10167TIP3    H151916   2.256   0.424   1.723 -0.9838  0.4130 -0.2614
10167TIP3    H251917   2.381   0.505   1.697  0.1377 -0.7786  1.2264
10168TIP3   OH251918   3.611   0.450  10.780 -0.7247 -0.0481  0.0863
10168TIP3    H151919   3.678   0.388  10.752 -2.7980 -1.9712 -0.9534
10168TIP3    H251920   3.660   0.520  10.823  1.9507 -1.1392 -0.9354
10169TIP3   OH251921   3.583   6.433  11.366 -0.0229  0.2107  0.2705
10169TIP3    H151922   3.649   6.473  11.309  0.9450 -0.9148  0.5642
10169TIP3    H251923   3.621   6.349  11.392 -1.7279 -0.6401  0.1594
10170TIP3   OH251924   4.594   2.721  17.019  0.1604  0.7152 -0.4159
10170TIP3    H151925   4.603   2.627  17.001 -1.8856 -0.0806  2.1330
10170TIP3    H251926   4.671   2.760  16.979  2.3593 -2.3600  0.4488
10171TIP3   OH251927   0.714   5.829   4.776 -0.2579 -0.3605 -0.3638
10171TIP3    H151928   0.763   5.872   4.846 -0.7836  0.0619 -0.2474
10171TIP3    H251929   0.781   5.803   4.712  0.3309 -1.4837  0.6558
10172TIP3   OH251930   6.258   6.792  13.070  0.1247 -0.7233  0.0456
10172TIP3    H151931   6.235   6.783  13.163  1.5426  0.1850  0.5070
10172TIP3    H251932   6.301   6.877  13.064  2.4356 -1.8925 -0.9326
10173TIP3   OH251933   4.737   5.844   4.575 -0.1527  0.3098 -0.1192
10173TIP3    H151934   4.670   5.805   4.519 -1.3854  1.9944  0.1005
10173TIP3    H251935   4.731   5.938   4.558  2.7661  0.4861 -0.7178
10174TIP3   OH251936   4.212   4.032  12.636 -0.0517 -0.4030  0.2939
10174TIP3    H151937   4.172   4.029  12.723  0.0174  0.8173  0.3889
10174TIP3    H251938   4.296   3.987  12.647  1.2763  2.1545  1.6402
10175TIP3   OH251939   1.387   4.250  13.128 -0.9191  0.5255  0.2957
10175TIP3    H151940   1.341   4.184  13.077 -1.0417 -0.1808  1.2990
10175TIP3    H251941   1.345   4.249  13.214 -0.3733  1.3148  0.5870
10176TIP3   OH251942   1.950   4.492   4.651  0.2210  0.3887 -0.0252
10176TIP3    H151943   1.887   4.478   4.722  0.3520  0.0137  0.0219
10176TIP3    H251944   2.000   4.411   4.648  0.0552  0.3073 -0.7128
10177TIP3   OH251945   2.365   6.279   1.419 -0.1298 -0.6877  0.4861
10177TIP3    H151946   2.313   6.202   1.396  0.2275 -0.9687  0.6105
10177TIP3    H251947   2.389   6.318   1.335 -1.5492  0.1425  0.4253
10178TIP3   OH251948   0.919   2.700   0.158  0.3010  0.0050  0.2742
10178TIP3    H151949   0.985   2.768   0.159  0.1228  0.2521 -1.3401
10178TIP3    H251950   0.963   2.623   0.122 -0.1107 -0.0075 -0.2281
10179TIP3   OH251951   1.788   1.087  12.399  0.0999 -0.5058 -0.1568
10179TIP3    H151952   1.778   1.181  12.409  0.2981 -0.1968 -2.2810
10179TIP3    H251953   1.873   1.067  12.437  1.1644  0.6242 -1.7966
10180TIP3   OH251954   1.296   2.603  13.168 -0.0105 -0.1275  0.8250
10180TIP3    H151955   1.257   2.563  13.090  0.4319  0.4388  0.2937
10180TIP3    H251956   1.375   2.647  13.135  0.9560 -1.0439  1.8316
10181TIP3   OH251957   4.133   3.037   4.870 -1.0078 -0.4349 -0.1873
10181TIP3    H151958   4.193   3.073   4.806  0.6539 -0.0253  1.5072
10181TIP3    H251959   4.143   2.942   4.861  1.5313 -0.4137  1.4003
10182TIP3   OH251960   4.911   1.105   0.726 -0.4350  0.2719 -0.1953
10182TIP3    H151961   4.961   1.028   0.700 -2.1954  0.1880 -4.2167
10182TIP3    H251962   4.975   1.176   0.729  0.7926 -0.8488  0.9826
10183TIP3   OH251963   6.258   1.623  14.729  0.2712  0.3431  0.2091
10183TIP3    H151964   6.176   1.584  14.760  0.1697  1.3323  1.2733
10183TIP3    H251965   6.240   1.648  14.639 -0.5762  0.4506  0.3979
10184TIP3   OH251966   6.188   5.287   3.619  0.1131  0.1166 -0.1223
10184TIP3    H151967   6.244   5.254   3.689 -1.7959 -1.2717  0.8120
10184TIP3    H251968   6.167   5.377   3.646 -0.6541 -0.4227  1.1444
10185TIP3   OH251969   5.298   1.011   5.770  0.0241  0.3425 -0.6076
10185TIP3    H151970   5.327   1.078   5.832 -0.2281  1.0494 -1.2365
10185TIP3    H251971   5.295   0.930   5.821  0.4356  0.7902  0.1370
10186TIP3   OH251972   5.864   5.063   1.673 -0.1406  0.1186 -0.2508
10186TIP3    H151973   5.892   4.971   1.676  2.7856  0.8769 -0.8380
10186TIP3    H251974   5.897   5.095   1.589 -2.1414  1.4583 -0.5924
10187TIP3   OH251975   5.835   1.139  11.794 -0.3754  0.4612  0.1061
10187TIP3    H151976   5.826   1.045  11.810  1.4911  0.4191  1.1701
10187TIP3    H251977   5.902   1.145  11.726 -0.4542  1.0139  0.0753
10188TIP3   OH251978   4.371   3.981   5.407 -0.4638 -0.9789  0.3840
10188TIP3    H151979   4.444   4.041   5.395 -0.8675 -0.4652  0.4589
10188TIP3    H251980   4.312   3.999   5.335 -2.8368  2.0482  2.8212
10189TIP3   OH251981   4.130   3.489  12.592  0.0855  0.1427 -0.0595
10189TIP3    H151982   4.224   3.501  12.606 -0.2268  0.9883  1.6110
10189TIP3    H251983   4.110   3.407  12.637  0.4226 -1.4120 -2.6030
10190TIP3   OH251984   1.157   1.458  12.900  0.4351  0.1284  0.6783
10190TIP3    H151985   1.206   1.377  12.885 -1.2489 -0.9818  0.8139
10190TIP3    H251986   1.203   1.524  12.849  2.1118 -0.8062  0.9147
10191TIP3   OH251987   6.804   5.349  14.607 -0.1442  0.6047 -0.1309
10191TIP3    H151988   6.787   5.278  14.669 -1.7803  1.0706  0.0220
10191TIP3    H251989   6.851   5.415  14.657  1.3589 -0.3395 -0.2667
10192TIP3   OH251990   4.792   5.234   0.361  0.1235 -0.0145  0.0671
10192TIP3    H151991   4.767   5.178   0.287  0.9974  1.3993 -1.3562
10192TIP3    H251992   4.819   5.172   0.429 -0.9262 -1.3690 -0.6870
10193TIP3   OH251993   2.820   3.614  17.023 -0.4006 -0.1552 -0.2620
10193TIP3    H151994   2.733   3.642  17.049 -1.2220 -2.7524  0.1433
10193TIP3    H251995   2.854   3.565  17.099  1.4861  0.8952 -0.3590
10194TIP3   OH251996   4.557   0.113  13.736 -0.6075 -0.0551 -0.2963
10194TIP3    H151997   4.578   0.076  13.650  0.8341 -0.0123  0.0201
10194TIP3    H251998   4.518   0.040  13.784  2.2078 -1.2620  0.3233
10195TIP3   OH251999   2.710   5.961   0.121  0.0141  0.1814 -0.0124
10195TIP3    H152000   2.763   5.881   0.113  2.3302  1.6525 -0.3414
10195TIP3    H252001   2.662   5.966   0.038  0.2358 -0.5968 -0.1985
10196TIP3   OH252002   3.393   6.602   6.375  0.4166  0.2447 -0.3082
10196TIP3    H152003   3.444   6.523   6.389 -0.5060 -0.4548 -0.8192
10196TIP3    H252004   3.408   6.655   6.454  1.2583 -0.3120 -0.0904
10197TIP3   OH252005   6.332   1.546   5.763 -0.2123  0.0421 -0.4370
10197TIP3    H152006   6.338   1.607   5.837  0.8683 -0.8889  0.2797
10197TIP3    H252007   6.329   1.460   5.804 -0.3179 -0.4495 -1.4701
10198TIP3   OH252008   3.875   1.594   3.467 -0.0553  0.1850  0.7622
10198TIP3    H152009   3.916   1.674   3.499  0.7808 -0.8168  2.3164
10198TIP3    H252010   3.874   1.536   3.543  0.8746 -1.8834 -0.7298
10199TIP3   OH252011   6.590   4.689  13.261 -0.0230 -0.1484 -0.1894
10199TIP3    H152012   6.543   4.772  13.265  0.8258  0.3900 -1.0478
10199TIP3    H252013   6.594   4.669  13.167  1.9196  0.0930 -0.1857
10200TIP3   OH252014   2.208   5.926  15.880 -1.0360  0.0006  0.3373
10200TIP3    H152015   2.192   5.983  15.956 -1.0871  0.6568 -0.1534
10200TIP3    H252016   2.164   5.971  15.807  0.3188  0.1831 -0.3970
10201TIP3   OH252017   6.410   2.865  13.764  0.2139  0.5825 -0.1980
10201TIP3    H152018   6.359   2.880  13.844 -2.3983 -1.7018 -1.2908
10201TIP3    H252019   6.490   2.916  13.777  0.6961 -0.8921  4.5552
10202TIP3   OH252020   2.463   4.092  15.523 -0.0396 -0.6204 -0.1957
10202TIP3    H152021   2.466   3.997  15.533  0.3985 -0.6905 -0.9517
10202TIP3    H252022   2.542   4.115  15.475  0.0210  0.1710  0.2462
10203TIP3   OH252023   6.371   1.849   5.529 -0.2274  0.0909  0.4503
10203TIP3    H152024   6.304   1.909   5.498 -0.4656 -0.2913  0.2139
10203TIP3    H252025   6.353   1.767   5.483 -0.9414 -0.6636  1.9926
10204TIP3   OH252026   2.692   4.330   5.914 -0.3842 -0.1446 -0.3333
10204TIP3    H152027   2.690   4.419   5.948 -3.1563 -0.9888  2.0408
10204TIP3    H252028   2.771   4.291   5.952  0.6746  1.1377 -1.1448
10205TIP3   OH252029   6.272   1.809   1.070 -0.4809  0.0366 -0.9258
10205TIP3    H152030   6.189   1.850   1.093 -0.6408  0.6048 -2.3930
10205TIP3    H252031   6.265   1.719   1.103 -1.2622  0.3719 -0.1590
10206TIP3   OH252032   6.695   0.228  12.277  0.5984  0.2791 -0.3815
10206TIP3    H152033   6.731   0.281  12.206  0.7304  1.4721  0.5435
10206TIP3    H252034   6.753   0.152  12.282  0.3640 -0.0192 -1.7843
10207TIP3   OH252035   5.188   4.181   1.857  0.7826 -0.4167  0.0036
10207TIP3    H152036   5.109   4.196   1.909 -0.3372 -1.7178 -1.2786
10207TIP3    H252037   5.259   4.207   1.916 -0.4440 -1.4489  2.0756
10208TIP3   OH252038   0.069   0.869   1.563  0.0515 -0.1146 -0.3539
10208TIP3    H152039   0.128   0.860   1.489  0.1844  0.8614 -0.3728
10208TIP3    H252040  -0.008   0.914   1.527  0.2424  0.6339  0.1653
10209TIP3   OH252041   5.693   2.987  15.566  0.3802  0.4037 -0.1085
10209TIP3    H152042   5.674   2.950  15.652 -0.2501 -0.1730 -0.4939
10209TIP3    H252043   5.789   2.993  15.564  0.5807 -1.9859 -0.3401
10210TIP3   OH252044   3.538   0.351  15.282  0.0422 -0.0189  0.3303
10210TIP3    H152045   3.625   0.381  15.308  0.6133 -0.0827 -1.3895
10210TIP3    H252046   3.498   0.426  15.239 -0.4865 -0.2062  0.4824
10211TIP3   OH252047   3.752   1.665   0.908 -0.2250 -0.4825 -0.4831
10211TIP3    H152048   3.681   1.600   0.906  0.3092 -1.0686 -0.6309
10211TIP3    H252049   3.755   1.700   0.819 -1.8895  1.2872  0.0753
10212TIP3   OH252050   6.010   5.196   3.882 -0.2623 -0.5617 -0.5702
10212TIP3    H152051   5.956   5.274   3.866 -0.1131 -0.6206 -1.3963
10212TIP3    H252052   5.954   5.123   3.857 -1.0197 -0.8571  1.8043
10213TIP3   OH252053   5.474   5.628  15.252  0.0089  0.0387 -0.2097
10213TIP3    H152054   5.434   5.680  15.182 -0.6253  0.5891  0.5460
10213TIP3    H252055   5.467   5.537  15.222  1.4444  0.3878 -1.7049
10214TIP3   OH252056   1.728   4.984   2.288 -0.8821  0.2163  0.1175
10214TIP3    H152057   1.738   5.075   2.260 -1.4444  0.3667  0.3930
10214TIP3    H252058   1.751   4.932   2.211  1.5514  0.5256  0.5620
10215TIP3   OH252059   1.491   3.916  16.885  0.0177 -0.5409 -0.4127
10215TIP3    H152060   1.441   3.836  16.871  0.9812 -1.4556  1.0850
10215TIP3    H252061   1.425   3.982  16.907 -0.8144 -0.8140 -1.9527
10216TIP3   OH252062   3.875   5.894   3.403 -0.1811 -0.0450 -0.6965
10216TIP3    H152063   3.851   5.825   3.465  2.3201 -1.2277 -0.9226
10216TIP3    H252064   3.944   5.944   3.448 -0.3435  0.8696 -1.4363
10217TIP3   OH252065   3.266   0.716  11.171 -0.0396 -0.7917  0.2153
10217TIP3    H152066   3.343   0.772  11.180 -1.4703  1.0603  2.2207
10217TIP3    H252067   3.203   0.771  11.124 -0.2274 -2.2249 -1.2856
10218TIP3   OH252068   4.042   3.434  15.819 -0.0588 -0.2017  0.3114
10218TIP3    H152069   4.071   3.343  15.819 -0.1371 -0.2276  0.1337
10218TIP3    H252070   4.099   3.478  15.755  0.7244  0.1178  1.2081
10219TIP3   OH252071   5.606   0.839  15.148  0.4959 -0.4177 -0.6818
10219TIP3    H152072   5.530   0.825  15.092  0.2640  1.0820 -0.7742
10219TIP3    H252073   5.602   0.768  15.212 -0.5799 -0.7647 -1.1169
10220TIP3   OH252074   3.122   1.709  15.427  0.1685  0.2969 -0.3593
10220TIP3    H152075   3.134   1.619  15.398 -0.5460 -0.5402  1.7165
10220TIP3    H252076   3.046   1.740  15.378  0.9157  0.1010 -1.7003
10221TIP3   OH252077   4.803   1.795   1.991 -0.3888 -0.0908  0.3026
10221TIP3    H152078   4.763   1.723   2.040 -1.9366 -1.3406 -2.5536
10221TIP3    H252079   4.728   1.846   1.958  0.5661  0.6775 -0.7737
10222TIP3   OH252080   6.312   5.779   6.569 -0.1993  0.1703  0.4233
10222TIP3    H152081   6.299   5.686   6.548 -0.2497  0.2487  0.1061
10222TIP3    H252082   6.381   5.779   6.635  2.5624  0.0970 -2.2244
10223TIP3   OH252083   2.910   4.278   4.798 -0.3023  0.1172  0.4806
10223TIP3    H152084   2.881   4.314   4.714 -0.8546 -0.0050  0.6189
10223TIP3    H252085   2.831   4.271   4.850 -0.4202 -2.2211  0.1193
10224TIP3   OH252086   5.866   6.214  13.769  0.2692 -0.3033  0.0237
10224TIP3    H152087   5.827   6.224  13.855  0.8815 -1.2403  0.4298
10224TIP3    H252088   5.860   6.120  13.750  3.8872 -0.9006  0.9496
10225TIP3   OH252089   2.887   1.194   4.124 -0.5854 -0.0976 -0.1097
10225TIP3    H152090   2.919   1.203   4.034 -1.8978 -0.9179 -0.6863
10225TIP3    H252091   2.841   1.110   4.124  0.7959 -0.9338  1.7770
10226TIP3   OH252092   3.592   1.742   4.374 -0.6258 -0.0154  0.4125
10226TIP3    H152093   3.614   1.678   4.442 -2.8746 -0.9889  0.3189
10226TIP3    H252094   3.586   1.690   4.294 -1.0451  0.5753  0.0610
10227TIP3   OH252095   3.687   6.265  13.877 -0.5881 -0.2872  0.2302
10227TIP3    H152096   3.709   6.195  13.938  0.6498  1.4713  1.8974
10227TIP3    H252097   3.640   6.329  13.930 -1.2349  0.4195 -1.1449
10228TIP3   OH252098   4.434   5.032  12.656 -0.9440 -0.4832 -0.3766
10228TIP3    H152099   4.391   4.949  12.633  0.8521 -1.6223  0.1739
10228TIP3    H252100   4.519   5.028  12.612 -0.3049  0.4712  0.7213
10229TIP3   OH252101   1.772   0.715  12.288 -0.2612  0.1082 -0.0792
10229TIP3    H152102   1.695   0.721  12.231 -0.1866 -0.1789 -0.2159
10229TIP3    H252103   1.805   0.626  12.272  0.2389  0.3156 -0.2037
10230TIP3   OH252104   0.895   2.063   3.505  0.3741 -0.4757 -0.1860
10230TIP3    H152105   0.958   2.023   3.564  0.7716  0.2103 -0.1333
10230TIP3    H252106   0.948   2.109   3.440 -0.0596  0.4586  0.0947
10231TIP3   OH252107   2.945   1.669   2.557 -0.1362  0.4274 -0.2394
10231TIP3    H152108   2.859   1.710   2.550  0.6936  2.2921 -0.0585
10231TIP3    H252109   3.007   1.740   2.542  1.3881 -1.0552 -1.2883
10232TIP3   OH252110   2.532   2.916  11.000  0.4184  0.0286  0.2088
10232TIP3    H152111   2.609   2.861  10.982  1.0061  0.6735  0.6969
10232TIP3    H252112   2.494   2.934  10.914  0.7097 -0.4308 -0.0229
10233TIP3   OH252113   0.087   6.813   5.595 -0.1941 -0.5004  0.1456
10233TIP3    H152114   0.058   6.883   5.536 -0.7086 -0.1690  0.7770
10233TIP3    H252115   0.082   6.852   5.682 -1.1796 -1.5426  0.5847
10234TIP3   OH252116   5.157   3.480  13.986 -0.2182 -0.5534 -0.5318
10234TIP3    H152117   5.079   3.534  13.969  0.2026  0.6940  1.1043
10234TIP3    H252118   5.230   3.539  13.970  0.2592 -0.5506  1.3400
10235TIP3   OH252119   2.653   4.143  16.707  0.6206  0.5255  0.2369
10235TIP3    H152120   2.584   4.204  16.682 -0.2193 -0.3458  0.3844
10235TIP3    H252121   2.633   4.120  16.798  0.8447 -0.0708  0.1418
10236TIP3   OH252122   1.513   1.164  12.046  0.1421  0.1985 -0.4389
10236TIP3    H152123   1.542   1.076  12.069 -0.1924  0.2777  0.2910
10236TIP3    H252124   1.441   1.182  12.106 -0.5135  0.5429 -1.3095
10237TIP3   OH252125   4.759   3.576  16.662 -0.7920 -0.4935  0.0345
10237TIP3    H152126   4.702   3.638  16.706  0.9688  0.7250  0.7332
10237TIP3    H252127   4.761   3.499  16.719  0.5753  0.6343  1.6045
10238TIP3   OH252128   6.395   1.369   5.360  0.2588  0.0772 -0.1843
10238TIP3    H152129   6.446   1.337   5.285  0.5899  0.9314 -0.3439
10238TIP3    H252130   6.453   1.358   5.435 -0.8033 -2.6986  0.3523
10239TIP3   OH252131   0.060   6.491  11.894  0.4058 -0.1158 -0.1069
10239TIP3    H152132   0.135   6.502  11.953  0.5644  1.7229 -0.5707
10239TIP3    H252133   0.093   6.521  11.809 -0.5729 -0.2186 -0.5355
10240TIP3   OH252134   2.420   4.966   0.339 -0.7062 -0.0601 -0.2395
10240TIP3    H152135   2.377   4.908   0.403  1.6101  0.3371  1.8181
10240TIP3    H252136   2.509   4.977   0.373  0.6588  0.2268 -3.5610
10241TIP3   OH252137   6.122   3.650  15.535  0.2536  0.0127 -0.0143
10241TIP3    H152138   6.030   3.668  15.556  0.0526 -2.7134  1.9470
10241TIP3    H252139   6.171   3.706  15.594 -0.0663  1.4755 -1.0599
10242TIP3   OH252140   6.820   5.806   5.364 -0.0036 -0.1073  0.6704
10242TIP3    H152141   6.735   5.830   5.327  0.5277  0.5950 -0.1375
10242TIP3    H252142   6.832   5.866   5.438  0.3763  0.7235 -0.0464
10243TIP3   OH252143   0.243   6.078   0.308 -0.0124  0.0070 -0.5183
10243TIP3    H152144   0.306   6.035   0.249 -0.8507  0.0413 -1.4743
10243TIP3    H252145   0.240   6.168   0.278  0.5126  0.3605  0.4363
10244TIP3   OH252146   2.866   5.949   2.499 -0.5659  0.0832  0.0124
10244TIP3    H152147   2.889   5.858   2.479 -0.5045  0.3249 -1.0771
10244TIP3    H252148   2.831   5.983   2.417 -1.5169  0.7615  0.6871
10245TIP3   OH252149   0.903   2.919  16.101  0.4084  0.1039 -0.8219
10245TIP3    H152150   0.862   3.004  16.116  0.8795  0.3589 -0.9501
10245TIP3    H252151   0.830   2.858  16.093  0.0779  0.4363 -0.3769
10246TIP3   OH252152   5.035   4.561  12.670 -0.4203  0.0897  0.3740
10246TIP3    H152153   5.084   4.621  12.614 -0.2178 -1.2224 -0.9127
10246TIP3    H252154   5.065   4.582  12.759  2.6939 -0.7713 -0.3397
10247TIP3   OH252155   0.361   6.268  12.262  0.2737 -0.0971 -0.4060
10247TIP3    H152156   0.324   6.180  12.272  1.8674 -0.8617 -1.0391
10247TIP3    H252157   0.455   6.254  12.252  0.5788  1.7014 -0.3169
10248TIP3   OH252158   3.434   0.969   3.592 -0.3876  0.1523 -0.1155
10248TIP3    H152159   3.441   0.948   3.685  0.9481 -0.8195 -0.3991
10248TIP3    H252160   3.524   0.990   3.565 -0.6720 -0.0191 -1.2734
10249TIP3   OH252161   6.657   3.384  11.361  0.6224 -0.5368 -0.1953
10249TIP3    H152162   6.577   3.431  11.337  0.5457 -0.5773 -0.0179
10249TIP3    H252163   6.639   3.293  11.340  0.7252 -0.5062 -0.4200
10250TIP3   OH252164   3.488   3.435   1.044 -0.4540  0.1125 -0.2821
10250TIP3    H152165   3.488   3.340   1.056  0.9156  0.2238  1.0824
10250TIP3    H252166   3.568   3.452   0.993 -0.5254  0.5429 -0.2516
10251TIP3   OH252167   6.786   4.044   4.404 -0.1605 -0.2130  0.2809
10251TIP3    H152168   6.716   4.054   4.469 -1.6580 -1.4026 -1.0731
10251TIP3    H252169   6.744   4.058   4.320  1.6052  0.6290 -0.5339
10252TIP3   OH252170   1.435   0.253  13.159  0.0610 -0.0478  0.4525
10252TIP3    H152171   1.527   0.226  13.163  0.5623  1.4690  0.1020
10252TIP3    H252172   1.420   0.297  13.243 -0.6911 -1.2594  0.9700
10253TIP3   OH252173   3.588   0.639  13.620 -0.1732  0.6405 -0.8084
10253TIP3    H152174   3.494   0.633  13.602 -0.3444  0.7325 -0.0012
10253TIP3    H252175   3.614   0.550  13.641 -0.1788  0.6908 -0.5857
10254TIP3   OH252176   3.934   0.862  15.181  0.4015 -0.3305  0.0256
10254TIP3    H152177   3.900   0.944  15.217  1.2488  1.4526 -2.9366
10254TIP3    H252178   3.857   0.816  15.149  0.1658  1.5502 -2.4461
10255TIP3   OH252179   2.597   1.475   3.199 -0.0027 -0.0923 -0.8074
10255TIP3    H152180   2.510   1.435   3.192 -1.6735  2.7857  1.2098
10255TIP3    H252181   2.657   1.401   3.208 -2.7283 -2.2225  1.9762
10256TIP3   OH252182   4.527   5.153   2.525 -0.3604  0.2354 -0.0739
10256TIP3    H152183   4.468   5.128   2.454  0.4632 -1.3407 -0.2319
10256TIP3    H252184   4.469   5.177   2.597 -1.1957  1.2083 -1.0366
10257TIP3   OH252185   2.465   4.850  14.403 -0.1240  0.0819 -0.0654
10257TIP3    H152186   2.444   4.942  14.387  2.3547  0.4769 -1.6158
10257TIP3    H252187   2.420   4.829  14.485 -0.9809  2.5712  0.1842
10258TIP3   OH252188   5.385   0.736   1.083 -0.1961 -0.6548  0.1712
10258TIP3    H152189   5.303   0.686   1.075  0.2313 -1.1807 -1.1540
10258TIP3    H252190   5.403   0.767   0.995 -0.0887  1.3282  0.8487
10259TIP3   OH252191   5.975   4.729  12.230 -1.0740  0.8139  0.1398
10259TIP3    H152192   6.040   4.799  12.228 -0.1907  0.0324  0.6112
10259TIP3    H252193   6.015   4.661  12.285 -2.9045  0.9198  1.7041
10260TIP3   OH252194   2.976   5.904  13.983  0.2646  0.0581  0.1564
10260TIP3    H152195   2.894   5.896  13.934  0.5803  1.4665 -0.6532
10260TIP3    H252196   2.959   5.859  14.066 -0.6500 -1.4259 -0.7869
10261TIP3   OH252197   6.777   3.795  16.415 -0.1535 -0.1802  0.0219
10261TIP3    H152198   6.740   3.729  16.356  0.0228  1.3208 -1.8595
10261TIP3    H252199   6.731   3.876  16.393  2.5624  1.2635 -0.7989
10262TIP3   OH252200   2.110   3.474   1.648  0.0536  0.1902 -0.2549
10262TIP3    H152201   2.141   3.534   1.580 -0.5068  0.3428 -0.3824
10262TIP3    H252202   2.015   3.489   1.652 -0.0865 -0.6494 -0.2533
10263TIP3   OH252203   1.013   3.982   2.049  0.0039  0.2772 -0.2810
10263TIP3    H152204   1.077   3.986   2.120  0.4123 -1.3559 -0.5141
10263TIP3    H252205   1.066   3.985   1.969 -0.4929  2.7920 -0.5825
10264TIP3   OH252206   5.162   6.585   1.584 -0.1920 -0.2704 -0.4228
10264TIP3    H152207   5.114   6.544   1.512 -1.5304  0.5001  0.0087
10264TIP3    H252208   5.103   6.653   1.617  0.6805 -0.1521  0.9569
10265TIP3   OH252209   0.588   2.589   0.320  0.2669 -0.1262  0.7081
10265TIP3    H152210   0.644   2.512   0.306  0.8134  0.5571 -1.0956
10265TIP3    H252211   0.574   2.625   0.233 -0.8291  1.2559  1.4167
10266TIP3   OH252212   0.853   5.364  15.649 -0.0340 -0.3132 -0.2228
10266TIP3    H152213   0.882   5.443  15.694  1.2500 -0.2034 -1.1821
10266TIP3    H252214   0.812   5.396  15.569 -1.2546 -0.5536  0.2892
10267TIP3   OH252215   5.082   6.409   0.365 -0.2212 -0.1314 -0.0012
10267TIP3    H152216   5.098   6.493   0.409  1.1861  0.2529 -1.1882
10267TIP3    H252217   5.153   6.401   0.301 -1.0279 -1.6609 -0.7560
10268TIP3   OH252218   1.319   5.481  14.781 -0.5196 -0.4888 -0.1139
10268TIP3    H152219   1.398   5.500  14.730 -0.8818 -0.1698 -0.5751
10268TIP3    H252220   1.322   5.543  14.854 -1.7365  1.5666 -1.6539
10269TIP3   OH252221   3.803   2.162   4.996  0.3836  0.2898 -0.1134
10269TIP3    H152222   3.822   2.111   4.918  0.1989  0.9759 -0.6167
10269TIP3    H252223   3.713   2.193   4.983  0.4482  0.6351  0.2400
10270TIP3   OH252224   6.452   5.298  15.114  0.3532  0.3239  0.2326
10270TIP3    H152225   6.393   5.367  15.142 -2.0628 -1.9285  1.0994
10270TIP3    H252226   6.452   5.234  15.185  2.5133 -0.6210 -0.4900
10271TIP3   OH252227   6.200   3.041  15.633 -0.2224  0.2054 -0.4561
10271TIP3    H152228   6.173   3.084  15.552 -1.6813  1.0222  0.4190
10271TIP3    H252229   6.278   3.088  15.660 -1.9847  2.7174  0.6843
10272TIP3   OH252230   1.382   5.927  12.465 -0.4100 -0.1138  0.3214
10272TIP3    H152231   1.367   5.832  12.468  1.7519 -0.4902  1.1924
10272TIP3    H252232   1.460   5.940  12.518 -0.1358  2.0662 -0.5300
10273TIP3   OH252233   0.552   2.948  16.516 -0.4724  0.5486  0.0008
10273TIP3    H152234   0.577   2.884  16.583  1.9010  0.0065 -1.3023
10273TIP3    H252235   0.565   2.903  16.433  1.7009  2.7324 -0.9967
10274TIP3   OH252236   0.550   3.483  16.924  0.1211  0.1714 -0.2271
10274TIP3    H152237   0.547   3.428  16.846  0.1690 -0.6419  0.3370
10274TIP3    H252238   0.492   3.557  16.903 -0.0575 -0.1618 -0.9316
10275TIP3   OH252239   2.867   4.899  12.575 -0.4147 -0.1160  0.2783
10275TIP3    H152240   2.919   4.961  12.625  1.0536 -1.0398 -0.0538
10275TIP3    H252241   2.776   4.921  12.597  0.0902  1.5279  0.8645
10276TIP3   OH252242   6.292   6.687   1.235 -0.4754 -0.7579 -0.2420
10276TIP3    H152243   6.208   6.677   1.189  0.9105 -0.2001 -3.1300
10276TIP3    H252244   6.327   6.598   1.241 -1.1239 -0.9632  0.7686
10277TIP3   OH252245   6.525   5.161  14.056 -0.4008 -0.4426 -0.0900
10277TIP3    H152246   6.501   5.236  14.001  1.1319  0.5988  0.5645
10277TIP3    H252247   6.472   5.089  14.024 -0.1909  0.3350 -2.3670
10278TIP3   OH252248   2.443   5.049   3.688  0.1395  0.0706  0.7455
10278TIP3    H152249   2.367   5.070   3.633  0.8004  1.4138  0.2971
10278TIP3    H252250   2.411   5.057   3.778 -0.6505 -0.9970  0.5850
10279TIP3   OH252251   2.466   5.085   3.244  0.5840 -0.2336  0.7245
10279TIP3    H152252   2.557   5.114   3.240  0.6542 -0.4677  0.5741
10279TIP3    H252253   2.416   5.157   3.204  0.8351 -0.6290 -0.3447
10280TIP3   OH252254   4.451   1.815   3.740 -0.0908  0.0445  0.1561
10280TIP3    H152255   4.453   1.719   3.732  0.6125  0.0256  0.5227
10280TIP3    H252256   4.403   1.832   3.821 -0.1853  0.0074  0.1090
10281TIP3   OH252257   2.055   2.171  14.592  0.1084  0.3120 -0.4998
10281TIP3    H152258   1.959   2.163  14.590 -0.0622  2.0839 -1.3220
10281TIP3    H252259   2.072   2.258  14.556  2.0445  0.0205 -0.3633
10282TIP3   OH252260   5.914   0.392   1.050  0.2160 -0.2669  0.0762
10282TIP3    H152261   5.914   0.312   1.104 -1.5829 -0.6575 -0.4386
10282TIP3    H252262   6.006   0.406   1.028  0.7416 -1.3172  1.4617
10283TIP3   OH252263   1.637   1.242   3.776 -0.1107  0.1181 -0.1595
10283TIP3    H152264   1.552   1.201   3.760 -0.5833  1.1989 -0.5269
10283TIP3    H252265   1.691   1.217   3.702  0.4248 -1.8787  0.8437
10284TIP3   OH252266   6.034   3.327   2.965  0.6924  0.3382 -0.3686
10284TIP3    H152267   5.969   3.330   3.036 -1.0449 -0.1174 -1.8593
10284TIP3    H252268   6.105   3.274   3.000 -0.8496 -1.2528  0.4992
10285TIP3   OH252269   5.439   4.288   1.009 -0.2434 -0.5531 -0.3557
10285TIP3    H152270   5.357   4.256   1.047  0.7811 -1.7559  0.9424
10285TIP3    H252271   5.461   4.224   0.941 -0.4865 -0.1079 -0.8591
10286TIP3   OH252272   2.199   2.437  14.858 -0.3684  0.2257  0.0763
10286TIP3    H152273   2.188   2.520  14.813 -0.1714  0.2436  0.0602
10286TIP3    H252274   2.290   2.437  14.888 -0.0689 -0.4081 -0.7968
10287TIP3   OH252275   2.377   5.312   3.477 -0.1591  0.0547  0.0916
10287TIP3    H152276   2.454   5.311   3.420 -0.2151  0.2361  0.0114
10287TIP3    H252277   2.307   5.273   3.424 -0.8215  2.3361 -0.8495
10288TIP3   OH252278   4.248   5.033  11.511 -0.2110 -0.4535  0.0958
10288TIP3    H152279   4.187   4.972  11.554 -0.2645 -0.9568 -0.6628
10288TIP3    H252280   4.200   5.065  11.435  0.6887 -1.3864 -0.9053
10289TIP3   OH252281   4.093   5.248   2.683  0.4980 -0.5705  0.2715
10289TIP3    H152282   4.117   5.334   2.649  2.2383 -0.9958  0.3374
10289TIP3    H252283   4.061   5.266   2.771 -0.8121  0.1644 -0.3166
10290TIP3   OH252284   4.697   4.346   0.251 -0.2957 -0.1570  0.2317
10290TIP3    H152285   4.664   4.397   0.325  0.2279 -0.5525  0.7492
10290TIP3    H252286   4.766   4.401   0.213  1.4908 -1.1459  1.8496
10291TIP3   OH252287   4.536   6.040   6.028 -0.1805 -0.1371  0.8143
10291TIP3    H152288   4.587   6.118   6.006 -0.0979 -0.0436  1.3258
10291TIP3    H252289   4.599   5.969   6.027 -0.3212 -0.2626 -0.0019
10292TIP3   OH252290   6.682   2.454   3.555 -0.3355 -0.6798  0.1429
10292TIP3    H152291   6.718   2.539   3.582 -0.6520  0.1705 -1.8967
10292TIP3    H252292   6.745   2.390   3.587  1.1874  0.5238 -0.3053
10293TIP3   OH252293   5.994   6.321   4.925  0.1006 -0.1664  0.3816
10293TIP3    H152294   5.944   6.303   4.846 -0.4368 -0.8175  0.8610
10293TIP3    H252295   5.958   6.261   4.991  0.3072  0.6041  1.2150
10294TIP3   OH252296   0.603   3.190  15.664 -0.0230  0.3710  0.0638
10294TIP3    H152297   0.535   3.129  15.693 -0.2330  0.8109  0.4969
10294TIP3    H252298   0.563   3.240  15.593  0.8401 -1.4774 -1.8764
10295TIP3   OH252299   5.156   1.762   3.534 -0.4500  0.1587 -0.1752
10295TIP3    H152300   5.214   1.797   3.602  0.3313 -0.0430 -0.7167
10295TIP3    H252301   5.138   1.672   3.563 -0.4669  0.2121 -0.0181
10296TIP3   OH252302   4.524   0.361  13.948 -0.1397 -0.3958 -0.3738
10296TIP3    H152303   4.527   0.296  13.879 -1.9619  1.5783 -2.4689
10296TIP3    H252304   4.436   0.351  13.987 -0.4716  0.7968 -0.7693
10297TIP3   OH252305   3.945   2.732   6.221 -0.8799  0.0879  0.0432
10297TIP3    H152306   3.932   2.821   6.190  0.6553  0.0463 -0.7960
10297TIP3    H252307   3.949   2.740   6.316 -3.3277  0.5341  0.1703
10298TIP3   OH252308   5.574   1.907   4.836 -0.3092  0.1905  0.8368
10298TIP3    H152309   5.577   1.815   4.860  0.6264 -0.3065 -0.9651
10298TIP3    H252310   5.656   1.944   4.868  0.2196 -0.0987 -0.1416
10299TIP3   OH252311   0.744   3.830   2.937  0.7611 -0.3535  0.5406
10299TIP3    H152312   0.673   3.765   2.941  0.4700 -0.1556 -0.9092
10299TIP3    H252313   0.728   3.878   2.855  4.1144 -2.1386 -1.3804
10300TIP3   OH252314   4.357   5.218   3.816 -0.4997  0.2244 -0.0160
10300TIP3    H152315   4.327   5.208   3.906  0.6986  1.0899  0.5089
10300TIP3    H252316   4.449   5.191   3.818  0.2436  2.4917 -0.4255
10301TIP3   OH252317   0.914   3.304  12.367  0.2073  0.4027 -0.0311
10301TIP3    H152318   0.968   3.247  12.422 -0.7126 -0.6158 -0.1466
10301TIP3    H252319   0.929   3.392  12.402 -0.2822 -0.2086  1.8098
10302TIP3   OH252320   4.445   2.158   4.099 -0.0616  0.3134 -0.9418
10302TIP3    H152321   4.359   2.182   4.065  0.0804  0.2854 -1.3274
10302TIP3    H252322   4.470   2.081   4.048 -0.2926 -0.3616 -0.0720
10303TIP3   OH252323   6.715   3.883  15.100  0.3172  0.2193 -0.0877
10303TIP3    H152324   6.716   3.977  15.085  0.3561  0.2259 -0.0445
10303TIP3    H252325   6.622   3.860  15.104  0.2776  0.0015 -1.6882
10304TIP3   OH252326   2.956   3.700   1.363  0.4431  0.4961 -0.2012
10304TIP3    H152327   3.045   3.726   1.386  0.4961 -0.4391  0.7453
10304TIP3    H252328   2.964   3.608   1.338 -0.6126 -0.4534  2.5739
10305TIP3   OH252329   0.110   4.165  14.869 -0.7455 -0.5159 -0.2991
10305TIP3    H152330   0.187   4.118  14.902 -2.2091 -2.4283  0.5805
10305TIP3    H252331   0.104   4.243  14.925  0.1338 -0.7010  0.0804
10306TIP3   OH252332   3.769   4.927  16.828 -0.0662 -0.0706 -0.3159
10306TIP3    H152333   3.862   4.949  16.838 -0.3921  1.1308  0.2096
10306TIP3    H252334   3.738   4.983  16.758 -0.3498 -0.6463 -0.6579
10307TIP3   OH252335   2.394   0.628  16.141 -0.4006 -0.3696 -0.7255
10307TIP3    H152336   2.457   0.673  16.086 -0.0207  0.5222  0.4125
10307TIP3    H252337   2.311   0.635  16.094  0.0371 -0.2005 -1.4832
10308TIP3   OH252338   5.506   4.142  13.191  0.3640  0.5484 -0.0139
10308TIP3    H152339   5.452   4.101  13.124  2.2645 -1.7684 -0.2760
10308TIP3    H252340   5.474   4.106  13.274  0.9577 -0.2162 -0.1049
10309TIP3   OH252341   2.840   3.233  10.748 -0.4099 -0.0908 -0.1091
10309TIP3    H152342   2.906   3.173  10.783 -0.1674 -0.5455 -1.2994
10309TIP3    H252343   2.855   3.233  10.653 -0.8653  1.3094 -0.2051
10310TIP3   OH252344   1.118   4.969  14.335 -0.0791  0.3916 -0.3917
10310TIP3    H152345   1.081   4.881  14.331 -0.4582  0.5860 -1.5456
10310TIP3    H252346   1.059   5.016  14.395 -0.8734  0.3040 -1.0806
10311TIP3   OH252347   3.969   5.935  15.092 -0.7520  0.5862 -0.4070
10311TIP3    H152348   3.965   5.974  15.004 -0.1161 -0.3524 -0.8610
10311TIP3    H252349   4.025   5.994  15.141 -0.8097  0.9204 -0.7347
10312TIP3   OH252350   4.920   4.583   4.280 -0.5671  0.3543  0.5973
10312TIP3    H152351   5.006   4.621   4.264 -0.7254  0.7890  0.7559
10312TIP3    H252352   4.927   4.546   4.368 -0.0339 -1.0802 -0.0254
10313TIP3   OH252353   3.693   1.165  10.985 -0.5614 -0.1863 -0.2642
10313TIP3    H152354   3.597   1.173  10.978 -0.3999  1.9560 -0.7218
10313TIP3    H252355   3.708   1.143  11.077 -1.4443  1.7272  0.4061
10314TIP3   OH252356   2.900   2.749  14.250  0.3009  0.3773 -0.0127
10314TIP3    H152357   2.890   2.704  14.166  1.7774  0.2856 -0.1553
10314TIP3    H252358   2.838   2.822  14.245 -0.4661 -0.2873 -0.6992
10315TIP3   OH252359   5.808   3.621  16.950 -0.1657  0.0329  0.0052
10315TIP3    H152360   5.866   3.545  16.952  0.4705  0.5142  1.0646
10315TIP3    H252361   5.751   3.607  16.874  0.4361 -1.1205 -0.2490
10316TIP3   OH252362   4.472   0.239  12.512  0.1660 -0.0535 -0.0034
10316TIP3    H152363   4.486   0.163  12.569 -1.8527  1.2378  2.3843
10316TIP3    H252364   4.463   0.202  12.425  1.2791 -2.3344  0.7737
10317TIP3   OH252365   5.231   5.055  11.593  0.2791  0.4839 -0.5612
10317TIP3    H152366   5.324   5.035  11.591  0.0859 -0.7918  1.0623
10317TIP3    H252367   5.218   5.102  11.675 -0.9989 -2.5492  1.1472
10318TIP3   OH252368   5.620   4.278   5.828 -0.1103  0.1432  0.4035
10318TIP3    H152369   5.547   4.219   5.844  0.8739 -1.0744  0.5325
10318TIP3    H252370   5.690   4.245   5.885  0.7290  0.9291 -0.1498
10319TIP3   OH252371   4.678   4.884   5.581  1.1085  0.4785  0.1389
10319TIP3    H152372   4.591   4.865   5.616  1.4743  0.0812  0.8491
10319TIP3    H252373   4.662   4.912   5.491  0.3052 -0.2523  0.0429
10320TIP3   OH252374   4.616   0.766  16.923  0.2327  0.7431  0.5444
10320TIP3    H152375   4.644   0.789  16.834 -0.0714 -0.7686  0.0183
10320TIP3    H252376   4.598   0.849  16.966 -0.9072  1.4536 -1.2398
10321TIP3   OH252377   5.870   6.232   4.673  0.3352  0.0263  0.1399
10321TIP3    H152378   5.914   6.156   4.637  0.9444  0.5417 -0.2369
10321TIP3    H252379   5.800   6.251   4.611  0.5049  0.0769 -0.0373
10322TIP3   OH252380   3.478   2.932   5.676 -0.1282 -0.1653 -0.4082
10322TIP3    H152381   3.504   3.023   5.661 -1.5208  0.0625 -1.7361
10322TIP3    H252382   3.382   2.936   5.683 -0.3473 -1.6887 -1.9291
10323TIP3   OH252383   2.441   2.044  11.164  0.7626 -0.4589  0.2637
10323TIP3    H152384   2.399   2.108  11.107 -0.2427 -1.3045  0.0338
10323TIP3    H252385   2.468   1.973  11.106 -0.3178 -1.3532  0.8224
10324TIP3   OH252386   1.831   4.709  15.257 -0.1418 -0.0502  0.2480
10324TIP3    H152387   1.812   4.739  15.168 -0.8665  0.2785  0.5094
10324TIP3    H252388   1.900   4.644  15.246 -1.7538 -1.6727 -0.7978
10325TIP3   OH252389   4.922   0.747   2.843 -0.7686 -0.2574 -0.1748
10325TIP3    H152390   5.009   0.767   2.810 -0.2803 -1.2030  0.4902
10325TIP3    H252391   4.906   0.813   2.910 -0.6042 -0.0270 -0.3606
10326TIP3   OH252392   1.628   5.318   2.854 -0.3980  0.6059  0.0464
10326TIP3    H152393   1.544   5.363   2.858 -0.7471 -0.0222 -0.2984
10326TIP3    H252394   1.678   5.356   2.927 -2.8870 -2.9234  4.0365
10327TIP3   OH252395   3.836   6.821  12.166  0.1517  0.2380 -0.2976
10327TIP3    H152396   3.863   6.912  12.154  1.2016  0.0845  0.6847
10327TIP3    H252397   3.800   6.818  12.255  1.5276 -0.5917  0.2608
10328TIP3   OH252398   6.606   1.106  15.003 -0.4920 -0.3605 -0.6354
10328TIP3    H152399   6.593   1.011  14.994  1.8177 -1.0113  1.5235
10328TIP3    H252400   6.554   1.130  15.079  1.2953 -0.6192  0.7511
10329TIP3   OH252401   4.579   3.738   3.878 -0.2720 -0.2317 -0.4256
10329TIP3    H152402   4.658   3.734   3.932  0.2850 -3.2427 -1.2747
10329TIP3    H252403   4.543   3.825   3.895  1.4547  0.0567  2.4733
10330TIP3   OH252404   4.576   0.491  13.572 -0.3130 -0.2728  0.1562
10330TIP3    H152405   4.595   0.565  13.630  0.9019 -1.3591  1.2014
10330TIP3    H252406   4.560   0.532  13.486 -0.9697  1.2790  0.9669
10331TIP3   OH252407   5.326   4.525  16.799  0.0113 -0.0252  0.2182
10331TIP3    H152408   5.254   4.498  16.741  1.5564 -3.5645 -0.3805
10331TIP3    H252409   5.391   4.562  16.739  0.5769 -1.3477 -0.0347
10332TIP3   OH252410   1.410   5.947   1.288 -0.7858  0.3078  0.4672
10332TIP3    H152411   1.319   5.920   1.296 -0.8370 -0.5282 -1.9374
10332TIP3    H252412   1.457   5.866   1.270  0.2893  0.8602  0.7175
10333TIP3   OH252413   2.771   1.914   0.346  0.1756  0.4617  0.8666
10333TIP3    H152414   2.781   1.841   0.408 -2.9046 -0.3697  0.5638
10333TIP3    H252415   2.677   1.933   0.347 -0.1182  0.2819 -3.6318
10334TIP3   OH252416   1.591   4.912   5.501  0.0700  0.4693 -0.1747
10334TIP3    H152417   1.574   4.956   5.584  0.5101  0.0348  0.1531
10334TIP3    H252418   1.604   4.820   5.525 -1.2699  0.0716 -0.9000
10335TIP3   OH252419   6.083   5.742  13.517 -0.4608 -0.1145  0.2504
10335TIP3    H152420   6.164   5.694  13.504  0.2555  1.1496 -0.1774
10335TIP3    H252421   6.111   5.832  13.536 -1.7606  0.5143 -0.6170
10336TIP3   OH252422   6.720   0.371   5.271 -0.2864  0.4217  0.0688
10336TIP3    H152423   6.627   0.395   5.261 -0.5644 -0.9639 -1.1219
10336TIP3    H252424   6.731   0.297   5.211  1.2731 -0.3018  1.1923
10337TIP3   OH252425   0.957   3.244  11.969 -0.7071 -0.1041  0.7019
10337TIP3    H152426   1.000   3.176  11.916 -1.3534  0.6114 -0.7847
10337TIP3    H252427   0.917   3.302  11.905  0.7529  2.3381  1.8716
10338TIP3   OH252428   3.402   0.023  14.373 -0.1435  0.4090  0.0851
10338TIP3    H152429   3.408  -0.048  14.437 -2.3571 -0.8028 -0.9453
10338TIP3    H252430   3.378   0.100  14.425 -0.1611 -0.1615  0.9347
10339TIP3   OH252431   5.478   0.843  13.480 -0.4289 -0.0457  0.0880
10339TIP3    H152432   5.441   0.790  13.409  0.0489 -0.6597  0.2827
10339TIP3    H252433   5.453   0.797  13.560 -0.8454  0.5692  0.3156
10340TIP3   OH252434   0.809   2.704  10.885  0.1745 -0.3156  0.7160
10340TIP3    H152435   0.763   2.728  10.805  1.8783  0.1198 -0.1724
10340TIP3    H252436   0.828   2.611  10.875 -0.1593 -0.4063  0.9084
10341TIP3   OH252437   2.624   1.569  14.006  0.3968 -0.3662  0.1179
10341TIP3    H152438   2.542   1.615  13.986  0.1214 -0.5178  0.8897
10341TIP3    H252439   2.598   1.478  14.017  0.7508 -0.4969 -0.1024
10342TIP3   OH252440   0.749   4.666  12.675  0.2515 -0.4653 -0.1631
10342TIP3    H152441   0.759   4.636  12.765 -0.5510  0.8815  0.4008
10342TIP3    H252442   0.657   4.650  12.655  0.5902 -1.4398 -1.0223
10343TIP3   OH252443   5.665   3.307   4.365 -0.4814 -0.2554 -0.0348
10343TIP3    H152444   5.664   3.230   4.420 -0.6337 -0.2225  0.0085
10343TIP3    H252445   5.617   3.374   4.415 -1.9287 -0.6619 -0.8274
10344TIP3   OH252446   0.475   4.284   3.914 -0.2590  0.1310 -0.0542
10344TIP3    H152447   0.564   4.280   3.881 -0.7965  1.2484 -1.7653
10344TIP3    H252448   0.478   4.235   3.997  1.6725 -0.7613 -0.5920
10345TIP3   OH252449   6.214   2.370   6.000 -0.5112 -0.2958 -0.0611
10345TIP3    H152450   6.266   2.441   6.038  1.1339 -2.0169  1.0778
10345TIP3    H252451   6.129   2.378   6.044 -1.2708  2.4339 -1.8052
10346TIP3   OH252452   6.490   5.167   6.363 -0.3935  0.6344 -0.4194
10346TIP3    H152453   6.527   5.199   6.445  0.3386  1.4786 -1.0507
10346TIP3    H252454   6.442   5.242   6.327 -1.7604 -0.0913 -0.1905
10347TIP3   OH252455   4.431   4.611  16.863 -0.1070  0.3868  0.1670
10347TIP3    H152456   4.433   4.624  16.958  2.4810  1.1449  0.0731
10347TIP3    H252457   4.454   4.696  16.827  2.6289 -0.7183 -0.9714
10348TIP3   OH252458   2.841   2.384   1.325 -0.0680 -0.0183  0.5415
10348TIP3    H152459   2.884   2.338   1.253 -0.9066 -0.6956  0.4530
10348TIP3    H252460   2.911   2.436   1.365  0.3882  0.4505 -0.8059
10349TIP3   OH252461   5.226   1.427   0.233 -0.1194  0.3476  0.0193
10349TIP3    H152462   5.305   1.402   0.281  0.7391  1.5818 -0.6809
10349TIP3    H252463   5.182   1.490   0.291 -0.7950 -0.6124  0.5653
10350TIP3   OH252464   2.431   5.236  15.572 -0.1826 -0.0104 -0.1447
10350TIP3    H152465   2.382   5.288  15.509 -0.7754 -0.0331  0.2884
10350TIP3    H252466   2.364   5.201  15.631  0.2184 -1.1025 -0.3161
10351TIP3   OH252467   2.377   2.402   0.732 -0.1803  0.2996 -0.4063
10351TIP3    H152468   2.374   2.458   0.810  0.7650  0.4464 -0.4627
10351TIP3    H252469   2.469   2.378   0.723 -0.5006 -0.9422 -0.6211
10352TIP3   OH252470   4.331   0.235  13.307  0.6316  0.0844  0.4799
10352TIP3    H152471   4.397   0.302  13.326  0.4757  0.6852 -0.9329
10352TIP3    H252472   4.247   0.281  13.315  0.5442  0.2803 -1.1149
10353TIP3   OH252473   2.588   1.574  15.480  0.1316  0.2820 -0.3657
10353TIP3    H152474   2.643   1.550  15.554 -0.9212 -0.0459  0.3372
10353TIP3    H252475   2.585   1.670  15.483  0.3309  0.2836 -0.1633
10354TIP3   OH252476   2.461   4.806   4.105 -0.3604  0.0213  0.2718
10354TIP3    H152477   2.528   4.809   4.037 -0.8780 -1.7633 -0.3733
10354TIP3    H252478   2.501   4.755   4.176 -1.1028 -1.3563 -0.2573
10355TIP3   OH252479   4.124   6.657   4.128 -0.1914 -0.3282 -1.0656
10355TIP3    H152480   4.075   6.582   4.096 -0.2094 -0.2367 -1.2538
10355TIP3    H252481   4.171   6.624   4.205 -3.5197  0.4984  1.5830
10356TIP3   OH252482   0.096   2.216   3.529 -0.1756 -0.0304 -0.6770
10356TIP3    H152483   0.173   2.185   3.481 -0.8102 -0.8753 -1.1827
10356TIP3    H252484   0.130   2.242   3.615  0.6747 -0.3665 -0.9033
10357TIP3   OH252485   4.496   0.957   2.502 -0.0754 -0.3096  0.2524
10357TIP3    H152486   4.576   0.906   2.495  0.7971  0.9609  0.6037
10357TIP3    H252487   4.518   1.029   2.561 -1.0861  0.7539 -0.6037
10358TIP3   OH252488   1.179   3.116  11.083 -0.4692  0.0594 -0.4223
10358TIP3    H152489   1.158   3.172  11.008  2.3125  1.2974 -0.3900
10358TIP3    H252490   1.210   3.034  11.044  2.1157  1.1173 -0.7953
10359TIP3   OH252491   0.397   2.671  16.388  0.2417 -0.3949 -0.1066
10359TIP3    H152492   0.370   2.642  16.301 -0.4083  1.6630 -0.6518
10359TIP3    H252493   0.316   2.699  16.430  0.5981 -1.0650  1.0675
10360TIP3   OH252494   1.835   0.913  10.972 -0.2245 -0.3125 -0.5588
10360TIP3    H152495   1.801   0.829  11.001 -1.4827 -0.0959 -1.3284
10360TIP3    H252496   1.793   0.977  11.030  0.3901 -0.1713 -0.2580
10361TIP3   OH252497   0.186   6.476   4.383  0.2660  0.1384 -0.0504
10361TIP3    H152498   0.180   6.390   4.426 -2.8042 -1.0674 -2.4865
10361TIP3    H252499   0.231   6.459   4.301  2.1723  1.5318  0.6367
10362TIP3   OH252500   2.207   5.618   0.615  0.2557 -0.3221  0.4016
10362TIP3    H152501   2.156   5.662   0.683  0.6328 -0.7666  0.9711
10362TIP3    H252502   2.182   5.526   0.621 -0.2018 -0.2723 -0.5036
10363TIP3   OH252503   4.182   0.413  12.277  0.6566  0.6378 -0.0274
10363TIP3    H152504   4.217   0.488  12.230 -1.4393  1.0577 -1.0608
10363TIP3    H252505   4.151   0.449  12.360 -2.8568  1.6724 -1.5756
10364TIP3   OH252506   5.746   4.435  12.036 -0.4166  0.0333  0.3552
10364TIP3    H152507   5.827   4.469  12.075 -0.2725  0.8957 -0.6453
10364TIP3    H252508   5.724   4.499  11.968 -0.7776 -1.3067 -0.8311
10365TIP3   OH252509   6.602   5.315   1.874  0.0929 -0.0484 -0.1844
10365TIP3    H152510   6.607   5.391   1.817 -1.8567 -0.7536 -1.4039
10365TIP3    H252511   6.561   5.347   1.954  1.9288  0.7303  0.5071
10366TIP3   OH252512   2.631   0.961   2.149  0.6080 -0.5448 -0.6476
10366TIP3    H152513   2.694   1.028   2.124  1.4012 -0.9005  0.3720
10366TIP3    H252514   2.565   0.964   2.079  1.2245  0.4981 -1.2129
10367TIP3   OH252515   5.219   1.539  16.802 -1.1660  0.5487  0.1452
10367TIP3    H152516   5.179   1.513  16.885  0.5637  0.7432  1.0879
10367TIP3    H252517   5.293   1.593  16.827 -0.2834  0.1765 -1.5135
10368TIP3   OH252518   1.026   5.238   2.179  0.1118 -0.0295 -0.9638
10368TIP3    H152519   1.061   5.150   2.167 -1.5169 -0.8548  0.0978
10368TIP3    H252520   1.070   5.270   2.258 -0.6966 -0.6466 -0.2507
10369TIP3   OH252521   2.622   5.334   3.340 -0.2090  0.0467 -0.0491
10369TIP3    H152522   2.690   5.289   3.289  1.9493 -0.9121  3.3394
10369TIP3    H252523   2.637   5.427   3.323  2.1088 -0.1255  0.6182
10370TIP3   OH252524   6.239   0.019   6.466  0.3032  0.6696 -0.2742
10370TIP3    H152525   6.166  -0.031   6.502  0.4044  1.6071  1.3620
10370TIP3    H252526   6.275  -0.036   6.397 -0.1275 -1.0983  0.8535
10371TIP3   OH252527   5.014   4.696  13.817 -1.2934 -0.3050 -0.0589
10371TIP3    H152528   5.089   4.678  13.875 -1.4443  0.7080  0.4754
10371TIP3    H252529   4.994   4.611  13.777 -0.0235 -0.6473 -0.0180
10372TIP3   OH252530   2.452   2.461  14.937  0.2439  0.1861 -0.4162
10372TIP3    H152531   2.544   2.469  14.962  0.4036  1.2104 -1.2786
10372TIP3    H252532   2.427   2.548  14.909 -0.7470 -0.2784 -1.0311
10373TIP3   OH252533   2.144   5.466  12.844  0.1621 -0.1460 -0.3919
10373TIP3    H152534   2.232   5.431  12.855 -0.1084 -0.3510  1.3946
10373TIP3    H252535   2.146   5.552  12.886 -0.7690 -0.6493  0.7568
10374TIP3   OH252536   2.797   3.402  13.469  0.1794  0.2496  0.2212
10374TIP3    H152537   2.852   3.461  13.521 -0.3926  0.8256  0.1854
10374TIP3    H252538   2.768   3.456  13.395 -1.4639  0.3644  0.8985
10375TIP3   OH252539   4.114   6.262   1.133 -0.1528 -0.4522  0.1955
10375TIP3    H152540   4.020   6.260   1.151 -0.3559  2.2388 -0.2525
10375TIP3    H252541   4.131   6.180   1.085 -2.2073 -1.0524  0.4041
10376TIP3   OH252542   3.205   2.198   5.559  0.1904 -0.0567 -0.4278
10376TIP3    H152543   3.264   2.272   5.552  2.3411 -1.6705 -0.4626
10376TIP3    H252544   3.222   2.162   5.646 -0.1035 -1.0536 -0.7624
10377TIP3   OH252545   1.777   3.037  12.613  0.4075 -0.2645  0.4797
10377TIP3    H152546   1.733   2.964  12.569  1.3741 -0.9265  0.5653
10377TIP3    H252547   1.787   3.008  12.704  3.3501 -1.3562 -0.0476
10378TIP3   OH252548   4.440   5.370   5.347  0.1530 -0.2760  0.3376
10378TIP3    H152549   4.526   5.348   5.383  1.0761  2.2858 -0.0962
10378TIP3    H252550   4.426   5.461   5.372 -2.5733 -0.6848  0.5716
10379TIP3   OH252551   0.914   0.793   4.271  0.0243 -0.2634  0.1287
10379TIP3    H152552   0.987   0.791   4.210 -0.2865 -1.3069 -0.2234
10379TIP3    H252553   0.849   0.734   4.234 -0.4781 -0.3395  1.0791
10380TIP3   OH252554   6.563   4.793   0.609 -0.0431  0.7084  0.2223
10380TIP3    H152555   6.479   4.749   0.595 -1.3706  1.8288  3.6701
10380TIP3    H252556   6.578   4.843   0.529 -0.3769 -2.7695 -2.2722
10381TIP3   OH252557   6.300   5.284  13.455 -0.7195  0.1297  0.0278
10381TIP3    H152558   6.376   5.333  13.485 -1.4079 -0.0650  2.3146
10381TIP3    H252559   6.262   5.337  13.385  0.2564  1.3250  0.3846
10382TIP3   OH252560   4.926   5.059   0.504  0.0182  0.3119 -0.5525
10382TIP3    H152561   5.003   5.045   0.559 -0.6938 -0.5073  0.2607
10382TIP3    H252562   4.922   4.982   0.447 -1.8525 -1.2220  1.4634
10383TIP3   OH252563   2.714   5.290   3.009 -0.3588 -0.0757 -0.8200
10383TIP3    H152564   2.737   5.222   3.071 -0.2634  1.0444  0.4069
10383TIP3    H252565   2.798   5.324   2.978 -0.4026 -0.2110 -1.0877
10384TIP3   OH252566   4.384   0.034   2.233  0.1170 -0.1303  0.0975
10384TIP3    H152567   4.381   0.009   2.326 -1.7606  1.4785  0.5314
10384TIP3    H252568   4.377  -0.048   2.186  0.4372 -0.9269  1.3752
10385TIP3   OH252569   2.132   3.777   6.097 -0.7473 -0.4466 -0.6416
10385TIP3    H152570   2.193   3.719   6.052  1.2680  0.5447  0.6748
10385TIP3    H252571   2.089   3.721   6.163  1.1676 -0.5314  0.6092
10386TIP3   OH252572   5.299   6.699  16.205  0.5121  0.6964 -0.1402
10386TIP3    H152573   5.332   6.637  16.139  1.8497  1.2567 -0.0454
10386TIP3    H252574   5.349   6.779  16.188 -1.3651  1.8474 -0.4232
10387TIP3   OH252575   0.135   0.575   3.493 -0.3261  0.1924 -0.2757
10387TIP3    H152576   0.213   0.609   3.536  0.8314 -1.5828 -0.8505
10387TIP3    H252577   0.165   0.548   3.406 -1.3200 -1.4562 -0.1558
10388TIP3   OH252578   2.917   5.128  11.272  0.3192 -0.2464 -0.2515
10388TIP3    H152579   2.895   5.038  11.251 -0.9662  0.3831 -1.8536
10388TIP3    H252580   2.858   5.181  11.218 -0.0714  1.5687  1.7821
10389TIP3   OH252581   2.454   4.851  15.078 -0.2476 -0.6051 -0.3940
10389TIP3    H152582   2.523   4.915  15.057 -0.7846  0.4267  0.8397
10389TIP3    H252583   2.372   4.897  15.058 -0.7617  0.0756  2.6868
10390TIP3   OH252584   3.035   0.523  11.830 -0.0484  0.3084  0.3780
10390TIP3    H152585   2.953   0.562  11.860  0.7617  3.2770 -0.8028
10390TIP3    H252586   3.009   0.441  11.789 -2.3878  1.0143  0.2753
10391TIP3   OH252587   5.226   4.062  12.759  0.3821 -0.2780  0.8269
10391TIP3    H152588   5.138   4.051  12.725  0.8756 -0.4635 -0.4429
10391TIP3    H252589   5.275   3.987  12.726  1.2193  0.2544  0.8109
10392TIP3   OH252590   4.862   5.526  12.339  0.1882 -0.5169 -0.1749
10392TIP3    H152591   4.878   5.473  12.418  0.0101 -0.2724  0.0288
10392TIP3    H252592   4.829   5.464  12.274  2.3387 -1.1273 -0.7517
10393TIP3   OH252593   1.318   1.977  10.169 -0.3679  0.2703 -0.5356
10393TIP3    H152594   1.309   1.972  10.264  0.9783 -0.5721 -0.4244
10393TIP3    H252595   1.257   2.046  10.142 -1.1161  0.1930  0.8729
10394TIP3   OH252596   5.844   2.601  15.839 -0.0204  0.5877 -0.1718
10394TIP3    H152597   5.770   2.578  15.782 -0.4269  1.6051 -0.0608
10394TIP3    H252598   5.814   2.677  15.889  0.3487 -0.2520  1.3921
10395TIP3   OH252599   3.012   0.980  11.316 -0.0794  0.9302  0.0872
10395TIP3    H152600   3.027   0.924  11.392 -1.3855  0.3293 -0.0857
10395TIP3    H252601   3.100   1.006  11.289  0.4348  0.8621  1.5726
10396TIP3   OH252602   5.339   4.850  13.514  0.4834  0.3562 -0.2248
10396TIP3    H152603   5.341   4.876  13.606 -1.1906  0.2016 -0.1202
10396TIP3    H252604   5.431   4.851  13.487  1.0510 -0.0918  1.5687
10397TIP3   OH252605   6.265   0.767   3.380 -0.0577  0.4385  0.0708
10397TIP3    H152606   6.206   0.695   3.357 -1.4183  1.5159  0.1046
10397TIP3    H252607   6.332   0.766   3.311  0.0607 -0.9588  0.1745
10398TIP3   OH252608   2.330   6.152   6.539  0.1582 -0.2855 -0.3437
10398TIP3    H152609   2.406   6.096   6.519  0.0398 -0.4580 -0.3116
10398TIP3    H252610   2.364   6.216   6.602  0.4480  0.0477 -0.8322
10399TIP3   OH252611   1.831   3.627  11.995  0.1727 -0.6047  0.1601
10399TIP3    H152612   1.799   3.583  12.074  1.1665 -2.4874 -0.4215
10399TIP3    H252613   1.760   3.615  11.932  0.4778 -1.5032 -0.0258
10400TIP3   OH252614   4.699   5.822   2.660 -0.3194  0.9065  0.6108
10400TIP3    H152615   4.619   5.779   2.690  0.7405 -1.7306 -0.0511
10400TIP3    H252616   4.714   5.893   2.722 -2.6395  0.8704  1.2850
10401TIP3   OH252617   6.193   3.696   1.304  0.2806 -0.0360  0.3608
10401TIP3    H152618   6.208   3.732   1.391  1.7607  1.5172 -0.4789
10401TIP3    H252619   6.101   3.713   1.287  0.4309  1.4686  0.8673
10402TIP3   OH252620   1.474   1.534  15.582  0.3519 -0.0614  0.0921
10402TIP3    H152621   1.562   1.549  15.549  0.3768  2.1866  1.0455
10402TIP3    H252622   1.482   1.454  15.635  1.8842  0.2347  0.3672
10403TIP3   OH252623   0.419   3.133   2.931 -0.5985 -0.0170  0.3290
10403TIP3    H152624   0.421   3.175   3.017  0.6255  1.7336 -0.4971
10403TIP3    H252625   0.364   3.055   2.943 -1.9173  1.1382  2.2433
10404TIP3   OH252626   0.458   3.258  10.803 -0.8066  0.1730 -0.6090
10404TIP3    H152627   0.364   3.262  10.789 -1.0766  0.4452  1.0883
10404TIP3    H252628   0.494   3.230  10.719 -1.9974  3.8077 -2.5068
10405TIP3   OH252629   2.698   6.097  11.748 -0.2935  0.3770 -0.6654
10405TIP3    H152630   2.680   6.015  11.794 -0.1899  0.3705 -0.6358
10405TIP3    H252631   2.736   6.154  11.815 -3.3102  1.5847  0.1804
10406TIP3   OH252632   5.056   5.991  12.714  0.1646 -0.3857 -0.0804
10406TIP3    H152633   5.105   5.912  12.692  0.0745 -0.6368  0.5854
10406TIP3    H252634   5.115   6.063  12.690  0.4245 -0.6658 -0.2866
10407TIP3   OH252635   4.909   1.750  15.402  0.3158  0.1413 -0.1523
10407TIP3    H152636   4.827   1.700  15.401  0.6120 -0.3704 -2.0633
10407TIP3    H252637   4.918   1.783  15.313  2.0037  0.5435  0.1404
10408TIP3   OH252638   5.981   1.776  15.541 -0.5068 -0.6468  0.0011
10408TIP3    H152639   5.943   1.789  15.628  1.7939  2.6055  0.7411
10408TIP3    H252640   5.913   1.803  15.480 -0.7232  1.4109  1.0798
10409TIP3   OH252641   2.390   0.377  10.707 -0.0484  0.1827  0.1339
10409TIP3    H152642   2.472   0.395  10.752  0.5778 -2.2548  0.1516
10409TIP3    H252643   2.416   0.358  10.617 -0.4621 -1.2454  0.2836
10410TIP3   OH252644   2.899   5.216  16.208 -0.0060 -0.2822 -0.9764
10410TIP3    H152645   2.958   5.155  16.164 -1.2640 -0.3293 -2.7331
10410TIP3    H252646   2.940   5.302  16.196  1.8130 -0.6867  1.5761
10411TIP3   OH252647   4.840   1.251   2.286  0.2668 -0.4885 -0.0178
10411TIP3    H152648   4.761   1.211   2.322  0.2179 -0.0245  0.3924
10411TIP3    H252649   4.891   1.178   2.251 -0.7436 -0.7099 -1.0767
10412TIP3   OH252650   0.807   5.432   4.688 -0.3754 -0.4700  0.5307
10412TIP3    H152651   0.877   5.402   4.747  1.1497  1.3894 -0.2057
10412TIP3    H252652   0.746   5.479   4.745  0.9462  1.0836  0.7436
10413TIP3   OH252653   6.319   5.615  13.558 -0.2746  0.1472 -0.5396
10413TIP3    H152654   6.347   5.560  13.485 -1.2486 -1.4180  0.2223
10413TIP3    H252655   6.401   5.642  13.600  0.2221 -0.7377 -0.9179
10414TIP3   OH252656   3.826   2.580  12.464  0.4778  0.1924 -0.4036
10414TIP3    H152657   3.764   2.594  12.393 -0.5552  0.8686  0.5886
10414TIP3    H252658   3.779   2.610  12.543  2.2503  1.2080  0.3165
10415TIP3   OH252659   4.079   0.789   1.705 -0.1429  0.2446  0.9492
10415TIP3    H152660   4.059   0.883   1.697 -0.2871  0.3321  2.2035
10415TIP3    H252661   4.174   0.784   1.701 -0.1540  0.3722  0.3202
10416TIP3   OH252662   1.612   3.593   5.272 -0.4581  0.2505  0.3107
10416TIP3    H152663   1.656   3.673   5.243  0.9841 -0.5664  0.1810
10416TIP3    H252664   1.572   3.558   5.193 -2.3383  1.5528  0.6190
10417TIP3   OH252665   3.943   3.265  10.729  0.2271  0.2652 -0.0267
10417TIP3    H152666   4.030   3.255  10.690 -0.4084 -0.8237 -1.2724
10417TIP3    H252667   3.886   3.284  10.654 -0.5540  1.3684  0.8225
10418TIP3   OH252668   6.721   4.466   0.349 -0.0763 -0.2758 -0.0853
10418TIP3    H152669   6.664   4.390   0.362 -0.5330 -0.3574 -2.1985
10418TIP3    H252670   6.791   4.454   0.412 -0.9656 -1.6322  0.6954
10419TIP3   OH252671   3.925   3.233  16.843 -0.7209  0.1801 -0.1179
10419TIP3    H152672   3.880   3.284  16.776 -0.9370  0.3383  0.1485
10419TIP3    H252673   4.017   3.258  16.833 -0.5187 -0.9320 -1.3644
10420TIP3   OH252674   1.087   1.092   4.558  0.4821  0.0874  0.0750
10420TIP3    H152675   1.029   1.165   4.538  0.9502  0.8078  1.2799
10420TIP3    H252676   1.173   1.119   4.526  0.1252 -1.1734 -2.1385
10421TIP3   OH252677   5.099   4.077   4.984 -0.2870  0.4059  0.2354
10421TIP3    H152678   5.077   4.109   5.071 -0.1183 -0.1117  0.4700
10421TIP3    H252679   5.014   4.063   4.942 -0.5021 -2.1458  1.3443
10422TIP3   OH252680   2.123   6.819   1.558 -0.5288  0.4039 -0.4200
10422TIP3    H152681   2.099   6.766   1.635  1.2007  1.5116  0.9704
10422TIP3    H252682   2.184   6.763   1.509 -1.8490 -0.4160 -1.2037
10423TIP3   OH252683   3.598   1.403   0.900  0.2308 -0.0339 -0.1685
10423TIP3    H152684   3.639   1.317   0.909  0.1300  0.0781  1.8345
10423TIP3    H252685   3.522   1.399   0.959  0.6629  1.6683  0.5440
10424TIP3   OH252686   5.563   3.701  11.262  0.4851 -0.0569  0.1680
10424TIP3    H152687   5.616   3.622  11.255  0.0740 -0.2192 -1.4486
10424TIP3    H252688   5.610   3.765  11.208  0.1779  0.4519  0.5005
10425TIP3   OH252689   6.016   6.817   2.875  0.1580  0.1929  0.1678
10425TIP3    H152690   6.057   6.742   2.919 -1.5487 -0.1262  1.3351
10425TIP3    H252691   5.992   6.875   2.947 -0.7287  0.7012 -0.5280
10426TIP3   OH252692   0.784   4.275   0.167 -0.0645 -0.3012 -0.2143
10426TIP3    H152693   0.793   4.180   0.168  1.2748 -0.2345 -1.5245
10426TIP3    H252694   0.719   4.293   0.098 -2.7522 -0.3342  2.1457
10427TIP3   OH252695   4.222   4.975   5.717  0.0632 -0.2231 -0.0801
10427TIP3    H152696   4.204   4.946   5.807  0.0368 -0.8251 -0.2693
10427TIP3    H252697   4.175   5.058   5.709 -1.0243 -0.7965  0.0675
10428TIP3   OH252698   2.126   2.055  13.000  0.2376  0.3963 -0.2954
10428TIP3    H152699   2.040   2.079  12.967  0.0558 -0.2726 -0.3225
10428TIP3    H252700   2.188   2.095  12.938 -0.0382  1.1495 -0.0921
10429TIP3   OH252701   1.126   4.781  16.075 -0.2854 -0.4674 -0.5800
10429TIP3    H152702   1.128   4.758  15.982  1.4819 -2.0061 -0.2097
10429TIP3    H252703   1.118   4.877  16.075  1.6172 -0.2455 -2.3562
10430TIP3   OH252704   0.601   2.825   6.005 -0.0332  0.2640 -0.2200
10430TIP3    H152705   0.654   2.863   5.935 -0.0738 -1.3378 -1.1694
10430TIP3    H252706   0.645   2.742   6.026 -1.2177 -0.3080  0.1117
10431TIP3   OH252707   1.507   1.085  14.047  0.6129 -0.6027  0.0048
10431TIP3    H152708   1.489   1.106  14.138  1.7949  0.2825  0.0487
10431TIP3    H252709   1.575   1.017  14.051  0.4949 -0.7381 -0.2252
10432TIP3   OH252710   2.848   4.061  15.388  0.0145 -0.5516  0.1826
10432TIP3    H152711   2.789   4.132  15.363 -0.7565 -1.4514 -0.5944
10432TIP3    H252712   2.842   3.998  15.317  0.4692 -1.5443  1.0004
10433TIP3   OH252713   6.154   6.621   5.715  0.0044  0.2155 -0.2564
10433TIP3    H152714   6.238   6.630   5.760  0.2213 -1.0147 -0.3844
10433TIP3    H252715   6.123   6.533   5.739 -0.9327  0.4003 -0.7359
10434TIP3   OH252716   6.535   4.239   1.782 -0.3452 -0.0046  0.5279
10434TIP3    H152717   6.550   4.149   1.753 -0.3229 -0.7794  2.7231
10434TIP3    H252718   6.469   4.230   1.852  0.8973  1.4490  1.9665
10435TIP3   OH252719   6.452   0.608  11.163  0.2631 -0.0630  0.5582
10435TIP3    H152720   6.502   0.554  11.223 -0.3501 -0.3302  0.8387
10435TIP3    H252721   6.449   0.558  11.081  0.4539 -0.0472  0.5429
10436TIP3   OH252722   2.338   1.579  12.366 -0.1877 -0.5582  0.3806
10436TIP3    H152723   2.416   1.629  12.344 -0.6561  0.5293  1.0972
10436TIP3    H252724   2.270   1.645  12.378 -1.0812 -1.4450  0.3425
10437TIP3   OH252725   4.183   3.360   3.928 -0.3088 -0.0587  0.0486
10437TIP3    H152726   4.255   3.421   3.916 -1.6279  1.4426 -0.4820
10437TIP3    H252727   4.145   3.349   3.841 -1.3265 -0.0509  0.4764
10438TIP3   OH252728   3.273   3.065  14.198  0.0433  0.1216 -0.8274
10438TIP3    H152729   3.249   3.136  14.139  0.9612 -0.2945 -1.7321
10438TIP3    H252730   3.253   2.985  14.150  0.6691 -0.2262 -0.5340
10439TIP3   OH252731   1.195   2.335   5.782  0.5158  0.6522 -0.2964
10439TIP3    H152732   1.229   2.294   5.702  2.4172 -0.5850  1.0388
10439TIP3    H252733   1.256   2.406   5.801  0.4722  0.5224  0.3765
10440TIP3   OH252734   1.424   3.678   1.246  0.8803 -0.1887 -0.0952
10440TIP3    H152735   1.329   3.687   1.242  1.0732  2.7238 -0.3688
10440TIP3    H252736   1.449   3.648   1.158  0.3053  0.9349 -0.6696
10441TIP3   OH252737   0.566   4.853  15.831 -0.1314  0.4830 -0.5841
10441TIP3    H152738   0.534   4.764  15.818 -0.7837  0.3805  1.4727
10441TIP3    H252739   0.535   4.901  15.753 -2.2236 -0.4427 -0.3760
10442TIP3   OH252740   3.731   3.821   0.721 -0.1531 -0.2475 -0.4576
10442TIP3    H152741   3.776   3.789   0.642  0.5817  0.0008 -0.1504
10442TIP3    H252742   3.673   3.890   0.689 -0.6111 -0.8421 -0.9172
10443TIP3   OH252743   5.885   2.749   1.682  0.6154 -0.1376  0.7481
10443TIP3    H152744   5.816   2.787   1.627  1.3603 -0.7953 -0.7090
10443TIP3    H252745   5.950   2.818   1.690  1.4451 -0.6548 -0.9589
10444TIP3   OH252746   3.372   4.252  11.252  0.0035 -0.1507  0.5238
10444TIP3    H152747   3.367   4.348  11.255 -1.2377 -0.2099  0.6663
10444TIP3    H252748   3.423   4.233  11.173  1.2141  0.6291  1.0750
10445TIP3   OH252749   2.488   1.468   5.095  0.3944 -0.0497 -0.2487
10445TIP3    H152750   2.470   1.442   5.185 -1.6125 -1.2658 -0.9255
10445TIP3    H252751   2.412   1.522   5.071 -0.0661 -1.2919 -1.7501
10446TIP3   OH252752   5.466   6.765  15.061  0.4042  0.0424  0.3428
10446TIP3    H152753   5.521   6.726  14.994  1.3528  1.0965  0.4731
10446TIP3    H252754   5.426   6.841  15.018 -0.4699 -0.3563  0.4336
10447TIP3   OH252755   4.842   2.219  11.512 -0.0998  0.0728 -0.1870
10447TIP3    H152756   4.799   2.302  11.494 -0.9665 -0.4110 -0.4117
10447TIP3    H252757   4.893   2.200  11.433  0.1693  0.4208 -0.1010
10448TIP3   OH252758   5.840   4.646  14.426 -0.1827  0.1671  0.1946
10448TIP3    H152759   5.879   4.618  14.344  0.3513  0.2144  0.4311
10448TIP3    H252760   5.768   4.704  14.400  1.8235  2.6559 -0.2222
10449TIP3   OH252761   0.885   0.950   1.238  0.0026  0.2160 -0.3049
10449TIP3    H152762   0.886   0.928   1.145  0.9667  0.0843 -0.2774
10449TIP3    H252763   0.870   1.045   1.239 -0.8806  0.0857 -0.5531
10450TIP3   OH252764   2.222   3.997   4.012  0.4592 -0.0084 -1.0155
10450TIP3    H152765   2.269   3.915   3.995 -2.7337 -2.6397  1.4255
10450TIP3    H252766   2.173   4.014   3.932  1.6295 -0.0409 -1.7725
10451TIP3   OH252767   0.723   0.910  16.605 -0.3211 -0.6491 -0.2025
10451TIP3    H152768   0.667   0.869  16.670 -1.7912 -1.1398 -1.7020
10451TIP3    H252769   0.664   0.961  16.550  0.9564  0.2841 -0.7872
10452TIP3   OH252770   3.264   2.907   2.936  0.5745 -0.2747 -0.0325
10452TIP3    H152771   3.275   2.816   2.910 -1.0963 -0.4710 -0.1659
10452TIP3    H252772   3.295   2.910   3.026  2.4775 -0.5179 -0.6445
10453TIP3   OH252773   1.765   2.844  14.110  0.3424 -0.7473  0.1667
10453TIP3    H152774   1.704   2.911  14.080 -1.9712 -2.1778  1.3579
10453TIP3    H252775   1.840   2.893  14.146 -0.7163  1.1360 -0.0876
10454TIP3   OH252776   5.917   2.995  13.530  0.2178  0.4765  0.4922
10454TIP3    H152777   5.928   2.952  13.445  2.2885  0.3508  0.7795
10454TIP3    H252778   5.825   3.023  13.531  0.4435  1.5838 -2.3135
10455TIP3   OH252779   5.382   2.435   4.528 -0.7754  0.1155 -0.4408
10455TIP3    H152780   5.323   2.463   4.598 -0.3815 -2.2449  0.9802
10455TIP3    H252781   5.332   2.448   4.448 -1.5429  2.1937  0.3137
10456TIP3   OH252782   4.999   2.349   5.281 -0.2722 -0.2655  0.1441
10456TIP3    H152783   5.081   2.301   5.297 -0.2656 -0.9149 -1.6112
10456TIP3    H252784   5.003   2.424   5.340  2.0387  0.2409 -0.5704
10457TIP3   OH252785   2.688   6.102   4.837 -0.3993  0.4203  0.6411
10457TIP3    H152786   2.732   6.183   4.810 -0.0465 -0.0917 -0.3891
10457TIP3    H252787   2.759   6.039   4.849 -0.7512 -0.0451  0.3158
10458TIP3   OH252788   0.382   6.228   3.603  0.2195 -0.6619  0.2619
10458TIP3    H152789   0.349   6.187   3.523  0.2381 -0.2084  0.0197
10458TIP3    H252790   0.390   6.321   3.581 -2.6679  0.0390  1.7025
10459TIP3   OH252791   4.611   1.973   0.837  0.2551  0.4061 -0.4975
10459TIP3    H152792   4.597   2.028   0.760  0.7698  0.2978 -0.6691
10459TIP3    H252793   4.705   1.979   0.854 -0.0977  1.8225  1.1648
10460TIP3   OH252794   6.784   6.151  12.644 -0.2656  0.1867 -0.1728
10460TIP3    H152795   6.688   6.147  12.645 -0.2596 -0.5183  1.3962
10460TIP3    H252796   6.810   6.110  12.726  1.3706  1.0414 -0.2201
10461TIP3   OH252797   0.368   5.824  13.989 -0.3852  0.1435 -0.2319
10461TIP3    H152798   0.445   5.880  13.978 -0.0740 -0.0152  0.9619
10461TIP3    H252799   0.350   5.827  14.083 -1.2706 -0.5779 -0.3653
10462TIP3   OH252800   4.636   1.748   2.347  0.2477  0.3076  0.2450
10462TIP3    H152801   4.584   1.738   2.267  0.4877  4.0194 -0.5926
10462TIP3    H252802   4.572   1.747   2.418 -0.3339 -0.2051 -0.2831
10463TIP3   OH252803   1.649   1.364  14.766  0.1627 -0.1735 -0.1614
10463TIP3    H152804   1.633   1.323  14.851 -0.4890 -1.1417 -0.7293
10463TIP3    H252805   1.566   1.405  14.743  0.2341 -0.2080 -0.4854
10464TIP3   OH252806   3.646   0.980   1.181 -0.7627 -0.2903  0.0711
10464TIP3    H152807   3.650   0.962   1.087  2.5563  2.5448 -0.5479
10464TIP3    H252808   3.685   0.903   1.221  0.0115 -0.5697 -1.1417
10465TIP3   OH252809   4.252   1.608   2.345 -0.0049 -0.1942 -0.2496
10465TIP3    H152810   4.239   1.538   2.282  2.2099 -0.1412 -0.8666
10465TIP3    H252811   4.251   1.688   2.292 -0.3286  0.0458  0.1181
10466TIP3   OH252812   1.060   4.295   1.851 -0.0307  0.1378 -0.3646
10466TIP3    H152813   1.127   4.325   1.913 -0.8984 -1.3528  1.3949
10466TIP3    H252814   0.991   4.257   1.907 -1.2366 -0.5322 -2.2216
10467TIP3   OH252815   3.969   1.698   4.968 -0.5446 -0.2157  0.4854
10467TIP3    H152816   3.881   1.678   4.936 -0.8587 -0.2047  1.2977
10467TIP3    H252817   3.956   1.720   5.060  0.1896  0.7917  0.3605
10468TIP3   OH252818   1.076   0.262  10.949  0.3509 -0.0464 -0.3782
10468TIP3    H152819   1.008   0.304  11.003  1.6735  0.8095  0.6823
10468TIP3    H252820   1.028   0.226  10.874 -1.7065 -1.9792  1.6940
10469TIP3   OH252821   2.021   6.027   2.148 -0.0851  0.2526 -0.2452
10469TIP3    H152822   2.030   5.939   2.111  3.3849  0.7663 -1.0273
10469TIP3    H252823   2.036   6.015   2.242 -0.4413 -0.0789 -0.2284
10470TIP3   OH252824   1.092   0.905  13.621  0.1370  0.1731  0.8161
10470TIP3    H152825   1.169   0.853  13.597 -0.9519 -1.3496  0.5028
10470TIP3    H252826   1.017   0.850  13.598 -1.0899  1.9604  0.3106
10471TIP3   OH252827   5.951   2.080   1.470 -0.1657  0.1406 -0.8327
10471TIP3    H152828   5.917   2.053   1.384 -1.7615 -0.5757 -0.0329
10471TIP3    H252829   5.875   2.073   1.528  1.4917 -2.2317  1.2416
10472TIP3   OH252830   1.102   4.959  10.905 -0.0823 -0.2147 -0.5680
10472TIP3    H152831   1.052   5.040  10.917  0.5844 -0.0092  1.1472
10472TIP3    H252832   1.036   4.890  10.903 -0.5192  0.0736  1.4131
10473TIP3   OH252833   6.012   0.828  16.041 -0.2001 -0.5263  0.2700
10473TIP3    H152834   6.053   0.758  16.093  2.4594  0.5130 -0.2381
10473TIP3    H252835   5.997   0.899  16.103  1.4760  0.1130  0.0109
10474TIP3   OH252836   3.902   1.042   0.818 -0.1316 -0.0699 -0.2710
10474TIP3    H152837   3.966   1.114   0.822 -0.7286  0.4271  0.7064
10474TIP3    H252838   3.937   0.983   0.752 -0.0488  1.5404 -1.7309
10475TIP3   OH252839   3.514   6.021   5.034 -0.1898 -0.3171 -0.1107
10475TIP3    H152840   3.512   6.110   5.071  0.5676 -1.1271  2.0382
10475TIP3    H252841   3.606   6.006   5.013 -0.3672 -0.5007 -0.8121
10476TIP3   OH252842   4.144   5.505   2.008 -0.1973 -0.3296 -0.3881
10476TIP3    H152843   4.188   5.589   1.995  1.2012 -0.6557  1.7535
10476TIP3    H252844   4.132   5.470   1.919  3.6372 -0.0574 -1.1829
10477TIP3   OH252845   1.173   0.985  13.090  0.2238 -0.0782 -0.0995
10477TIP3    H152846   1.095   0.932  13.109 -0.2214  0.8359  0.6788
10477TIP3    H252847   1.139   1.073  13.073  1.1209  0.4264  0.6502
10478TIP3   OH252848   0.269   1.280   6.134  0.5354 -0.9427 -0.0241
10478TIP3    H152849   0.335   1.312   6.073 -0.2914  0.4013 -0.2491
10478TIP3    H252850   0.266   1.346   6.203 -0.5468 -0.9871 -0.0068
10479TIP3   OH252851   6.307   1.485  14.131  0.0116  0.6033 -0.2811
10479TIP3    H152852   6.374   1.530  14.079 -0.2693  0.6482 -0.6055
10479TIP3    H252853   6.238   1.550  14.141 -1.3394 -0.3867 -2.5159
10480TIP3   OH252854   4.629   4.924  16.084 -0.2478  0.3250 -0.9164
10480TIP3    H152855   4.706   4.923  16.141 -1.4336  0.6479  0.7822
10480TIP3    H252856   4.632   4.839  16.039  0.4707 -0.1682  0.0144
10481TIP3   OH252857   3.657   1.086  11.279 -0.2746  0.4012 -0.5003
10481TIP3    H152858   3.666   1.181  11.290  1.6321  0.2343 -0.3677
10481TIP3    H252859   3.693   1.049  11.360 -0.1468 -0.4616 -0.9436
10482TIP3   OH252860   4.525   1.428  15.390 -0.3770 -0.4543 -0.1795
10482TIP3    H152861   4.519   1.432  15.295  0.9578 -0.2286 -0.2829
10482TIP3    H252862   4.512   1.519  15.419 -0.4712 -0.4709 -0.1702
10483TIP3   OH252863   1.888   0.435  13.724  0.3906  0.0384  0.2018
10483TIP3    H152864   1.869   0.357  13.777 -1.1451  1.1350  1.3495
10483TIP3    H252865   1.847   0.507  13.771 -0.1840  1.2411 -1.9756
10484TIP3   OH252866   3.340   6.467  16.044  0.1474  0.2586 -0.0364
10484TIP3    H152867   3.402   6.510  15.985 -0.4923  0.1926 -0.7686
10484TIP3    H252868   3.369   6.376  16.048 -0.3218  0.0648 -0.9509
10485TIP3   OH252869   6.460   6.113  15.136 -0.4392  0.2867  0.2802
10485TIP3    H152870   6.501   6.174  15.197  0.3566 -0.1603  0.2038
10485TIP3    H252871   6.441   6.035  15.189 -0.1788  0.0749  0.0606
10486TIP3   OH252872   3.145   0.301  12.318 -0.2446 -0.0817  0.1923
10486TIP3    H152873   3.202   0.327  12.391 -1.9128  0.1384  1.4691
10486TIP3    H252874   3.103   0.382  12.289  0.7292 -0.0894 -1.3640
10487TIP3   OH252875   5.456   2.117  15.629 -0.4658  0.8228 -0.1816
10487TIP3    H152876   5.410   2.034  15.614 -1.0435  1.3243 -1.3123
10487TIP3    H252877   5.392   2.172  15.675 -0.0696  0.6475  0.6044
10488TIP3   OH252878   6.157   2.525  12.651 -0.3894 -0.1178  0.0308
10488TIP3    H152879   6.102   2.447  12.639  0.1998 -0.4628 -0.5290
10488TIP3    H252880   6.163   2.537  12.745  2.4599 -2.9316  0.3824
10489TIP3   OH252881   4.385   0.047  15.459 -0.4076 -0.0594  0.2103
10489TIP3    H152882   4.445   0.034  15.534 -0.3262  1.6329  0.4700
10489TIP3    H252883   4.359  -0.042  15.434  1.6935 -0.8269  0.5139
10490TIP3   OH252884   5.010   5.148  15.258  0.1068 -0.4612  0.2843
10490TIP3    H152885   5.082   5.120  15.313  1.4177 -1.0359 -1.6074
10490TIP3    H252886   4.953   5.072  15.251 -0.0909 -0.3690  0.8609
10491TIP3   OH252887   0.558   5.518   5.571 -0.1513  0.0329  0.2932
10491TIP3    H152888   0.605   5.564   5.641 -0.1132  0.7645 -0.2066
10491TIP3    H252889   0.467   5.541   5.585 -0.0019  1.3782 -0.7499
10492TIP3   OH252890   2.704   4.704   3.963  0.2391  0.4773  0.2648
10492TIP3    H152891   2.693   4.756   3.883 -1.0946 -0.6857 -0.3578
10492TIP3    H252892   2.748   4.763   4.024  0.6144  1.6452 -1.0774
10493TIP3   OH252893   4.773   0.677  11.381  0.2391  0.0116 -0.2537
10493TIP3    H152894   4.857   0.661  11.338 -1.3961 -3.2983 -2.5706
10493TIP3    H252895   4.730   0.742  11.326  0.9735  1.3287  0.6565
10494TIP3   OH252896   6.245   1.579   0.063 -0.7034 -0.3023  0.3592
10494TIP3    H152897   6.250   1.651  -0.000  1.3335  0.8716  1.7220
10494TIP3    H252898   6.157   1.544   0.054 -0.4139 -0.5082 -3.4205
10495TIP3   OH252899   4.519   4.855  14.814 -0.1367 -0.4426  0.2093
10495TIP3    H152900   4.546   4.931  14.866  1.0697 -0.9901  0.4209
10495TIP3    H252901   4.480   4.893  14.735  2.2306  0.4583 -0.6292
10496TIP3   OH252902   0.173   1.957   5.871 -0.5397 -0.6330 -0.1254
10496TIP3    H152903   0.096   1.900   5.872 -0.1695 -1.1665  1.7783
10496TIP3    H252904   0.245   1.901   5.902 -0.3250  1.0256  2.6839
10497TIP3   OH252905   6.512   4.876   2.904  0.3770 -0.1716  0.0962
10497TIP3    H152906   6.495   4.950   2.963 -0.8690 -0.3765  0.0306
10497TIP3    H252907   6.467   4.802   2.945 -3.5635  0.3751 -2.6931
10498TIP3   OH252908   1.763   1.122   2.359 -0.1823  0.5706 -0.1802
10498TIP3    H152909   1.742   1.198   2.413 -0.7753  1.4434 -1.5886
10498TIP3    H252910   1.764   1.049   2.421  0.5433  1.7146  1.2414
10499TIP3   OH252911   1.777   5.540  10.880 -0.2274  0.0651  0.3753
10499TIP3    H152912   1.796   5.446  10.881 -0.8646 -0.0689  0.2136
10499TIP3    H252913   1.862   5.582  10.893  0.4199 -0.4782 -1.7780
10500TIP3   OH252914   5.014   3.178   1.167 -0.0373 -0.0037 -0.2605
10500TIP3    H152915   4.929   3.136   1.155  0.9132 -1.6680 -1.6742
10500TIP3    H252916   5.042   3.201   1.078  0.8451  0.8166  0.2117
10501TIP3   OH252917   4.569   3.759  16.683 -0.0760  0.0038 -0.1894
10501TIP3    H152918   4.498   3.721  16.631 -0.3304 -0.8611  0.7598
10501TIP3    H252919   4.588   3.842  16.639 -1.5004  0.1409 -0.6219
10502TIP3   OH252920   3.826   5.147   4.514  0.3471  0.7871 -0.2935
10502TIP3    H152921   3.849   5.189   4.432 -0.1274 -1.2172 -1.5278
10502TIP3    H252922   3.736   5.175   4.532  0.9018  2.2788  0.2867
10503TIP3   OH252923   5.166   5.687   4.110  0.3961  0.5958 -0.0880
10503TIP3    H152924   5.079   5.647   4.105  0.5168  0.2766  0.3407
10503TIP3    H252925   5.157   5.769   4.062 -0.8622  1.8454  2.1028
10504TIP3   OH252926   2.858   1.253  13.662  0.1352 -0.0150 -0.5944
10504TIP3    H152927   2.862   1.238  13.568  0.7687 -1.2338 -0.4050
10504TIP3    H252928   2.941   1.297  13.683  1.2963 -2.2146 -0.2598
10505TIP3   OH252929   6.060   1.390  14.308  0.4337  0.1035 -0.1019
10505TIP3    H152930   6.043   1.406  14.401 -0.4570  0.6819 -0.3564
10505TIP3    H252931   6.072   1.477  14.270  0.9959 -0.1374 -0.5021
10506TIP3   OH252932   5.973   4.547  16.355 -0.0828  0.3450  0.3713
10506TIP3    H152933   5.946   4.628  16.312  4.2149  1.3482 -0.8919
10506TIP3    H252934   6.034   4.506  16.294 -0.3945 -2.7979  1.9430
10507TIP3   OH252935   5.930   6.061  16.912 -0.2502 -0.2817  0.5939
10507TIP3    H152936   5.872   6.061  16.836  0.1141 -2.3327  0.2538
10507TIP3    H252937   5.991   6.134  16.896 -0.0745 -0.7879 -1.1865
10508TIP3   OH252938   2.608   3.163  14.417  0.6622  0.0817  0.2652
10508TIP3    H152939   2.541   3.125  14.360 -0.2902  0.4375  1.1110
10508TIP3    H252940   2.570   3.157  14.505  1.7092  0.3756  0.7479
10509TIP3   OH252941   4.941   4.721  10.384 -0.5282  0.1978  0.0159
10509TIP3    H152942   4.981   4.645  10.342 -2.0317  0.2447 -1.6582
10509TIP3    H252943   4.875   4.683  10.442 -1.7473  0.1554 -1.3205
10510TIP3   OH252944   6.038   4.960   4.072 -0.3128 -0.0004  0.0589
10510TIP3    H152945   6.097   5.030   4.101 -2.1446  0.8838  1.9376
10510TIP3    H252946   6.000   4.993   3.990 -0.8150  1.0376  0.6923
10511TIP3   OH252947   2.465   3.903   1.679 -0.4041 -0.5703 -0.1856
10511TIP3    H152948   2.512   3.932   1.757 -0.8718  0.0902 -0.1465
10511TIP3    H252949   2.498   3.814   1.664 -1.1062 -1.1481  1.4181
10512TIP3   OH252950   2.763   0.394  14.107  0.3434  0.1467  0.3033
10512TIP3    H152951   2.717   0.330  14.052  0.2392  0.7351 -0.3019
10512TIP3    H252952   2.745   0.478  14.066  1.7701  0.4200  0.1754
10513TIP3   OH252953   5.290   2.864   5.297 -0.5298 -0.2334  0.3117
10513TIP3    H152954   5.238   2.807   5.241  0.7365 -0.2804 -0.8794
10513TIP3    H252955   5.377   2.863   5.257 -0.2859  1.9298  0.7010
10514TIP3   OH252956   1.631   4.881   0.640  0.2790  0.1171 -0.6207
10514TIP3    H152957   1.585   4.955   0.681  0.0228 -0.2929 -0.1584
10514TIP3    H252958   1.722   4.892   0.665 -0.1627 -1.3491  2.0090
10515TIP3   OH252959   4.284   2.254   2.435  0.1151  0.7491  0.1722
10515TIP3    H152960   4.378   2.244   2.447  0.1059 -1.2687 -1.1288
10515TIP3    H252961   4.274   2.283   2.344 -0.5362  0.7911  0.2502
10516TIP3   OH252962   5.803   1.573  12.159  0.5861 -0.2073 -0.8983
10516TIP3    H152963   5.753   1.655  12.157  2.0635  0.7503 -0.8658
10516TIP3    H252964   5.787   1.533  12.073 -2.4802 -1.4292  0.1181
10517TIP3   OH252965   1.858   6.296  15.911  0.2321 -0.0185  0.0563
10517TIP3    H152966   1.815   6.254  15.836 -1.2772  0.2865  0.7247
10517TIP3    H252967   1.936   6.337  15.873  0.1374 -0.8649 -1.1309
10518TIP3   OH252968   0.309   5.917  14.551 -0.3566  0.0403 -0.3162
10518TIP3    H152969   0.256   5.873  14.485  0.6188 -0.2161 -0.9348
10518TIP3    H252970   0.383   5.859  14.566 -0.3612  0.2841  0.7238
10519TIP3   OH252971   5.662   1.570  10.553  0.0488  0.7000 -0.0111
10519TIP3    H152972   5.586   1.627  10.565  1.6755  3.2723 -1.1125
10519TIP3    H252973   5.736   1.621  10.586  1.4082 -1.5231  0.5765
10520TIP3   OH252974   4.909   4.108  12.134 -0.9264 -0.2918  0.3958
10520TIP3    H152975   4.979   4.083  12.194 -0.8926  0.5725  0.7324
10520TIP3    H252976   4.945   4.181  12.084 -0.2961 -2.0959 -1.9736
10521TIP3   OH252977   5.543   6.149   0.473  0.4378  0.0524  0.0978
10521TIP3    H152978   5.573   6.120   0.387  0.2073 -1.2578  0.4276
10521TIP3    H252979   5.618   6.131   0.531 -0.0447 -0.7937  0.4741
10522TIP3   OH252980   2.137   6.129  12.461 -0.4036  0.1687 -0.2835
10522TIP3    H152981   2.179   6.167  12.384  0.1592  0.0791 -0.0243
10522TIP3    H252982   2.147   6.195  12.529 -0.3980  0.0136 -0.1329
10523TIP3   OH252983   2.815   2.533  11.366  0.3753  0.3350 -0.3887
10523TIP3    H152984   2.847   2.507  11.280 -1.1328 -0.4577 -0.7508
10523TIP3    H252985   2.866   2.611  11.388  1.4883 -0.0298 -1.5384
10524TIP3   OH252986   4.503   1.800  14.701 -0.0709 -0.1665  0.1442
10524TIP3    H152987   4.498   1.712  14.664  1.0205  0.3716 -1.3944
10524TIP3    H252988   4.454   1.855  14.640 -1.3578  0.2364  1.4628
10525TIP3   OH252989   0.030   4.714   5.062 -0.1230  0.6020 -0.0190
10525TIP3    H152990   0.083   4.686   5.136  0.0384  0.2711 -0.2531
10525TIP3    H252991   0.033   4.639   5.001 -1.8956  0.0510  0.5093
10526TIP3   OH252992   3.755   2.909  12.180  0.2198  0.6213  0.5935
10526TIP3    H152993   3.774   2.877  12.091 -0.8201 -1.7508  1.1554
10526TIP3    H252994   3.666   2.943  12.175  0.2998  0.8450  0.6605
10527TIP3   OH252995   2.954   2.027  12.135  0.1302 -0.3969  0.0226
10527TIP3    H152996   2.899   2.007  12.211 -1.3146 -0.2940 -0.9396
10527TIP3    H252997   3.027   1.966  12.141 -0.6347 -1.2716  0.7906
10528TIP3   OH252998   2.254   1.349  16.860  0.3352 -0.3498 -0.4838
10528TIP3    H152999   2.230   1.428  16.908  2.1957  0.9473 -1.5638
10528TIP3    H253000   2.245   1.372  16.768  2.5841 -0.7546 -0.8732
10529TIP3   OH253001   0.227   0.375   3.825  0.3054 -0.4165 -0.4902
10529TIP3    H153002   0.268   0.438   3.884  2.0899 -0.9105 -1.1565
10529TIP3    H253003   0.165   0.327   3.880  0.5087  0.4366  0.5148
10530TIP3   OH253004   5.849   1.580   4.324 -0.3377 -0.1300 -0.3677
10530TIP3    H153005   5.917   1.639   4.358 -0.5186 -1.0636  1.7099
10530TIP3    H253006   5.898   1.508   4.284 -0.0819 -0.3068  0.2427
10531TIP3   OH253007   6.334   1.459  12.256  0.8279 -0.0785 -0.2637
10531TIP3    H153008   6.424   1.451  12.226  0.7797 -1.5984 -0.0830
10531TIP3    H253009   6.341   1.482  12.349  1.0258 -0.5893 -0.1545
10532TIP3   OH253010   3.587   5.149  16.680  0.1146 -0.5215 -0.0793
10532TIP3    H153011   3.593   5.079  16.615  2.1347 -0.2608 -0.2388
10532TIP3    H253012   3.538   5.219  16.636  1.3465 -0.4002 -1.3112
10533TIP3   OH253013   6.018   1.153  11.596  0.0820  0.6516 -0.1885
10533TIP3    H153014   5.976   1.090  11.537  0.4890  0.0325  0.1802
10533TIP3    H253015   6.105   1.167  11.558 -0.0130  1.0216 -0.2818
10534TIP3   OH253016   3.090   6.105   2.656 -0.3443 -0.6624 -0.3887
10534TIP3    H153017   3.059   6.051   2.584  0.5259  1.0338 -2.1152
10534TIP3    H253018   3.122   6.185   2.615  0.5668  0.2183  1.8485
10535TIP3   OH253019   1.102   5.585  12.651 -0.0637 -0.2586  0.6375
10535TIP3    H153020   1.186   5.539  12.651  0.2227  0.2477  0.1232
10535TIP3    H253021   1.091   5.614  12.560 -0.9785 -0.6476  0.6126
10536TIP3   OH253022   3.362   1.058   2.180 -0.2696 -0.0835  0.2564
10536TIP3    H153023   3.446   1.024   2.211 -0.3254 -0.1687  0.3151
10536TIP3    H253024   3.384   1.141   2.138  0.0338 -0.7413 -0.9412
10537TIP3   OH253025   0.310   6.285  11.253  0.0920  0.3375 -0.8934
10537TIP3    H153026   0.217   6.262  11.259  0.2019  0.0931  0.1504
10537TIP3    H253027   0.356   6.201  11.252  0.2829  0.4369 -2.1851
10538TIP3   OH253028   1.324   2.016  15.841 -0.1794  0.8849  0.0771
10538TIP3    H153029   1.405   2.018  15.789  0.1173  0.1830  0.5084
10538TIP3    H253030   1.350   2.054  15.926 -0.5432  1.5579 -0.1021
10539TIP3   OH253031   1.932   4.298   4.082  0.2583 -0.5423 -0.3524
10539TIP3    H153032   2.025   4.284   4.098 -0.2878 -1.5202  2.6150
10539TIP3    H253033   1.915   4.387   4.115  0.2988  0.0701 -1.9096
10540TIP3   OH253034   3.580   4.715  16.811  0.1062  0.2051  0.1396
10540TIP3    H153035   3.658   4.770  16.798  0.3114 -0.1965 -0.3421
10540TIP3    H253036   3.540   4.710  16.725 -1.0464  1.2640  0.5755
10541TIP3   OH253037   0.312   1.483  14.484  0.6987  0.2074 -0.3526
10541TIP3    H153038   0.397   1.450  14.454  0.9194  0.3207  0.1416
10541TIP3    H253039   0.265   1.404  14.512  0.7320  0.1703 -0.3998
10542TIP3   OH253040   6.525   0.332   4.587 -0.1636 -0.1683  0.7741
10542TIP3    H153041   6.441   0.286   4.588  0.1741 -0.8440 -0.2485
10542TIP3    H253042   6.526   0.381   4.669 -1.7712  0.2509  0.5928
10543TIP3   OH253043   5.231   2.880  14.172 -0.2969  0.6890  0.0594
10543TIP3    H153044   5.153   2.853  14.221  0.3684 -1.5775 -0.0123
10543TIP3    H253045   5.299   2.889  14.238  0.1449 -0.5456 -0.2028
10544TIP3   OH253046   6.054   0.473  11.636  0.3299 -0.4440 -0.4180
10544TIP3    H153047   6.130   0.423  11.663 -1.1899 -2.1364  1.0206
10544TIP3    H253048   6.030   0.438  11.550  1.2214  0.2033 -0.9468
10545TIP3   OH253049   5.608   5.318   4.862 -0.3965  0.5366  0.3230
10545TIP3    H153050   5.530   5.315   4.916 -0.3182 -0.0068  0.4143
10545TIP3    H253051   5.597   5.395   4.807 -0.1403  1.5331  1.6169
10546TIP3   OH253052   0.287   3.495   2.547  0.0521  0.0673 -0.0471
10546TIP3    H153053   0.368   3.451   2.519  0.6337 -1.2573  3.2045
10546TIP3    H253054   0.317   3.572   2.595 -0.6647  0.1744  0.2383
10547TIP3   OH253055   4.652   3.577   4.387 -0.2191 -0.0503  0.0636
10547TIP3    H153056   4.557   3.584   4.396 -0.4392  0.0673 -1.9064
10547TIP3    H253057   4.687   3.635   4.454 -1.5972  2.1431 -0.9958
10548TIP3   OH253058   0.589   4.906  12.588 -0.1070 -0.0136 -0.5111
10548TIP3    H153059   0.575   4.847  12.514  0.1754 -0.1907 -0.4230
10548TIP3    H253060   0.545   4.863  12.661 -0.9484  0.4743 -0.7168
10549TIP3   OH253061   6.768   1.476  14.076  0.0224 -0.3754 -0.1655
10549TIP3    H153062   6.796   1.465  13.985  0.5722  0.7822 -0.1442
10549TIP3    H253063   6.780   1.389  14.115  0.8560 -0.6035 -0.9025
10550TIP3   OH253064   1.575   2.137  14.548 -0.0452 -0.4344 -0.1923
10550TIP3    H153065   1.537   2.055  14.516 -1.7379  0.0943  0.3608
10550TIP3    H253066   1.670   2.122  14.547 -0.2181 -1.6840 -1.9875
10551TIP3   OH253067   4.672   0.116   5.690  0.3148  0.1569 -0.4294
10551TIP3    H153068   4.766   0.128   5.699  0.8239 -2.5305 -1.2833
10551TIP3    H253069   4.640   0.200   5.656  2.5818  0.7447 -1.2759
10552TIP3   OH253070   2.455   3.950   3.660  0.4556 -0.3084 -0.3205
10552TIP3    H153071   2.388   3.881   3.664  2.4707 -2.3264  1.6861
10552TIP3    H253072   2.537   3.903   3.643  1.9260  1.5819  1.0881
10553TIP3   OH253073   2.420   5.734  16.407 -1.0607 -0.4853  0.2531
10553TIP3    H153074   2.491   5.798  16.401 -1.7756  0.4849  1.5998
10553TIP3    H253075   2.372   5.743  16.324 -0.8923  0.3924  0.2491
10554TIP3   OH253076   5.803   3.656   3.927  0.3654  0.1164 -0.5167
10554TIP3    H153077   5.757   3.739   3.929  0.9678  0.4740 -1.0629
10554TIP3    H253078   5.768   3.607   4.002  0.7598  1.2701  0.4591
10555TIP3   OH253079   5.425   4.679   4.762  0.1866  0.2020 -0.1367
10555TIP3    H153080   5.421   4.770   4.733 -0.1818  0.0197 -0.6635
10555TIP3    H253081   5.345   4.665   4.812  0.1256  0.0978 -0.2626
10556TIP3   OH253082   3.747   5.125   2.209 -0.1712  0.0223 -0.1855
10556TIP3    H153083   3.710   5.057   2.267 -0.0995  1.2438  1.3529
10556TIP3    H253084   3.840   5.106   2.208 -0.2074 -0.1679 -0.1193
10557TIP3   OH253085   2.755   0.131   4.414 -0.2967  0.4542  0.0032
10557TIP3    H153086   2.704   0.057   4.447 -0.3861  0.6182  0.2342
10557TIP3    H253087   2.774   0.108   4.323 -0.0406 -0.0100  0.1680
10558TIP3   OH253088   6.721   0.445   6.247  0.6966  0.2178 -0.5411
10558TIP3    H153089   6.683   0.375   6.300  1.7729 -0.4765 -0.6514
10558TIP3    H253090   6.816   0.429   6.252  0.9638  1.6972 -0.5256
10559TIP3   OH253091   4.223   3.278  16.878  0.3370 -0.6053 -0.3835
10559TIP3    H153092   4.250   3.283  16.970 -0.1430 -1.0503 -0.2129
10559TIP3    H253093   4.282   3.339  16.833  2.1076 -2.0778 -0.1599
10560TIP3   OH253094   3.642   2.003   2.077  0.2554 -0.0101  0.1961
10560TIP3    H153095   3.606   2.091   2.065  0.1114 -0.0857  0.0674
10560TIP3    H253096   3.576   1.956   2.129  0.1293 -0.1713 -0.1051
10561TIP3   OH253097   2.057   4.195   0.920  0.0464 -0.1711  0.4229
10561TIP3    H153098   2.107   4.199   1.001  1.1122  0.1353 -0.2392
10561TIP3    H253099   1.988   4.260   0.932 -0.6665 -1.0936  1.6203
10562TIP3   OH253100   1.420   0.768   1.279  0.5389 -0.1952 -0.7262
10562TIP3    H153101   1.406   0.851   1.233  1.2528  1.1918  1.4334
10562TIP3    H253102   1.332   0.739   1.303  0.2702 -0.1698 -1.6363
10563TIP3   OH253103   2.319   6.677  13.508 -0.1417 -0.1265 -0.2179
10563TIP3    H153104   2.315   6.581  13.512 -0.6565 -0.0686  1.3201
10563TIP3    H253105   2.373   6.695  13.431 -1.6001 -1.6080 -1.6653
10564TIP3   OH253106   5.646   3.420   1.283  0.3369 -0.0283 -0.2934
10564TIP3    H153107   5.614   3.379   1.364  1.9488 -1.2306 -0.2079
10564TIP3    H253108   5.741   3.407   1.287  0.4856  0.3413 -2.1464
10565TIP3   OH253109   3.466   5.831   0.745 -0.1966  0.9013 -0.1394
10565TIP3    H153110   3.413   5.775   0.801 -1.5256  0.4093 -1.8044
10565TIP3    H253111   3.482   5.779   0.666 -1.0969  2.6617 -1.5535
10566TIP3   OH253112   0.664   2.227   4.955 -0.1812 -0.4863  0.5978
10566TIP3    H153113   0.587   2.176   4.929 -1.3933  1.4956  0.0522
10566TIP3    H253114   0.628   2.306   4.995  1.6033  0.0045  1.3269
10567TIP3   OH253115   6.743   0.911  16.337 -0.1259 -0.1548  0.2722
10567TIP3    H153116   6.726   0.917  16.243 -0.0074  3.1865  0.3165
10567TIP3    H253117   6.657   0.892  16.376 -0.2290 -1.2681 -0.4538
10568TIP3   OH253118   1.482   1.612  14.732 -0.0414 -0.6765  0.4430
10568TIP3    H153119   1.448   1.702  14.729  1.2886 -0.1618 -0.4221
10568TIP3    H253120   1.411   1.558  14.698 -0.4675  0.1945 -0.0946
10569TIP3   OH253121   3.046   0.803  11.549 -0.0155  0.2124  0.1220
10569TIP3    H153122   3.137   0.786  11.574  0.0367 -0.6376 -0.6092
10569TIP3    H253123   3.009   0.717  11.530 -0.6505  0.6386 -0.6719
10570TIP3   OH253124   4.408   5.778   2.451 -0.0118  0.1373  0.3275
10570TIP3    H153125   4.446   5.697   2.485  0.2933  0.4018  0.6253
10570TIP3    H253126   4.466   5.803   2.379 -1.9978 -1.7200 -2.0697
10571TIP3   OH253127   6.815   2.031  11.044 -0.6029 -0.2585  0.0208
10571TIP3    H153128   6.791   2.048  10.953 -0.4489 -1.1201 -0.1941
10571TIP3    H253129   6.793   2.112  11.090  1.1698  0.9626 -1.1216
10572TIP3   OH253130   3.537   5.762  13.894 -0.6676 -0.2074  0.0934
10572TIP3    H153131   3.462   5.776  13.951 -1.2558 -0.1282 -0.6830
10572TIP3    H253132   3.504   5.779  13.805 -0.6751 -3.4959 -0.6625
10573TIP3   OH253133   2.238   3.877  15.997 -0.3876 -0.2521  0.2576
10573TIP3    H153134   2.237   3.828  16.079  1.4171  0.1489  0.5615
10573TIP3    H253135   2.252   3.968  16.024  1.6150 -0.2833 -0.5149
10574TIP3   OH253136   3.747   5.668  16.522  0.0844 -0.0018 -0.2980
10574TIP3    H153137   3.761   5.747  16.470  0.4277  1.3208  1.7080
10574TIP3    H253138   3.714   5.604  16.459 -0.6433  1.8486 -1.9100
10575TIP3   OH253139   5.083   3.380  16.153  0.4081 -0.9297  0.1538
10575TIP3    H153140   5.079   3.408  16.062  0.2476 -0.7214  0.2244
10575TIP3    H253141   5.018   3.309  16.159 -2.8331  1.8311  1.0838
10576TIP3   OH253142   1.797   5.715  15.095  0.3258 -0.3587  0.3365
10576TIP3    H153143   1.764   5.750  15.013 -0.9087 -1.2960  0.4013
10576TIP3    H253144   1.783   5.620  15.088  1.8568 -0.6457  0.9059
10577TIP3   OH253145   2.784   6.652  15.992 -0.1745 -0.2448 -0.0520
10577TIP3    H153146   2.743   6.604  16.064  0.6729 -1.7284 -0.5153
10577TIP3    H253147   2.750   6.611  15.913  0.7667 -0.2865 -0.4495
10578TIP3   OH253148   3.756   4.520  16.339 -0.5850  0.1044  0.4453
10578TIP3    H153149   3.777   4.598  16.390 -1.9507 -0.1877  1.4988
10578TIP3    H253150   3.680   4.545  16.287 -0.3166 -0.1743 -0.0910
10579TIP3   OH253151   1.065   1.795  10.794 -0.4850 -0.8080 -0.4338
10579TIP3    H153152   1.017   1.733  10.739 -0.3871 -0.5758 -0.7865
10579TIP3    H253153   1.066   1.876  10.743  0.1607 -0.7724 -0.3762
10580TIP3   OH253154   1.971   0.641  12.038  0.9556 -0.0242  0.3825
10580TIP3    H153155   1.914   0.571  12.071 -0.6106  0.6296 -0.8197
10580TIP3    H253156   2.019   0.671  12.115  0.7409 -1.5576  1.1650
10581TIP3   OH253157   5.567   4.625   3.134  0.0475  0.3471  0.1849
10581TIP3    H153158   5.473   4.643   3.133  0.0313  0.2788  0.3603
10581TIP3    H253159   5.600   4.675   3.209 -0.1192 -0.9351  1.1521
10582TIP3   OH253160   3.105   1.104   1.575  0.2465  0.7342 -0.4576
10582TIP3    H153161   3.053   1.170   1.621  1.1129  1.6495 -0.7663
10582TIP3    H253162   3.053   1.082   1.498  0.1484  1.3907 -0.5872
10583TIP3   OH253163   3.988   3.280   1.497  0.1071  0.7400  0.0471
10583TIP3    H153164   3.956   3.236   1.418  0.4814  0.2075  0.1866
10583TIP3    H253165   3.911   3.289   1.552 -0.0930  0.8131 -0.2411
10584TIP3   OH253166   1.807   5.039   4.726  0.1111 -0.0077 -0.1424
10584TIP3    H153167   1.806   5.022   4.632  2.9728 -3.2548  0.2094
10584TIP3    H253168   1.729   4.994   4.760  0.3567 -0.9099 -0.7393
10585TIP3   OH253169   0.570   3.402   4.054  0.1501 -0.4516  0.8891
10585TIP3    H153170   0.628   3.455   4.000  0.9320 -1.5912  0.5882
10585TIP3    H253171   0.602   3.415   4.143 -0.0774  0.0900  0.8972
10586TIP3   OH253172   5.380   3.699  16.686  0.3462  0.4184 -0.3771
10586TIP3    H153173   5.417   3.735  16.605  1.1589 -0.7477 -0.5505
10586TIP3    H253174   5.391   3.769  16.750 -0.7477  1.5373 -1.3696
10587TIP3   OH253175   0.304   6.202  14.884  0.2156  0.0305 -0.1118
10587TIP3    H153176   0.246   6.199  14.808 -0.2506 -0.3113  0.2541
10587TIP3    H253177   0.247   6.185  14.958  0.6516  0.4809  0.3289
10588TIP3   OH253178   4.169   2.048   1.904  0.4625 -0.3390 -0.0176
10588TIP3    H153179   4.192   2.132   1.865  0.1377 -0.0306  0.4463
10588TIP3    H253180   4.228   1.985   1.863  0.2343  0.0039 -0.8783
10589TIP3   OH253181   0.362   4.228   1.621  0.1532 -0.2056 -0.1057
10589TIP3    H153182   0.451   4.236   1.656  0.3659 -0.8661 -0.4935
10589TIP3    H253183   0.343   4.135   1.622  0.1099 -0.2400 -1.5928
10590TIP3   OH253184   3.407   5.014   4.468  0.3388 -0.1795  0.3693
10590TIP3    H153185   3.408   5.032   4.374 -1.2613 -1.5426  0.0535
10590TIP3    H253186   3.468   4.941   4.479  1.1656  0.5165  0.5464
10591TIP3   OH253187   1.394   0.321  14.402 -0.5178 -0.1358 -0.1893
10591TIP3    H153188   1.469   0.286  14.450 -1.6142 -1.1298  0.8680
10591TIP3    H253189   1.364   0.247  14.348 -0.1409  0.5598 -1.4009
10592TIP3   OH253190   3.234   4.221  14.768 -0.2051 -0.6105 -0.1675
10592TIP3    H153191   3.168   4.200  14.702  0.6868 -2.1551 -0.6325
10592TIP3    H253192   3.219   4.158  14.838  0.9592 -1.2007 -0.4291
10593TIP3   OH253193   1.422   4.597  13.293  0.2138  0.3293 -0.1683
10593TIP3    H153194   1.424   4.637  13.206 -0.1467  0.9613  0.1064
10593TIP3    H253195   1.402   4.670  13.352  0.7349 -0.0422  0.4740
10594TIP3   OH253196   0.159   2.140  15.824  0.6074  0.2953  0.0150
10594TIP3    H153197   0.092   2.137  15.893  2.4422  0.8083  1.9310
10594TIP3    H253198   0.212   2.061  15.840  0.3885 -0.2158 -1.6009
10595TIP3   OH253199   3.499   5.505  13.201  0.3802  0.2298  0.2465
10595TIP3    H153200   3.458   5.427  13.163  0.4919  1.3083 -2.3116
10595TIP3    H253201   3.441   5.529  13.274 -0.1373 -1.7021  0.5270
10596TIP3   OH253202   5.520   0.174   1.089 -0.3456 -0.3245  0.3117
10596TIP3    H153203   5.471   0.256   1.094  0.7184  0.2880  1.4055
10596TIP3    H253204   5.585   0.189   1.021 -0.6892 -0.5736 -0.0731
10597TIP3   OH253205   2.390   6.103  16.779  0.4005  0.0839  0.1804
10597TIP3    H153206   2.462   6.047  16.809  0.6286 -0.3980 -1.2047
10597TIP3    H253207   2.433   6.174  16.730 -0.0301 -0.0022 -0.3345
10598TIP3   OH253208   2.503   4.827   0.846  0.2187  0.1085 -0.1420
10598TIP3    H153209   2.439   4.756   0.848  0.9656 -0.5727  0.5227
10598TIP3    H253210   2.460   4.900   0.890  0.2855 -0.6978  1.3268
10599TIP3   OH253211   5.431   4.947  16.930  0.3354 -0.6318 -0.1689
10599TIP3    H153212   5.496   5.001  16.976  0.3578 -1.0660  0.3126
10599TIP3    H253213   5.478   4.914  16.853 -0.2765  1.7447 -1.6792
10600TIP3   OH253214   4.257   6.279   5.011  0.2767  0.1648 -0.6065
10600TIP3    H153215   4.285   6.314   5.095  1.8511 -3.3145  0.5062
10600TIP3    H253216   4.339   6.265   4.963  0.1891 -4.3890  0.1935
10601TIP3   OH253217   0.727   5.414  15.416 -0.1724  0.1272  0.1078
10601TIP3    H153218   0.689   5.357  15.350  1.1588 -0.7016  0.0434
10601TIP3    H253219   0.653   5.466  15.447 -1.2967 -1.1858 -0.2755
10602TIP3   OH253220   2.963   5.185  12.100 -0.1099 -0.7732 -0.0615
10602TIP3    H153221   2.901   5.118  12.128 -0.0130 -1.7275 -1.9610
10602TIP3    H253222   2.964   5.177  12.004  2.3180 -0.2233 -0.1265
10603TIP3   OH253223   1.157   1.688  12.724 -0.0547 -0.3584  0.4988
10603TIP3    H153224   1.219   1.721  12.659 -1.0395  0.5454  0.0010
10603TIP3    H253225   1.074   1.684  12.678 -1.6993  3.9321  2.5654
10604TIP3   OH253226   0.132   1.141   5.942  0.0458  0.2646  0.2012
10604TIP3    H153227   0.155   1.218   5.992 -0.2721  0.0344  0.7078
10604TIP3    H253228   0.173   1.068   5.989  0.2821  0.1163 -0.2281
10605TIP3   OH253229   4.506   3.996   3.816 -0.0950 -0.6081 -0.0564
10605TIP3    H153230   4.427   3.984   3.763  0.6831  1.5217 -1.8782
10605TIP3    H253231   4.501   4.087   3.846  2.1909 -0.0132 -1.2642
10606TIP3   OH253232   5.321   5.244  14.556 -0.1924  0.0905 -0.2526
10606TIP3    H153233   5.357   5.157  14.574 -0.9662 -0.9994 -3.3330
10606TIP3    H253234   5.353   5.265  14.469 -2.0132  1.8119 -0.5670
10607TIP3   OH253235   0.768   0.502  10.618 -0.4914 -0.3514 -0.1196
10607TIP3    H153236   0.674   0.513  10.634 -0.0942  0.5916  1.7545
10607TIP3    H253237   0.787   0.564  10.548 -0.8564  1.1586  1.0764
10608TIP3   OH253238   3.480   5.987  13.674  0.5569 -0.1292  0.2415
10608TIP3    H153239   3.426   5.959  13.600 -0.0742  0.5471  0.4399
10608TIP3    H253240   3.420   6.033  13.732  1.2316  0.1282  0.7476
10609TIP3   OH253241   4.737   2.136  14.351 -0.1133  0.0851  0.2624
10609TIP3    H153242   4.696   2.175  14.274  2.4207 -0.0400 -1.2534
10609TIP3    H253243   4.773   2.211  14.399 -1.4978  0.1434  1.2542
10610TIP3   OH253244   1.385   4.584  11.422  0.6655 -0.1059  0.3118
10610TIP3    H153245   1.321   4.623  11.362 -0.3579 -2.3229 -0.1206
10610TIP3    H253246   1.377   4.636  11.502 -1.4057 -0.0804  0.1373
10611TIP3   OH253247   3.555   6.408   1.082  0.1953  0.2024  0.2218
10611TIP3    H153248   3.621   6.361   1.031  0.3270  0.6650 -0.0420
10611TIP3    H253249   3.513   6.340   1.135  1.0138 -0.0633  0.5494
10612TIP3   OH253250   2.287   0.513  14.171 -0.5191  0.3471  0.4146
10612TIP3    H153251   2.208   0.471  14.205 -0.1073 -1.6285 -0.9082
10612TIP3    H253252   2.259   0.555  14.090  0.0001 -1.5802 -0.8255
10613TIP3   OH253253   0.119   5.412   1.924 -0.0112  0.1052 -0.2781
10613TIP3    H153254   0.182   5.474   1.962  1.1226 -0.2818 -1.4406
10613TIP3    H253255   0.114   5.437   1.831  0.2434 -1.3377 -0.7083
10614TIP3   OH253256   3.244   6.692   0.174 -0.3543  1.2024  0.0495
10614TIP3    H153257   3.178   6.695   0.243 -0.2556  0.9814  0.1568
10614TIP3    H253258   3.229   6.608   0.130 -1.0075  1.7517 -0.7969
10615TIP3   OH253259   4.399   0.837   1.679 -0.0487 -0.6403 -0.2067
10615TIP3    H153260   4.421   0.900   1.611  0.5024 -1.0454 -0.4117
10615TIP3    H253261   4.468   0.846   1.744 -1.3800  0.8364  1.0892
10616TIP3   OH253262   1.138   6.599  10.221  0.2500  0.2185  0.0400
10616TIP3    H153263   1.046   6.591  10.246  0.3862 -0.8288  0.2620
10616TIP3    H253264   1.171   6.673  10.272 -0.4153  0.4485  0.1379
10617TIP3   OH253265   0.256   6.673  10.171  0.0301  0.2489  0.1785
10617TIP3    H153266   0.165   6.670  10.201  0.4081  0.6752  1.4416
10617TIP3    H253267   0.307   6.640  10.245  0.9655  0.8025 -0.2028
10618TIP3   OH253268   5.012   4.061   3.451  0.3855 -0.3530  0.6079
10618TIP3    H153269   4.945   4.001   3.419  0.1818 -0.0183  0.4014
10618TIP3    H253270   5.080   4.005   3.488 -0.5091 -0.6730  1.8241
10619TIP3   OH253271   4.805   5.588  14.300 -0.2064  0.1597 -0.3649
10619TIP3    H153272   4.894   5.584  14.264  1.0878  1.0211  2.5035
10619TIP3    H253273   4.750   5.552  14.230  2.5996 -2.3708 -1.5175
10620TIP3   OH253274   5.197   4.197   2.161  0.3803 -0.4279  0.0772
10620TIP3    H153275   5.227   4.194   2.252 -1.2093  0.2023  0.6572
10620TIP3    H253276   5.128   4.130   2.157 -0.6627  0.6485 -0.2283
10621TIP3   OH253277   3.620   0.776  11.673  0.0434 -0.5363  0.2920
10621TIP3    H153278   3.529   0.745  11.667 -0.3329  0.8046 -1.9258
10621TIP3    H253279   3.652   0.739  11.755 -2.8466 -0.2042  1.7199
10622TIP3   OH253280   4.772   2.312   1.149 -0.0108 -0.3261  0.5050
10622TIP3    H153281   4.709   2.363   1.200  0.4762  0.1153  0.6780
10622TIP3    H253282   4.844   2.296   1.210  1.0357  1.0744 -0.3160
10623TIP3   OH253283   3.478   2.569   0.427  0.6877  0.6783  0.0635
10623TIP3    H153284   3.485   2.545   0.334  1.0759  0.5560  0.1210
10623TIP3    H253285   3.558   2.535   0.466  0.5594  0.7966  0.4315
10624TIP3   OH253286   1.788   5.992   1.933  0.2100  0.0410 -0.6185
10624TIP3    H153287   1.806   6.070   1.985  0.2253  0.1020 -0.7152
10624TIP3    H253288   1.770   5.924   1.998 -0.9117  0.3920 -0.5457
10625TIP3   OH253289   4.698   5.561  11.013  0.5963  0.2444 -0.5395
10625TIP3    H153290   4.743   5.631  10.966  0.2604  0.4524 -0.5589
10625TIP3    H253291   4.709   5.584  11.106  0.2373  0.4838 -0.5540
10626TIP3   OH253292   0.504   5.421   3.460  0.4573 -0.9359  0.1609
10626TIP3    H153293   0.524   5.354   3.524 -0.4468 -2.4027 -1.0360
10626TIP3    H253294   0.573   5.412   3.393  1.0260  0.1544  0.5700
10627TIP3   OH253295   1.661   5.146   3.103 -0.1857  0.1603  0.9223
10627TIP3    H153296   1.693   5.212   3.164  0.4698 -0.7125  1.5439
10627TIP3    H253297   1.736   5.127   3.047  0.2062 -1.3596  1.9100
10628TIP3   OH253298   5.787   5.546  12.764 -0.4129 -0.3019  0.0182
10628TIP3    H153299   5.715   5.521  12.821  0.4599 -0.4177  1.1051
10628TIP3    H253300   5.858   5.568  12.824  1.1165 -2.1341 -1.0162
10629TIP3   OH253301   1.876   2.313   4.520  0.2765 -0.5589 -0.1483
10629TIP3    H153302   1.968   2.285   4.527  0.0554 -1.2042  0.3447
10629TIP3    H253303   1.866   2.379   4.589 -0.3160 -2.5032  1.7757
10630TIP3   OH253304   2.211   1.170   2.408  0.0152  0.5660  0.1686
10630TIP3    H153305   2.168   1.236   2.353 -0.8497  0.9248  1.2402
10630TIP3    H253306   2.192   1.087   2.364 -0.7153  0.8433 -0.0528
10631TIP3   OH253307   5.907   3.891   0.022  0.5066 -0.1640  0.2702
10631TIP3    H153308   5.887   3.825   0.088 -0.3377  0.2985  0.4980
10631TIP3    H253309   5.834   3.885  -0.040  1.4001 -0.7446 -0.7491
10632TIP3   OH253310   0.706   5.932   1.335 -0.1166  0.1933  0.7237
10632TIP3    H153311   0.720   5.838   1.343  0.6810  0.2978  0.6204
10632TIP3    H253312   0.613   5.944   1.353 -0.0073 -0.4859  1.7990
10633TIP3   OH253313   6.464   5.186  12.066 -0.0761  0.1190 -0.1389
10633TIP3    H153314   6.397   5.235  12.019  2.0672  1.7196 -1.7347
10633TIP3    H253315   6.547   5.215  12.028  1.5358 -2.2075  1.2957
10634TIP3   OH253316   3.656   5.123  11.320 -0.1242  0.3869  0.5400
10634TIP3    H153317   3.574   5.155  11.282 -0.6481 -1.5190 -0.0182
10634TIP3    H253318   3.646   5.028  11.323  1.5987  0.1986  1.5833
10635TIP3   OH253319   4.157   3.108  11.363  0.2852 -0.3542 -0.6729
10635TIP3    H153320   4.066   3.136  11.377  0.5000 -0.1509  0.4341
10635TIP3    H253321   4.202   3.187  11.333  0.6174  0.2485  1.2356
10636TIP3   OH253322   0.108   4.447   4.588 -0.8482  0.0420 -0.0804
10636TIP3    H153323   0.020   4.481   4.604 -1.0809  0.5448 -2.1001
10636TIP3    H253324   0.166   4.521   4.603 -0.8174 -0.1016  0.5586
10637TIP3   OH253325   4.864   2.107   0.863  0.3105  0.4101  0.5374
10637TIP3    H153326   4.873   2.200   0.842  0.0154  0.7872  1.9672
10637TIP3    H253327   4.954   2.076   0.877  0.3225  0.8972  1.6506
10638TIP3   OH253328   1.287   0.696  11.604  0.4828 -0.5538 -0.4847
10638TIP3    H153329   1.213   0.647  11.639 -1.8846  2.1358 -1.3428
10638TIP3    H253330   1.317   0.749  11.678 -0.9202  1.0173 -0.9586
10639TIP3   OH253331   1.428   1.969   5.172  0.0517 -0.2580  0.0936
10639TIP3    H153332   1.394   1.937   5.256 -0.5935 -1.8844 -0.7337
10639TIP3    H253333   1.522   1.981   5.187 -0.0256 -0.7114  1.0038
10640TIP3   OH253334   3.837   3.103   3.969 -0.3054 -0.7706  0.7746
10640TIP3    H153335   3.902   3.111   3.899 -0.8517  0.6157  0.4026
10640TIP3    H253336   3.753   3.108   3.925 -0.7496 -3.0375  1.2049
10641TIP3   OH253337   4.729   4.009   2.412 -0.1031  0.1101  0.0336
10641TIP3    H153338   4.651   3.968   2.373 -1.9395  1.6392  1.8705
10641TIP3    H253339   4.738   3.966   2.497 -0.1078  1.2383  0.6231
10642TIP3   OH253340   4.645   6.555   6.521 -0.1452  0.2288  0.0185
10642TIP3    H153341   4.626   6.557   6.427 -2.8416 -0.0684  0.4886
10642TIP3    H253342   4.609   6.472   6.551 -0.6085  0.9461  1.5622
10643TIP3   OH253343   1.155   0.541  12.673  0.2674  0.1390  0.3662
10643TIP3    H153344   1.197   0.456  12.663  0.7152  0.3887  0.1325
10643TIP3    H253345   1.130   0.566  12.584 -0.1164  0.1245  0.4683
10644TIP3   OH253346   5.729   6.566   1.831  0.3647  0.2068 -0.1396
10644TIP3    H153347   5.803   6.540   1.886  0.4116 -2.2539 -1.2531
10644TIP3    H253348   5.656   6.513   1.862 -0.8604  2.1667  0.5317
10645TIP3   OH253349   6.780   2.749   5.722 -0.6021  0.1101 -0.3466
10645TIP3    H153350   6.742   2.680   5.777 -0.2689  0.2561  0.0779
10645TIP3    H253351   6.732   2.828   5.746 -0.0840  0.2828  0.1470
10646TIP3   OH253352   0.345   6.056  15.263  0.1868 -0.1346 -0.2970
10646TIP3    H153353   0.437   6.073  15.241  0.8418 -1.7208  0.9955
10646TIP3    H253354   0.320   6.131  15.317  1.0209 -0.1118  0.0878
10647TIP3   OH253355   1.255   3.031   3.111 -0.6863 -0.4286  0.1791
10647TIP3    H153356   1.334   2.993   3.149 -1.3954 -0.3172  1.8481
10647TIP3    H253357   1.232   3.103   3.170 -1.3424  0.3457 -0.9822
10648TIP3   OH253358   4.366   5.291   6.205 -0.4242  0.1904  0.5953
10648TIP3    H153359   4.298   5.225   6.220 -0.5885 -0.1806 -1.5012
10648TIP3    H253360   4.358   5.314   6.113  1.4743  1.0848  0.5994
10649TIP3   OH253361   0.715   0.007  13.118  0.2754  0.3556  0.4191
10649TIP3    H153362   0.805  -0.014  13.092  0.6199  1.3620  0.7749
10649TIP3    H253363   0.671  -0.078  13.120  1.1916 -0.1428  0.1566
10650TIP3   OH253364   0.756   3.904  15.981  0.1270 -0.6898  0.2788
10650TIP3    H153365   0.828   3.925  15.922  0.1744 -1.7355 -0.0473
10650TIP3    H253366   0.695   3.978  15.971 -0.0553 -1.0282 -1.3926
10651TIP3   OH253367   2.254   0.864   1.639  0.1600  0.1572 -0.5149
10651TIP3    H153368   2.204   0.945   1.627  0.8934  0.9289  1.2338
10651TIP3    H253369   2.189   0.795   1.639 -0.7950  1.0236  0.6231
10652TIP3   OH253370   1.830   1.299  11.485  0.5441 -0.2628 -0.3432
10652TIP3    H153371   1.786   1.348  11.416  1.5946  0.1538 -0.7400
10652TIP3    H253372   1.761   1.278  11.548 -0.1034  0.8884 -0.6433
10653TIP3   OH253373   4.986   0.306   3.903  0.2768 -0.4122 -0.3868
10653TIP3    H153374   4.938   0.230   3.870 -0.1528 -1.0153  1.4651
10653TIP3    H253375   4.919   0.364   3.938  0.7420 -0.2186  0.2142
10654TIP3   OH253376   4.928   2.546   5.965  0.6759  0.5507 -0.0564
10654TIP3    H153377   4.868   2.546   5.891 -1.5715  0.7568  1.6356
10654TIP3    H253378   4.873   2.570   6.040  2.4205 -1.3759  1.9834
10655TIP3   OH253379   1.873   5.625   4.437 -0.3543 -0.1237  0.6707
10655TIP3    H153380   1.917   5.606   4.520  1.5298 -2.7280 -0.7608
10655TIP3    H253381   1.878   5.543   4.388 -0.1436  1.6474 -2.5700
10656TIP3   OH253382   0.863   0.048   2.507 -0.3936 -0.1900 -0.7427
10656TIP3    H153383   0.910  -0.020   2.459  1.8691 -0.4121  1.5285
10656TIP3    H253384   0.926   0.120   2.513 -1.2971  0.5434  0.2277
10657TIP3   OH253385   4.615   3.989  13.692 -0.0086 -0.6045  0.2139
10657TIP3    H153386   4.556   3.995  13.767 -1.0807 -1.4975 -0.5105
10657TIP3    H253387   4.606   3.898  13.662 -1.4602  0.2965 -2.3903
10658TIP3   OH253388   0.338   6.790  14.482 -0.0942 -0.4918 -0.5969
10658TIP3    H153389   0.413   6.747  14.524 -0.8513 -0.7023  0.5870
10658TIP3    H253390   0.377   6.840  14.410  1.2020 -0.5321  0.0390
10659TIP3   OH253391   5.643   5.060  14.644 -0.2388 -0.6381 -0.0156
10659TIP3    H153392   5.713   5.007  14.680  0.9626  1.8152  1.4948
10659TIP3    H253393   5.570   4.998  14.632  1.5776 -2.9205 -0.0704
10660TIP3   OH253394   0.459   6.003   0.179  0.0359  0.0344  0.0587
10660TIP3    H153395   0.445   5.934   0.113  0.2603 -0.2527  0.3102
10660TIP3    H253396   0.499   6.075   0.130 -0.8930  0.2838 -0.3647
10661TIP3   OH253397   4.733   4.644  14.316 -0.2881 -0.5052 -0.4306
10661TIP3    H153398   4.700   4.725  14.355 -1.1340 -0.0734 -1.9478
10661TIP3    H253399   4.828   4.654  14.318 -0.2098 -1.0101  2.4523
10662TIP3   OH253400   0.613   6.513  13.613 -0.2634  0.2800  0.3590
10662TIP3    H153401   0.660   6.550  13.688  0.8718 -1.3157  0.4779
10662TIP3    H253402   0.642   6.566  13.539 -0.4108  1.0605  0.8464
10663TIP3   OH253403   5.159   4.107  10.928 -0.2176 -0.1483  0.1025
10663TIP3    H153404   5.198   4.023  10.907 -0.4972 -0.2587  0.0256
10663TIP3    H253405   5.232   4.161  10.958 -0.0116 -0.3608 -0.0200
10664TIP3   OH253406   6.539   3.682  16.828 -0.6649 -0.2874  0.2009
10664TIP3    H153407   6.577   3.595  16.822  0.7245  0.2559  0.7237
10664TIP3    H253408   6.501   3.699  16.742 -0.8720 -1.3608  0.0716
10665TIP3   OH253409   6.790   4.903  12.680  0.3752 -0.0030 -0.5543
10665TIP3    H153410   6.792   4.833  12.616  1.1848 -1.7724  1.3093
10665TIP3    H253411   6.879   4.938  12.681  0.4934 -0.3131 -0.0551
10666TIP3   OH253412   2.251   4.976  13.877 -0.3974  0.3185 -0.1969
10666TIP3    H153413   2.326   5.015  13.833 -2.0223  1.1992 -2.3988
10666TIP3    H253414   2.228   5.038  13.946 -0.8679  1.5873 -1.4543
10667TIP3   OH253415   3.733   4.696   3.024  0.6343  0.3529  0.1016
10667TIP3    H153416   3.771   4.643   3.094 -2.0574 -2.4727 -0.4033
10667TIP3    H253417   3.762   4.655   2.943  0.3778  1.0929 -0.3802
10668TIP3   OH253418   6.197   4.093  12.318  0.5136  0.3814  0.2740
10668TIP3    H153419   6.102   4.095  12.302 -0.0165  1.3469  2.9652
10668TIP3    H253420   6.210   4.017  12.373  1.5453 -0.4075 -1.0022
10669TIP3   OH253421   6.813   3.929   5.640  0.4281 -0.1338  0.4828
10669TIP3    H153422   6.817   3.976   5.557 -0.3864  0.1444  0.5964
10669TIP3    H253423   6.724   3.943   5.672  0.0672 -1.9366  0.4074
10670TIP3   OH253424   4.234   4.039  14.108  0.0890  0.3854  0.0757
10670TIP3    H153425   4.168   3.984  14.066 -0.4222  1.9533 -1.2667
10670TIP3    H253426   4.191   4.124  14.119  1.3296  0.9507  0.7644
10671TIP3   OH253427   0.976   0.762  15.827  0.2987  0.4645 -0.2563
10671TIP3    H153428   0.979   0.667  15.834  4.3446  0.5256  2.1059
10671TIP3    H253429   0.899   0.788  15.878  0.3871 -1.5099  0.9849
10672TIP3   OH253430   3.379   5.696  14.501  0.9617 -0.6246  0.0981
10672TIP3    H153431   3.339   5.610  14.484  1.2878 -0.6753 -0.4332
10672TIP3    H253432   3.462   5.676  14.544  1.3773 -0.6147 -0.6818
10673TIP3   OH253433   1.245   4.296  12.146 -0.0166 -0.5496 -0.2970
10673TIP3    H153434   1.304   4.305  12.220 -0.3443 -1.5738  0.1067
10673TIP3    H253435   1.195   4.217  12.165 -1.5754  0.3299 -0.5900
10674TIP3   OH253436   0.759   1.330   4.210 -0.7775  0.2981  0.4253
10674TIP3    H153437   0.758   1.255   4.150  0.5346  0.3139  0.3573
10674TIP3    H253438   0.715   1.297   4.289 -1.7041 -0.0049 -0.1889
10675TIP3   OH253439   1.532   4.956   0.896 -0.1659 -0.1084 -0.1051
10675TIP3    H153440   1.579   5.032   0.862 -0.7016 -0.5128 -1.8195
10675TIP3    H253441   1.600   4.901   0.935  0.4677  0.3870 -0.4992
10676TIP3   OH253442   0.995   4.173  15.347 -0.2700 -0.6285 -0.1723
10676TIP3    H153443   1.053   4.216  15.410 -1.1221  0.3369 -0.0143
10676TIP3    H253444   1.049   4.161  15.269  0.9925 -2.4048  0.9001
10677TIP3   OH253445   4.828   1.294  12.819 -0.0841 -0.8460 -0.1183
10677TIP3    H153446   4.797   1.206  12.840  3.4144 -2.3381 -0.4990
10677TIP3    H253447   4.761   1.329  12.760 -1.7931 -3.0438  0.3456
10678TIP3   OH253448   1.902   5.481   1.171  0.8147 -0.5378  0.3348
10678TIP3    H153449   1.919   5.454   1.080  0.7664 -1.9444  0.7211
10678TIP3    H253450   1.911   5.401   1.222 -1.4050 -0.2600  1.2910
10679TIP3   OH253451   2.493   1.242  16.793 -0.4526 -0.1652  0.4577
10679TIP3    H153452   2.551   1.315  16.815 -0.1216  0.0818 -1.0756
10679TIP3    H253453   2.419   1.251  16.852 -0.0533  0.9621  0.8116
10680TIP3   OH253454   6.615   0.059   4.506  0.1656 -0.4819  0.2032
10680TIP3    H153455   6.659   0.061   4.591 -0.1532 -0.2394  0.3613
10680TIP3    H253456   6.595   0.151   4.487  1.4767 -0.3564 -0.7797
10681TIP3   OH253457   6.520   3.809   0.259 -0.6391  0.2569  0.1236
10681TIP3    H153458   6.452   3.766   0.312 -0.1894  0.5585  0.9690
10681TIP3    H253459   6.527   3.755   0.181  1.0948 -2.2846  1.8819
10682TIP3   OH253460   6.414   5.378   3.046 -0.3628  0.2841  1.2093
10682TIP3    H153461   6.356   5.349   3.117  1.3447 -0.8535  2.2235
10682TIP3    H253462   6.475   5.438   3.088 -1.4747  2.4237 -0.0980
10683TIP3   OH253463   4.417   0.704   0.767 -0.1324 -0.1323 -0.2869
10683TIP3    H153464   4.500   0.723   0.811  0.4318 -1.3613 -0.7936
10683TIP3    H253465   4.353   0.757   0.814  0.8070  0.2292  0.6228
10684TIP3   OH253466   0.307   1.892  15.838 -0.4573 -0.2036 -0.6406
10684TIP3    H153467   0.351   1.809  15.822 -1.3869 -0.8841  0.2158
10684TIP3    H253468   0.370   1.944  15.888 -0.1556 -0.6691 -0.5384
10685TIP3   OH253469   4.229   4.879  15.987  0.0471 -0.2901  0.3432
10685TIP3    H153470   4.261   4.807  16.041 -0.0141 -0.0272  0.7338
10685TIP3    H253471   4.300   4.896  15.925  0.2514 -0.3806  0.5483
10686TIP3   OH253472   5.366   5.830  12.897 -0.0616  0.2799 -0.2963
10686TIP3    H153473   5.356   5.781  12.816 -0.5331 -0.1539  0.0244
10686TIP3    H253474   5.457   5.814  12.923 -0.2591 -0.5873 -0.0968
10687TIP3   OH253475   1.440   0.214   1.039  0.2854  0.3776 -0.2863
10687TIP3    H153476   1.486   0.227   1.121  0.9390  1.2438 -0.7724
10687TIP3    H253477   1.348   0.204   1.064  0.2567  2.1436  0.4581
10688TIP3   OH253478   6.558   0.753  13.146  0.0530  0.6333  0.1856
10688TIP3    H153479   6.528   0.670  13.109  0.3175  0.4911  0.2904
10688TIP3    H253480   6.575   0.809  13.071  1.4618  0.0506  0.0544
10689TIP3   OH253481   3.189   4.701   1.022  0.1017  0.1752  0.2777
10689TIP3    H153482   3.278   4.674   0.998  1.4328  3.0108  1.6056
10689TIP3    H253483   3.162   4.637   1.089  2.4389  0.9462  2.0956
10690TIP3   OH253484   5.479   5.192  13.322  0.1079  0.2578  0.2309
10690TIP3    H153485   5.397   5.223  13.360  0.1506  0.0815  0.4619
10690TIP3    H253486   5.452   5.139  13.247  0.0428  1.2282 -0.4479
10691TIP3   OH253487   4.761   0.268  13.456  0.1699 -0.4179 -0.1452
10691TIP3    H153488   4.837   0.272  13.398 -1.2959  0.0527 -2.1235
10691TIP3    H253489   4.756   0.355  13.495 -0.7304  0.3569 -1.9060
10692TIP3   OH253490   5.072   6.445   5.432 -0.0609 -0.1906 -0.1250
10692TIP3    H153491   5.136   6.515   5.415  0.4062 -0.2492  1.2985
10692TIP3    H253492   4.997   6.468   5.377  1.1088 -0.0545 -1.7504
10693TIP3   OH253493   6.275   2.497  11.636 -0.4058 -0.4365  0.2988
10693TIP3    H153494   6.369   2.511  11.648 -0.1079 -0.8690 -1.1883
10693TIP3    H253495   6.269   2.407  11.603 -1.2627 -0.1699 -0.3259
10694TIP3   OH253496   4.970   5.875  14.407  0.0080  0.4970  0.1114
10694TIP3    H153497   4.932   5.831  14.332 -1.1100  2.1096 -0.3133
10694TIP3    H253498   5.055   5.833  14.419  0.1427  0.1005 -1.9526
10695TIP3   OH253499   5.918   6.784   1.026 -0.2172 -0.6942  0.4161
10695TIP3    H153500   5.924   6.869   1.068 -0.5029 -0.6255  0.3218
10695TIP3    H253501   5.933   6.721   1.097 -2.5123 -0.6367  1.0345
10696TIP3   OH253502   1.430   5.055  16.107  0.2624  0.4420 -0.0840
10696TIP3    H153503   1.360   5.033  16.168 -1.1411 -1.2372 -2.1702
10696TIP3    H253504   1.414   5.147  16.084  0.3534  0.8608  1.4083
10697TIP3   OH253505   0.931   3.807   0.931 -0.4605 -0.2127  0.4151
10697TIP3    H153506   0.839   3.783   0.930 -1.0881  1.8317  1.7239
10697TIP3    H253507   0.958   3.806   0.839 -2.4029  1.1818 -0.2347
10698TIP3   OH253508   0.312   1.863   3.427 -0.6446  0.2467  0.5166
10698TIP3    H153509   0.227   1.853   3.470 -2.8971  2.0100 -3.0279
10698TIP3    H253510   0.323   1.958   3.419 -0.8436  0.0973 -3.2857
10699TIP3   OH253511   1.357   3.116  13.917  0.2080 -0.0913  0.2292
10699TIP3    H153512   1.404   3.080  13.842 -0.4107 -0.8414  0.1884
10699TIP3    H253513   1.308   3.041  13.953 -1.7122  0.8622 -0.3024
10700TIP3   OH253514   1.802   5.224   0.218  0.1460  0.2342 -0.2167
10700TIP3    H153515   1.787   5.148   0.161 -0.8717  0.3112 -0.0818
10700TIP3    H253516   1.789   5.299   0.160 -1.9209  0.3356  0.2785
10701TIP3   OH253517   3.590   4.936   1.585 -0.2454 -0.1287  0.3440
10701TIP3    H153518   3.672   4.905   1.547 -0.4386  0.1341 -0.3116
10701TIP3    H253519   3.534   4.952   1.509 -0.1742  1.7382  0.6435
10702TIP3   OH253520   6.011   3.724  13.293  0.4051 -0.2721 -0.0349
10702TIP3    H153521   6.018   3.787  13.222  0.5626 -1.6668 -1.3205
10702TIP3    H253522   5.964   3.770  13.362  0.5392  1.2357 -0.9022
10703TIP3   OH253523   2.236   2.928   4.485  0.5178  0.0537 -0.0198
10703TIP3    H153524   2.160   2.879   4.453  0.3220  0.3943 -0.0807
10703TIP3    H253525   2.237   3.008   4.433 -0.4012  1.0950  1.4890
10704TIP3   OH253526   0.915   0.251  10.733 -0.1919  0.3882  0.3849
10704TIP3    H153527   0.931   0.340  10.701  0.2370  0.3356  0.4426
10704TIP3    H253528   0.899   0.199  10.654  1.3947  0.1504  0.1773
10705TIP3   OH253529   0.303   4.176   2.173  0.3559  0.9897  0.0266
10705TIP3    H153530   0.332   4.187   2.263 -1.2614 -0.5072  0.7729
10705TIP3    H253531   0.250   4.254   2.156 -0.8097  0.4383  1.0104
10706TIP3   OH253532   1.477   6.605   2.134 -0.0030  0.8840 -0.1765
10706TIP3    H153533   1.460   6.511   2.135 -0.0779  0.8863 -0.7666
10706TIP3    H253534   1.467   6.632   2.225 -0.0032  0.3253 -0.0066
10707TIP3   OH253535   2.931   5.988   4.848  0.3552  0.4655  0.1886
10707TIP3    H153536   2.948   5.999   4.942 -1.2588 -1.9421  0.8554
10707TIP3    H253537   2.998   5.927   4.818 -2.4368 -3.5895  1.2967
10708TIP3   OH253538   1.669   6.670  12.080 -0.2175  0.3631  0.0685
10708TIP3    H153539   1.730   6.743  12.090  1.2420 -0.5737 -1.5918
10708TIP3    H253540   1.641   6.674  11.989  0.4625 -1.5350 -0.2697
10709TIP3   OH253541   3.978   6.669   3.217  0.3894  0.1196 -0.2244
10709TIP3    H153542   4.030   6.594   3.188  0.4964  0.3355 -0.6017
10709TIP3    H253543   4.042   6.731   3.250  0.1456 -0.9919  2.5885
10710TIP3   OH253544   2.890   3.747   0.764 -0.3533  0.1387  0.1442
10710TIP3    H153545   2.830   3.695   0.817 -2.1297  1.4733 -0.4630
10710TIP3    H253546   2.884   3.836   0.800  0.3089  0.5514 -0.7285
10711TIP3   OH253547   1.289   5.266  16.555  0.7118 -0.0775  0.3417
10711TIP3    H153548   1.353   5.335  16.571  0.4225  0.9916 -2.5306
10711TIP3    H253549   1.329   5.187  16.590  2.8817  0.8483  0.0913
10712TIP3   OH253550   4.184   4.469   4.752 -0.2811  0.3382 -0.7255
10712TIP3    H153551   4.155   4.394   4.700  1.0951 -0.2929 -0.6318
10712TIP3    H253552   4.160   4.448   4.842  0.2453 -0.0844 -0.6773
10713TIP3   OH253553   6.610   5.860   5.055 -0.2056  0.1936 -0.8051
10713TIP3    H153554   6.550   5.786   5.059  0.3518 -0.3874 -2.3423
10713TIP3    H253555   6.628   5.882   5.146 -3.3799  0.9586 -0.2510
10714TIP3   OH253556   2.081   4.820  16.120  0.1973  0.1974  0.0579
10714TIP3    H153557   2.064   4.728  16.101 -1.4427  0.4296  0.2553
10714TIP3    H253558   1.994   4.860  16.127  0.8417  1.4873  1.3057
10715TIP3   OH253559   0.111   3.775  12.742  1.0028  0.5954 -0.3264
10715TIP3    H153560   0.136   3.684  12.761 -0.0854 -0.0872 -1.9593
10715TIP3    H253561   0.195   3.820  12.731  1.6112  0.2317  2.1698
10716TIP3   OH253562   3.714   1.865  12.137 -0.3496  0.0776 -0.0480
10716TIP3    H153563   3.672   1.839  12.218  0.3842 -0.6902  0.0933
10716TIP3    H253564   3.752   1.951  12.156 -1.8902  0.8253 -0.2064
10717TIP3   OH253565   5.514   3.432   0.024  0.1949  0.2467 -0.6821
10717TIP3    H153566   5.493   3.397   0.110 -1.4699  0.9005 -0.7728
10717TIP3    H253567   5.605   3.407   0.009  0.6433  0.4122  1.4063
10718TIP3   OH253568   5.945   2.178  14.195  0.0003  0.3278  0.4171
10718TIP3    H153569   6.040   2.170  14.193  0.0262  0.7822 -0.6773
10718TIP3    H253570   5.924   2.187  14.288  1.3407  3.3834  0.5627
10719TIP3   OH253571   4.680   2.577  14.730  0.2432  0.5685 -0.3144
10719TIP3    H153572   4.644   2.649  14.677  2.5723  1.2855 -1.0420
10719TIP3    H253573   4.711   2.620  14.810 -0.0256  0.0482  0.0765
10720TIP3   OH253574   4.855   0.493  13.149 -0.0525 -0.0646 -0.4717
10720TIP3    H153575   4.889   0.556  13.213 -0.5770  1.0897 -1.3023
10720TIP3    H253576   4.911   0.416  13.161  1.7992  1.1787 -0.6485
10721TIP3   OH253577   2.971   3.095   2.084  0.2365  0.1301 -0.5912
10721TIP3    H153578   3.049   3.091   2.028 -0.1631 -0.8938 -1.1027
10721TIP3    H253579   2.900   3.119   2.025 -0.1338 -0.6389 -0.4732
10722TIP3   OH253580   1.244   4.308   0.305 -0.0936 -0.7139  0.6887
10722TIP3    H153581   1.296   4.347   0.375 -1.0083 -0.0635  1.0272
10722TIP3    H253582   1.166   4.274   0.350  0.0097 -1.6301  0.1892
10723TIP3   OH253583   4.255   1.606  12.054 -0.4395 -0.3008  0.4588
10723TIP3    H153584   4.197   1.622  11.980  0.7320 -2.2461 -0.9782
10723TIP3    H253585   4.307   1.686  12.062  0.4062 -0.5285 -1.8420
10724TIP3   OH253586   6.564   1.657  11.133  0.1584 -0.6334 -0.0224
10724TIP3    H153587   6.651   1.622  11.151  1.1304  0.7646 -1.7143
10724TIP3    H253588   6.564   1.744  11.173 -1.5493 -1.6557  2.4630
10725TIP3   OH253589   0.387   1.678   2.944 -0.0899  0.1055  0.4902
10725TIP3    H153590   0.332   1.659   3.020  0.8236  0.9922  1.4089
10725TIP3    H253591   0.413   1.769   2.955 -1.1169  0.7209 -1.6842
10726TIP3   OH253592   4.948   3.370  12.606  0.3645  0.1110 -0.0648
10726TIP3    H153593   4.931   3.450  12.556  2.0765  0.6573  0.1713
10726TIP3    H253594   4.887   3.306  12.569 -0.3093  1.2337 -0.9728
10727TIP3   OH253595   5.020   2.553   2.154  0.3570  0.1865 -0.4347
10727TIP3    H153596   5.065   2.633   2.179  0.3760 -0.2073  0.8720
10727TIP3    H253597   4.950   2.582   2.095 -0.9694  1.4554  1.6244
10728TIP3   OH253598   6.777   3.356   1.945  0.6114 -0.0275 -0.0868
10728TIP3    H153599   6.811   3.409   2.017  0.9345 -0.4771  0.1020
10728TIP3    H253600   6.826   3.273   1.952  0.6361 -0.0798 -0.8126
10729TIP3   OH253601   4.350   2.258   4.991 -0.1714  0.0390 -0.3547
10729TIP3    H153602   4.320   2.316   5.061 -1.7869  0.8894 -1.6832
10729TIP3    H253603   4.428   2.301   4.955 -0.5680  0.6952 -0.4396
10730TIP3   OH253604   5.096   1.686   2.601 -0.1568 -0.6217  0.4971
10730TIP3    H153605   5.134   1.773   2.611 -0.7989 -0.0618 -1.4352
10730TIP3    H253606   5.109   1.644   2.686 -1.0041  1.7917  1.9273
10731TIP3   OH253607   3.423   0.272   1.291 -0.0488  0.0786 -0.3674
10731TIP3    H153608   3.470   0.193   1.317  0.1480 -1.2284 -4.1422
10731TIP3    H253609   3.330   0.249   1.299  0.0034 -0.1829 -0.5138
10732TIP3   OH253610   2.458   6.527  14.341 -0.5393  0.0721 -0.8835
10732TIP3    H153611   2.381   6.477  14.367 -0.7687  0.9377  0.1532
10732TIP3    H253612   2.428   6.617  14.337  0.2910  0.3520 -1.0309
10733TIP3   OH253613   6.275   6.780   1.968  0.1699  0.2950  0.3391
10733TIP3    H153614   6.223   6.846   2.013 -0.0792  1.5900 -1.7231
10733TIP3    H253615   6.315   6.827   1.894  1.1412 -1.5358 -0.3602
10734TIP3   OH253616   0.108   1.486   3.505 -0.4284 -0.7644 -0.4600
10734TIP3    H153617   0.114   1.419   3.437 -1.5386 -2.0334  0.6520
10734TIP3    H253618   0.151   1.448   3.581  0.6985  0.6012 -0.3700
10735TIP3   OH253619   6.445   3.438  16.541  0.0295 -0.2764 -0.1299
10735TIP3    H153620   6.530   3.464  16.577  0.6794  0.0309 -1.7865
10735TIP3    H253621   6.433   3.348  16.570  2.1383 -1.2115 -1.8751
10736TIP3   OH253622   1.903   5.782  13.697  0.4363  0.0780 -0.0031
10736TIP3    H153623   1.820   5.736  13.709  1.3070 -1.6093 -0.2175
10736TIP3    H253624   1.914   5.832  13.777 -1.0013  0.7277 -0.1631
10737TIP3   OH253625   0.193   0.284  15.584  0.1986 -0.6353  0.1568
10737TIP3    H153626   0.215   0.365  15.630 -1.1356 -0.2437  0.1323
10737TIP3    H253627   0.121   0.308  15.526  1.6394 -1.1681 -1.9892
10738TIP3   OH253628   1.691   4.803  13.000 -0.6070 -0.8206 -0.3253
10738TIP3    H153629   1.668   4.889  13.035 -1.0834 -1.0129 -0.1581
10738TIP3    H253630   1.627   4.743  13.039 -1.5465 -0.9505 -1.9568
10739TIP3   OH253631   4.299   0.271   0.561 -0.4812 -0.0875  0.0237
10739TIP3    H153632   4.276   0.185   0.596 -0.3534 -0.5746 -1.0359
10739TIP3    H253633   4.255   0.273   0.475 -2.3400  1.7912  0.9292
10740TIP3   OH253634   5.126   2.595  16.545  0.6588  0.0262  0.1190
10740TIP3    H153635   5.119   2.556  16.457  0.3512 -0.1904  0.2369
10740TIP3    H253636   5.066   2.543  16.599 -0.6786  1.4012  0.0280
10741TIP3   OH253637   1.419   0.294  11.796  0.0067 -0.1460  0.5076
10741TIP3    H153638   1.332   0.284  11.835 -1.0357 -2.6377 -2.0890
10741TIP3    H253639   1.403   0.344  11.716  1.2473  0.6185  0.7172
10742TIP3   OH253640   5.826   5.757  13.460 -0.2390  0.1335 -0.6246
10742TIP3    H153641   5.916   5.755  13.494  0.3890  0.6258 -2.1218
10742TIP3    H253642   5.828   5.827  13.394 -1.7372  0.1508 -0.6827
10743TIP3   OH253643   4.840   2.435  13.033 -0.4387  0.0969 -0.5550
10743TIP3    H153644   4.870   2.345  13.018 -1.0642 -0.4619  1.2933
10743TIP3    H253645   4.747   2.427  13.050 -0.5507  1.1421 -0.5859
10744TIP3   OH253646   0.665   6.467  13.108  0.1479  0.4855  0.1546
10744TIP3    H153647   0.591   6.504  13.060 -0.9161 -1.7564 -0.0716
10744TIP3    H253648   0.656   6.501  13.197 -0.9940  0.4667  0.0527
10745TIP3   OH253649   0.183   2.845   1.260 -0.2989  0.1436 -0.1655
10745TIP3    H153650   0.099   2.883   1.286 -0.6877 -0.0924 -1.0769
10745TIP3    H253651   0.247   2.911   1.287 -0.9703  1.5185 -1.7735
10746TIP3   OH253652   2.103   2.272   1.044  0.1432  0.6159  0.5596
10746TIP3    H153653   2.104   2.240   1.135 -0.3564  0.0271  0.3683
10746TIP3    H253654   2.010   2.279   1.022  0.1505 -2.3899 -0.9551
10747TIP3   OH253655   2.851   3.811   4.311  0.1409 -0.1333  0.0938
10747TIP3    H153656   2.796   3.879   4.272 -0.0320  0.5344  1.4499
10747TIP3    H253657   2.922   3.798   4.248  0.4858  1.7161  0.0444
10748TIP3   OH253658   2.664   5.991   3.836  0.2041 -0.3920 -0.2715
10748TIP3    H153659   2.589   5.989   3.895  0.3217  1.2398 -0.0146
10748TIP3    H253660   2.626   6.005   3.749  0.2364  1.7151  0.0171
10749TIP3   OH253661   6.508   4.473  14.034  0.9988 -0.2930 -0.4162
10749TIP3    H153662   6.559   4.499  14.111  1.6969  0.4482 -1.1126
10749TIP3    H253663   6.506   4.377  14.039 -0.5242 -0.2179  1.4898
10750TIP3   OH253664   3.253   4.631   5.047  0.0721  0.5594 -0.3961
10750TIP3    H153665   3.286   4.632   4.957  0.0254  1.1631 -0.4036
10750TIP3    H253666   3.213   4.717   5.060  0.0936  0.4821  0.2071
10751TIP3   OH253667   6.441   3.484   2.785 -0.2550  0.6535 -0.1491
10751TIP3    H153668   6.400   3.458   2.702  2.4908 -0.7232 -1.2224
10751TIP3    H253669   6.371   3.476   2.850 -2.4762  1.5883 -2.2434
10752TIP3   OH253670   3.797   4.013   0.054  0.4563 -0.6434 -0.0696
10752TIP3    H153671   3.827   4.103   0.042  1.2599 -1.2214 -3.7105
10752TIP3    H253672   3.876   3.960   0.043 -0.1539 -1.8567  1.0969
10753TIP3   OH253673   2.959   2.666  11.743 -0.1966 -0.4568 -0.2545
10753TIP3    H153674   3.019   2.702  11.677 -1.6886  1.1216 -0.8260
10753TIP3    H253675   3.006   2.592  11.781  1.9808  0.5282 -0.8874
10754TIP3   OH253676   5.944   2.454   1.714  0.1489  0.4188 -0.3767
10754TIP3    H153677   5.986   2.493   1.638  1.5415 -0.1412  0.0627
10754TIP3    H253678   5.885   2.388   1.678 -0.5354  1.3622 -1.0221
10755TIP3   OH253679   1.221   2.295   1.345 -0.2243 -0.0982  0.2120
10755TIP3    H153680   1.243   2.205   1.372 -3.3906 -0.9514  0.4458
10755TIP3    H253681   1.181   2.284   1.258  0.4445  1.2732 -0.2854
10756TIP3   OH253682   0.469   4.369  13.868  0.0694  0.0903  0.2032
10756TIP3    H153683   0.479   4.281  13.830 -3.0257  0.4555 -1.7877
10756TIP3    H253684   0.432   4.353  13.955 -0.3354 -0.5804 -0.0834
10757TIP3   OH253685   6.566   3.025   0.707 -0.0457  0.4880  0.0470
10757TIP3    H153686   6.483   2.981   0.725 -0.3463  1.5475  1.4435
10757TIP3    H253687   6.567   3.099   0.768  1.8814  0.5478 -0.0156
10758TIP3   OH253688   2.778   6.553   0.534  0.5507 -0.6233  0.0983
10758TIP3    H153689   2.844   6.552   0.464  1.1410 -2.4260  0.6148
10758TIP3    H253690   2.726   6.474   0.519  1.0134 -1.3365  1.9732
10759TIP3   OH253691   4.759   1.426  16.310 -0.2617 -0.1566 -0.0054
10759TIP3    H153692   4.748   1.435  16.405  0.9300 -1.0113  0.2357
10759TIP3    H253693   4.846   1.461  16.292 -0.0526 -0.9482 -0.6187
10760TIP3   OH253694   2.452   0.706  12.037  0.5308 -0.0206 -0.0355
10760TIP3    H153695   2.498   0.745  11.963 -1.0289  2.7706  0.3266
10760TIP3    H253696   2.359   0.717  12.016  0.0458 -0.2068  1.7919
10761TIP3   OH253697   2.917   1.400   6.123 -0.1418 -0.1663 -0.1031
10761TIP3    H153698   2.950   1.343   6.193 -1.0806 -0.6106 -0.0078
10761TIP3    H253699   2.861   1.463   6.168  0.5584  0.5782 -0.2625
10762TIP3   OH253700   2.123   6.053  13.805  0.3125  0.0830  0.0881
10762TIP3    H153701   2.140   6.147  13.817 -1.0920  0.0852  2.6538
10762TIP3    H253702   2.148   6.013  13.888 -1.6849 -1.4011  0.0451
10763TIP3   OH253703   3.257   6.028  14.923  0.2871 -0.5694  0.1398
10763TIP3    H153704   3.350   6.015  14.939  0.0743 -0.3603  1.8193
10763TIP3    H253705   3.215   5.953  14.966 -0.3229 -0.7549 -0.7485
10764TIP3   OH253706   2.429   5.761  14.765 -0.3121  0.1376  0.1187
10764TIP3    H153707   2.342   5.722  14.767  0.0707 -0.7696 -0.2261
10764TIP3    H253708   2.423   5.828  14.697 -0.0334 -1.7482 -1.8675
10765TIP3   OH253709   0.880   1.495  14.698  0.3946  0.3240 -0.6999
10765TIP3    H153710   0.962   1.543  14.707  0.6330 -0.0519 -0.8507
10765TIP3    H253711   0.836   1.508  14.782 -0.3034  2.1871 -1.3088
10766TIP3   OH253712   1.626   5.719  13.705 -0.2613 -0.3966  0.3800
10766TIP3    H153713   1.639   5.791  13.767  1.0733 -1.3520  1.2541
10766TIP3    H253714   1.545   5.742  13.658  0.2444  1.7688  0.4638
10767TIP3   OH253715   2.769   2.842  16.198 -0.0953 -0.0506 -0.4935
10767TIP3    H153716   2.674   2.844  16.210 -0.0673 -0.1050 -0.2532
10767TIP3    H253717   2.804   2.875  16.281  0.0618  1.4466 -1.1195
10768TIP3   OH253718   6.425   5.976  13.045  0.1427  0.2492  0.3806
10768TIP3    H153719   6.515   5.957  13.068 -0.6781 -1.7022  2.3659
10768TIP3    H253720   6.414   6.069  13.065  1.8243  0.6646 -0.4621
10769TIP3   OH253721   0.429   2.360  13.900 -0.2114  0.3639 -0.0753
10769TIP3    H153722   0.501   2.402  13.854  0.9602 -1.3347  0.0971
10769TIP3    H253723   0.371   2.327  13.831  0.6950 -0.7550 -0.3368
10770TIP3   OH253724   5.868   2.140  12.559 -0.1089 -0.1919  0.2115
10770TIP3    H153725   5.893   2.219  12.606  2.2757 -0.0361 -1.1594
10770TIP3    H253726   5.809   2.171  12.490  0.4650  0.3438 -0.0479
10771TIP3   OH253727   5.435   6.253  13.458 -0.1031  0.3647  0.8477
10771TIP3    H153728   5.503   6.212  13.510  0.4385 -1.5685 -1.2093
10771TIP3    H253729   5.447   6.217  13.370 -1.2698  3.0248 -0.5398
10772TIP3   OH253730   3.082   3.812   0.536  0.7080  0.7470 -0.2594
10772TIP3    H153731   3.087   3.771   0.622  1.0961  0.6255 -0.3342
10772TIP3    H253732   3.124   3.748   0.477  0.5792  0.8935 -0.5104
10773TIP3   OH253733   2.885   5.094   5.143  0.3168 -0.2120 -0.3526
10773TIP3    H153734   2.884   5.013   5.194 -2.9223 -1.0026 -1.4326
10773TIP3    H253735   2.930   5.071   5.062  0.9693 -0.4005  0.0559
10774TIP3   OH253736   1.628   0.137  11.845 -0.8131  0.3453  0.2422
10774TIP3    H153737   1.549   0.191  11.854 -1.6012 -0.3286 -2.0278
10774TIP3    H253738   1.670   0.168  11.765  1.8801  1.3731  1.8968
10775TIP3   OH253739   3.166   2.965  13.725  0.1521 -0.1353 -0.2813
10775TIP3    H153740   3.167   3.013  13.808  1.7568 -1.0538  0.2655
10775TIP3    H253741   3.113   2.887  13.743 -0.9739  0.5068 -0.6660
10776TIP3   OH253742   0.644   0.409  13.924  0.0400  0.4987 -0.3071
10776TIP3    H153743   0.688   0.330  13.956 -2.8653 -0.7890  0.7925
10776TIP3    H253744   0.671   0.478  13.985  1.0716 -0.0597 -0.1065
10777TIP3   OH253745   4.057   0.557  13.384  0.3507  0.2081  0.2277
10777TIP3    H153746   4.061   0.496  13.310  0.7715 -0.5886  0.8875
10777TIP3    H253747   3.964   0.579  13.392  0.1958 -0.3375 -0.0354
10778TIP3   OH253748   5.725   1.762  11.572  0.4098 -0.5008  0.5810
10778TIP3    H153749   5.788   1.727  11.637  1.9723 -0.8397 -1.0313
10778TIP3    H253750   5.657   1.695  11.567  0.2473 -0.4606  1.8663
10779TIP3   OH253751   4.500   5.917   0.540 -0.5552 -0.4367  0.1347
10779TIP3    H153752   4.517   6.009   0.561 -0.9549 -0.5628  1.0777
10779TIP3    H253753   4.418   5.919   0.491 -0.3959 -0.2683 -0.1295
10780TIP3   OH253754   0.494   6.080  16.320  0.3291 -0.0062 -0.4662
10780TIP3    H153755   0.489   6.175  16.323  0.4800 -0.0001  2.3776
10780TIP3    H253756   0.574   6.058  16.368 -0.3800 -1.5694  0.1059
10781TIP3   OH253757   4.300   2.635   2.251  0.1214  0.1424 -0.3476
10781TIP3    H153758   4.350   2.697   2.198  1.2123  0.3919  0.9210
10781TIP3    H253759   4.214   2.675   2.261  1.2590  2.2804  1.7386
10782TIP3   OH253760   5.762   0.934   3.358 -0.6327 -0.5371  0.3482
10782TIP3    H153761   5.791   0.898   3.274  3.0263 -0.9874  1.6481
10782TIP3    H253762   5.828   0.905   3.421 -0.3170  4.0729  2.4950
10783TIP3   OH253763   1.237   0.024  11.877  0.5980 -0.1152 -0.1950
10783TIP3    H153764   1.268  -0.067  11.872  2.4111  0.4487 -0.0403
10783TIP3    H253765   1.288   0.062  11.948 -0.2098  1.0222 -0.2000
10784TIP3   OH253766   0.343   6.707  15.076  0.7220 -0.1967 -0.3273
10784TIP3    H153767   0.326   6.640  15.009 -1.8572  1.0718 -1.0778
10784TIP3    H253768   0.431   6.739  15.057  0.6832 -1.0344 -2.0810
10785TIP3   OH253769   1.764   3.743   3.028 -0.2070  0.3573 -0.5339
10785TIP3    H153770   1.794   3.828   2.998  0.6835 -0.1117 -1.0213
10785TIP3    H253771   1.736   3.758   3.119 -1.2042  1.4004 -0.9922
10786TIP3   OH253772   0.630   2.503   3.614  0.5280  0.1203  0.1611
10786TIP3    H153773   0.677   2.419   3.617  3.3328  1.4936 -1.3246
10786TIP3    H253774   0.560   2.488   3.550  1.0294 -1.0488 -0.1511
10787TIP3   OH253775   6.223   5.313  10.477 -0.2027 -0.4567 -0.3367
10787TIP3    H153776   6.187   5.290  10.563 -0.9006  1.6526 -0.0097
10787TIP3    H253777   6.293   5.249  10.463 -0.5673 -1.3254  1.4511
10788TIP3   OH253778   1.466   0.862  13.698 -0.2512 -0.0877 -0.5425
10788TIP3    H153779   1.385   0.905  13.724 -1.1157 -1.4717 -0.8448
10788TIP3    H253780   1.441   0.804  13.626  0.5538 -2.1615  0.7682
10789TIP3   OH253781   1.168   2.917   1.538  0.2553 -0.0341  0.8339
10789TIP3    H153782   1.218   2.895   1.618 -0.7544 -1.9201  1.0209
10789TIP3    H253783   1.235   2.944   1.475  1.4280 -1.4065  1.4156
10790TIP3   OH253784   6.428   1.050   3.285  0.0728  0.3230 -0.0121
10790TIP3    H153785   6.374   1.093   3.219 -0.8064  3.0228  2.2692
10790TIP3    H253786   6.489   1.117   3.314  3.1789 -1.9419 -0.7630
10791TIP3   OH253787   4.836   2.105   5.665  0.2732 -0.7366 -0.4593
10791TIP3    H153788   4.901   2.154   5.714 -0.0509  0.2590 -1.0008
10791TIP3    H253789   4.752   2.132   5.702  0.1278 -1.6963 -0.0461
10792TIP3   OH253790   1.335   0.360   4.051  0.2596 -0.1576 -0.0097
10792TIP3    H153791   1.408   0.383   3.995 -1.7393  2.8846 -1.6229
10792TIP3    H253792   1.300   0.279   4.014 -1.1387  1.8621 -3.5263
10793TIP3   OH253793   1.682   1.157  16.523  0.2141 -0.4046  0.3209
10793TIP3    H153794   1.704   1.183  16.434  0.7486 -0.1811  0.5157
10793TIP3    H253795   1.588   1.138  16.520  0.4190 -1.3925 -0.5293
10794TIP3   OH253796   5.899   0.415   0.482 -0.8026 -0.4379 -0.1085
10794TIP3    H153797   5.974   0.474   0.474 -0.3879 -0.7849  0.9693
10794TIP3    H253798   5.840   0.459   0.542 -0.7164 -0.8773  0.3091
10795TIP3   OH253799   0.864   5.076  15.614  0.5512  0.0172 -0.2640
10795TIP3    H153800   0.871   5.156  15.561  1.4926  0.3224  0.2939
10795TIP3    H253801   0.801   5.098  15.683 -0.6714 -0.3773 -1.2115
10796TIP3   OH253802   5.818   0.173   1.592  0.5980 -0.0197  0.2306
10796TIP3    H153803   5.783   0.215   1.514  1.9298  1.7728  0.5335
10796TIP3    H253804   5.779   0.085   1.591 -0.5789  0.4518 -1.6138
10797TIP3   OH253805   3.759   3.201   0.282  0.0533  0.1749  0.5171
10797TIP3    H153806   3.746   3.198   0.187  0.8277  0.5211  0.3923
10797TIP3    H253807   3.733   3.114   0.312  0.8584 -0.3237 -0.1591
10798TIP3   OH253808   6.739   6.309  13.101 -0.5190 -0.0469 -0.5376
10798TIP3    H153809   6.768   6.307  13.193 -1.2036  0.6144 -0.3017
10798TIP3    H253810   6.796   6.374  13.060 -0.8643  0.3753 -0.3521
10799TIP3   OH253811   3.774   6.200   5.023 -0.0278 -0.1149  0.0457
10799TIP3    H153812   3.861   6.205   5.063  0.4173  0.2333 -0.9218
10799TIP3    H253813   3.790   6.214   4.929 -1.1484  0.1547 -0.1257
10800TIP3   OH253814   2.959   0.262  10.782  0.0465  0.4497 -0.2090
10800TIP3    H153815   3.050   0.256  10.753  0.2251  0.4930  0.3342
10800TIP3    H253816   2.947   0.355  10.801  0.6190  0.1261  2.0065
10801TIP3   OH253817   6.053   3.963   1.937 -0.2522  0.4392  0.4198
10801TIP3    H153818   6.054   4.013   2.019 -2.1094  3.6243 -1.2762
10801TIP3    H253819   5.961   3.938   1.926 -0.0504  0.1533 -0.7304
10802TIP3   OH253820   2.708   4.346   6.655  0.6116  0.3272  0.4835
10802TIP3    H153821   2.674   4.257   6.645  1.0495  0.3025 -1.2581
10802TIP3    H253822   2.644   4.401   6.610  1.4951  0.5735 -0.5368
10803TIP3   OH253823   0.253   6.429   4.136 -0.4216 -0.5637  0.6905
10803TIP3    H153824   0.316   6.363   4.106  0.1919  0.6131 -0.7358
10803TIP3    H253825   0.244   6.489   4.062 -1.3667  0.6666  1.7605
10804TIP3   OH253826   4.503   6.200   4.867 -0.1604 -0.3729 -0.2228
10804TIP3    H153827   4.560   6.235   4.935  1.1399 -0.1236 -1.3766
10804TIP3    H253828   4.528   6.108   4.859 -2.4891 -1.2782  1.7256
10805TIP3   OH253829   1.226   0.061   2.916  0.7654 -0.6761 -0.0362
10805TIP3    H153830   1.206   0.007   2.840 -0.1613 -0.5918  0.1293
10805TIP3    H253831   1.199   0.007   2.991  0.2756 -0.1856  0.1512
10806TIP3   OH253832   5.778   3.829   4.249  0.0552  0.4852  0.2703
10806TIP3    H153833   5.742   3.746   4.219  1.3752 -0.5915  1.5361
10806TIP3    H253834   5.771   3.825   4.345  0.6649  1.5753  0.3776
10807TIP3   OH253835   0.598   0.273   1.425 -0.4471  0.0245 -0.0066
10807TIP3    H153836   0.515   0.263   1.380  0.1182  1.2503 -1.3942
10807TIP3    H253837   0.577   0.259   1.518 -2.0794 -0.2164 -0.3842
10808TIP3   OH253838   1.466   1.022   3.232 -0.2854 -0.3350 -0.8941
10808TIP3    H153839   1.490   1.104   3.275  0.6332 -0.0187 -1.9479
10808TIP3    H253840   1.385   1.043   3.185  0.3512  0.2308 -1.7884
10809TIP3   OH253841   1.481   2.436  14.626  0.6943 -0.5489  0.5511
10809TIP3    H153842   1.448   2.347  14.614 -1.0516  0.0170  0.9174
10809TIP3    H253843   1.434   2.488  14.561  3.1360 -0.1584 -1.0296
10810TIP3   OH253844   5.903   3.110   3.469  0.1889 -0.3230 -0.1752
10810TIP3    H153845   5.859   3.042   3.519 -2.4543  1.5622  0.2515
10810TIP3    H253846   5.950   3.162   3.534 -2.4511  1.5432  0.3837
10811TIP3   OH253847   3.746   3.970   1.275  0.1087 -0.4079  0.1013
10811TIP3    H153848   3.756   4.006   1.187 -0.3806  0.0767  0.2354
10811TIP3    H253849   3.835   3.960   1.307  0.2633  1.1899  0.2516
10812TIP3   OH253850   4.443   2.826  16.825  0.4178 -0.1037 -0.2498
10812TIP3    H153851   4.482   2.782  16.900 -1.0155 -0.4106  0.3515
10812TIP3    H253852   4.416   2.755  16.767 -0.9174 -0.0215  0.2233
10813TIP3   OH253853   0.399   0.907   3.011  0.1862  0.0141 -0.2313
10813TIP3    H153854   0.459   0.975   3.042 -0.0089  0.6580 -1.1884
10813TIP3    H253855   0.339   0.892   3.084 -0.9992  2.3250 -0.6327
10814TIP3   OH253856   2.826   2.895   4.472  0.0847 -0.3384  0.0722
10814TIP3    H153857   2.901   2.947   4.444 -0.3645 -0.0581 -0.6513
10814TIP3    H253858   2.822   2.906   4.567  0.5362  0.2107  0.0308
10815TIP3   OH253859   4.084   3.406  15.404 -0.5022  0.3296  0.9842
10815TIP3    H153860   4.062   3.326  15.452 -0.5150 -0.2389  0.0716
10815TIP3    H253861   4.001   3.454  15.398 -0.6000  0.1785  1.1157
10816TIP3   OH253862   2.698   3.670   0.933 -0.3831  0.2546 -0.1501
10816TIP3    H153863   2.701   3.615   1.012  1.3008  0.5971  0.0739
10816TIP3    H253864   2.610   3.706   0.932 -1.2014 -1.5917  0.2775
10817TIP3   OH253865   3.729   6.784   2.632  0.2029  0.4997 -0.6296
10817TIP3    H153866   3.755   6.876   2.641 -0.3263  0.5030  1.3405
10817TIP3    H253867   3.634   6.785   2.643  0.0167 -0.1345 -2.0639
10818TIP3   OH253868   6.325   6.375   4.677 -0.4272  0.2746 -0.4629
10818TIP3    H153869   6.356   6.287   4.659  2.1143  1.1347 -0.7479
10818TIP3    H253870   6.249   6.387   4.620 -0.4998 -1.5249 -0.7914
10819TIP3   OH253871   4.105   4.899  12.440  0.0728  0.0029  0.0967
10819TIP3    H153872   4.117   4.945  12.357 -0.9727  0.0195 -0.0564
10819TIP3    H253873   4.193   4.871  12.465  0.4986  0.6518 -0.6352
10820TIP3   OH253874   5.095   0.289   3.325 -0.4298  0.2513 -0.1565
10820TIP3    H153875   5.077   0.330   3.409  1.0087  1.9461 -0.5986
10820TIP3    H253876   5.079   0.359   3.261  3.3641  0.6956 -0.8654
10821TIP3   OH253877   0.994   6.626   2.445 -0.2214  0.1443  0.9057
10821TIP3    H153878   0.972   6.600   2.355 -0.1647 -1.8967  1.4317
10821TIP3    H253879   0.942   6.566   2.500  0.3560  0.8225  2.2273
10822TIP3   OH253880   6.146   4.899  11.926 -1.1715 -0.2971 -0.6299
10822TIP3    H153881   6.126   4.908  12.019 -1.8667  0.9844 -0.8769
10822TIP3    H253882   6.106   4.976  11.886  1.8184  0.8871 -1.5862
10823TIP3   OH253883   4.343   4.641  13.046 -0.7149  0.1072 -0.7245
10823TIP3    H153884   4.323   4.731  13.072 -1.1547 -0.2439  0.2026
10823TIP3    H253885   4.330   4.639  12.951 -1.8353  0.7306 -0.5959
10824TIP3   OH253886   5.056   0.117  14.529  0.0944  0.0599  0.1689
10824TIP3    H153887   5.084   0.204  14.500  1.9497 -0.2579  0.8478
10824TIP3    H253888   4.987   0.134  14.593 -0.6673  0.9435 -0.8359
10825TIP3   OH253889   1.049   0.015   0.394 -0.0673  0.2354  0.3161
10825TIP3    H153890   1.007   0.097   0.420  0.2282  1.1277 -1.8709
10825TIP3    H253891   0.983  -0.030   0.341  0.7696  0.4057 -0.8909
10826TIP3   OH253892   2.538   4.747   1.291 -0.3237  0.2361  0.6463
10826TIP3    H153893   2.621   4.776   1.253 -0.0714 -1.0307  0.1631
10826TIP3    H253894   2.490   4.827   1.308  0.7579  0.9694  0.3750
10827TIP3   OH253895   3.044   2.202   6.358  0.0905  0.3290 -0.3184
10827TIP3    H153896   2.961   2.163   6.384  0.2853 -0.2244 -0.4975
10827TIP3    H253897   3.095   2.128   6.324  0.5211  0.7222 -0.5382
10828TIP3   OH253898   3.280   0.055  12.299  0.1764  0.5425  0.3340
10828TIP3    H153899   3.245   0.144  12.297  1.4593  1.0519 -0.8827
10828TIP3    H253900   3.337   0.050  12.222 -1.2048 -1.8897 -0.6420
10829TIP3   OH253901   5.916   6.486  12.766 -0.3740 -0.1101 -0.0868
10829TIP3    H153902   5.841   6.523  12.722  0.6899  1.1720 -0.8900
10829TIP3    H253903   5.954   6.559  12.815  0.9745 -0.4533 -0.5783
10830TIP3   OH253904   0.413   0.391   0.554  0.0041 -0.7670  0.1127
10830TIP3    H153905   0.359   0.315   0.579  0.5034 -1.5494 -1.1071
10830TIP3    H253906   0.407   0.450   0.629 -1.2399 -1.5529  0.6633
10831TIP3   OH253907   2.093   1.282  12.856  0.3470 -0.4453  0.4734
10831TIP3    H153908   2.179   1.273  12.815 -0.0365 -1.9727 -0.0592
10831TIP3    H253909   2.108   1.339  12.931  2.0242 -1.4204  0.9291
10832TIP3   OH253910   1.298   0.028  15.800  0.0229  0.7699  0.6070
10832TIP3    H153911   1.363   0.074  15.852 -1.1250  1.4380  1.5080
10832TIP3    H253912   1.324  -0.064  15.804  0.5732  0.9538  1.4512
10833TIP3   OH253913   5.518   4.973  12.194  0.3009  0.1308  0.2634
10833TIP3    H153914   5.609   4.950  12.175  0.4240  0.2822  0.6582
10833TIP3    H253915   5.515   4.982  12.289 -0.4966 -1.3888  0.4052
10834TIP3   OH253916   4.115   4.567   4.992 -0.1539  0.3607  0.1167
10834TIP3    H153917   4.072   4.603   5.069 -0.8631 -1.3036  0.5552
10834TIP3    H253918   4.205   4.549   5.021 -0.3830 -0.1451  0.5529
10835TIP3   OH253919   5.517   1.242  15.012  0.4706 -0.7155 -0.1918
10835TIP3    H153920   5.596   1.287  14.984  0.2239 -1.1595 -1.7129
10835TIP3    H253921   5.446   1.304  14.994  0.1215 -1.6681 -2.3635
10836TIP3   OH253922   6.578   4.576  15.655  0.4872 -0.6733 -0.4827
10836TIP3    H153923   6.564   4.661  15.698  0.0845 -0.7055 -0.5458
10836TIP3    H253924   6.670   4.577  15.630  0.4005 -0.0920 -0.8112
10837TIP3   OH253925   1.560   6.657  16.825 -0.1441  0.2095  0.0424
10837TIP3    H153926   1.587   6.658  16.917  1.3308 -3.2463 -0.1991
10837TIP3    H253927   1.465   6.653  16.827 -0.2002  1.4906  1.3341
10838TIP3   OH253928   2.419   6.731   0.115  0.2073 -0.0758  0.2244
10838TIP3    H153929   2.393   6.667   0.048  1.1656  0.4915 -0.7382
10838TIP3    H253930   2.381   6.814   0.085  0.1368  0.0713  0.7112
10839TIP3   OH253931   6.602   0.253   1.179  0.2845  0.1290  0.1178
10839TIP3    H153932   6.671   0.305   1.221  0.5432  0.8138 -1.0988
10839TIP3    H253933   6.617   0.164   1.211  1.8686  0.2316 -0.2394
10840TIP3   OH253934   2.482   4.612   1.826 -0.2285 -0.0435  0.0855
10840TIP3    H153935   2.565   4.658   1.839  0.0593 -0.0723 -1.4389
10840TIP3    H253936   2.471   4.560   1.905  0.5436  0.9524  0.8857
10841TIP3   OH253937   4.560   0.606   3.246  0.0133 -0.3333  0.1633
10841TIP3    H153938   4.569   0.551   3.168 -0.6383 -0.6834  0.3254
10841TIP3    H253939   4.646   0.602   3.288 -0.2504 -1.9665  0.6324
10842TIP3   OH253940   0.433   6.267   2.564 -0.9444 -0.1942 -0.2656
10842TIP3    H153941   0.492   6.274   2.639 -0.9309 -1.1568 -0.1758
10842TIP3    H253942   0.352   6.230   2.600 -1.6193  1.1044 -0.3930
10843TIP3   OH253943   4.681   6.465  14.618  0.1068 -0.3138  0.0158
10843TIP3    H153944   4.768   6.499  14.641  0.4874 -2.3158  1.8979
10843TIP3    H253945   4.683   6.455  14.523  0.7923  2.4841 -0.3518
10844TIP3   OH253946   3.936   1.958  15.979  0.4033 -0.2397 -0.3177
10844TIP3    H153947   3.886   2.014  15.920  0.3603 -0.6565 -0.6878
10844TIP3    H253948   4.016   2.007  15.997  0.4766 -0.1583 -0.8347
10845TIP3   OH253949   3.366   1.186  11.376  0.3237 -0.3207  0.6097
10845TIP3    H153950   3.312   1.140  11.311  1.1910 -0.3315 -0.1145
10845TIP3    H253951   3.455   1.182  11.341  1.2667 -2.3634  2.8836
10846TIP3   OH253952   0.131   0.859  14.509 -0.3384 -0.5189  0.0903
10846TIP3    H153953   0.213   0.809  14.511  0.0669  0.1403  0.1540
10846TIP3    H253954   0.103   0.854  14.417  0.4971  0.4011 -0.2269
10847TIP3   OH253955   6.213   4.730   5.332  0.0670 -0.5868 -0.0208
10847TIP3    H153956   6.132   4.714   5.284 -0.1658 -0.5444  0.3561
10847TIP3    H253957   6.205   4.678   5.412  1.1789 -1.9960 -0.7839
10848TIP3   OH253958   6.774   1.337  16.702 -0.1127 -0.4856 -0.2005
10848TIP3    H153959   6.719   1.340  16.780  0.2079  0.3592  0.0082
10848TIP3    H253960   6.738   1.265  16.650 -2.2349  0.7792 -0.6388
10849TIP3   OH253961   5.009   6.635   4.605  0.5548  0.1086 -0.1989
10849TIP3    H153962   4.954   6.695   4.656  0.3817 -1.8580  2.1265
10849TIP3    H253963   4.956   6.612   4.529 -0.0718  1.4816 -0.2093
10850TIP3   OH253964   2.978   5.008  12.848  0.3073 -0.0983  0.3776
10850TIP3    H153965   2.913   4.949  12.886 -0.1685  0.7224  0.8523
10850TIP3    H253966   3.059   4.956  12.847 -0.5882 -1.5977 -1.4134
10851TIP3   OH253967   2.789   5.611  13.411  0.3175  0.2113  0.1344
10851TIP3    H153968   2.735   5.638  13.485  2.7358  1.0601  1.6984
10851TIP3    H253969   2.764   5.669  13.340 -1.1007  0.2805  0.6698
10852TIP3   OH253970   4.061   6.213   2.165 -0.1548 -0.9389 -0.3627
10852TIP3    H153971   4.070   6.118   2.162  0.2834 -0.9412  0.7853
10852TIP3    H253972   4.127   6.242   2.228 -0.5894  0.0865 -0.3566
10853TIP3   OH253973   5.282   4.470   0.780 -0.1970 -0.1721  0.2811
10853TIP3    H153974   5.243   4.557   0.783  0.1370 -0.0151  0.1797
10853TIP3    H253975   5.212   4.411   0.807 -1.0711 -0.0923 -1.6448
10854TIP3   OH253976   3.716   6.406   5.443  0.4121  0.1564  0.3491
10854TIP3    H153977   3.673   6.480   5.401  1.4225  0.1359 -0.7694
10854TIP3    H253978   3.810   6.426   5.439  0.8045 -1.6340 -0.9788
10855TIP3   OH253979   6.403   2.122   0.855 -0.1327  0.3856 -0.2844
10855TIP3    H153980   6.360   2.048   0.811 -0.8326  1.0814 -0.7926
10855TIP3    H253981   6.337   2.155   0.915  0.8768 -0.6825  1.5055
10856TIP3   OH253982   0.686   3.440  13.436 -0.4987  0.1246  0.1217
10856TIP3    H153983   0.682   3.488  13.518 -3.1640 -2.2363  1.5692
10856TIP3    H253984   0.636   3.493  13.374 -1.2646  0.4109  0.9679
10857TIP3   OH253985   0.805   0.306  11.761 -0.0896  0.2657  0.4244
10857TIP3    H153986   0.846   0.222  11.784 -1.5056 -0.3135  0.9896
10857TIP3    H253987   0.862   0.372  11.800  0.3363 -0.5047  1.1428
10858TIP3   OH253988   3.918   4.514  10.657 -0.4617  0.1957  0.0441
10858TIP3    H153989   3.834   4.559  10.647  0.0221  1.3327  0.9022
10858TIP3    H253990   3.923   4.455  10.581 -1.2927  1.3021 -0.9052
10859TIP3   OH253991   1.826   2.604  14.428 -0.7222  0.0585 -0.0503
10859TIP3    H153992   1.733   2.603  14.405 -0.1551  0.5441 -2.6647
10859TIP3    H253993   1.868   2.650  14.355  1.5493  0.1220  1.2154
10860TIP3   OH253994   5.331   5.163   4.310  0.3229  0.6874  0.3718
10860TIP3    H153995   5.302   5.253   4.323  2.2571  1.4189  0.0325
10860TIP3    H253996   5.399   5.150   4.376  2.0635  0.4967 -1.3471
10861TIP3   OH253997   5.786   0.476   4.573  0.5197  0.1243  0.1968
10861TIP3    H153998   5.813   0.388   4.596 -1.5221 -0.1468  1.9118
10861TIP3    H253999   5.843   0.533   4.624  1.0478 -0.2538  0.0288
10862TIP3   OH254000   1.907   0.304  15.812 -0.0880  0.2062  0.1097
10862TIP3    H154001   1.949   0.219  15.800 -0.8160  0.0318 -1.4197
10862TIP3    H254002   1.969   0.367  15.775 -0.7744  0.0314 -1.3894
10863TIP3   OH254003   2.712   2.361   5.130 -0.0546 -0.1637  0.2417
10863TIP3    H154004   2.673   2.315   5.204 -2.2189  0.5255 -0.3807
10863TIP3    H254005   2.707   2.453   5.153 -1.2918  0.1032 -0.9393
10864TIP3   OH254006   1.300   1.552   5.091 -0.1244 -0.1694  0.3946
10864TIP3    H154007   1.242   1.625   5.110 -1.7064 -1.6438  1.5126
10864TIP3    H254008   1.245   1.489   5.045  1.1742 -0.7465 -0.4219
10865TIP3   OH254009   2.842   5.625  15.259  0.5711 -0.7709 -0.4438
10865TIP3    H154010   2.919   5.639  15.204  2.0126 -4.3194  0.4063
10865TIP3    H254011   2.771   5.608  15.196  0.8179  0.8298 -1.2100
10866TIP3   OH254012   0.030   6.326   1.251 -0.5572 -0.2591 -0.0789
10866TIP3    H154013   0.092   6.256   1.271 -0.9435 -0.2034  1.4511
10866TIP3    H254014   0.085   6.402   1.230 -0.0942 -0.3640  0.7061
10867TIP3   OH254015   3.556   0.064  12.553  0.0496  0.1563 -0.1200
10867TIP3    H154016   3.591   0.076  12.641 -1.2038 -2.7323  0.8900
10867TIP3    H254017   3.574  -0.027  12.532 -0.6544  0.4800 -2.4185
10868TIP3   OH254018   4.209   0.973   1.192  0.5404  0.3687 -0.3007
10868TIP3    H154019   4.240   1.006   1.276  0.3372  0.7137 -0.3557
10868TIP3    H254020   4.200   0.879   1.204 -0.6300  0.5545  0.4522
10869TIP3   OH254021   2.628   0.172  16.863 -0.0813  0.0011 -0.0130
10869TIP3    H154022   2.695   0.239  16.848  0.0070 -0.1017 -0.0732
10869TIP3    H254023   2.677   0.092  16.878 -0.1555  0.1356  1.0310
10870TIP3   OH254024   3.985   2.084  13.783 -0.1190 -0.3366  0.2739
10870TIP3    H154025   3.937   2.139  13.721 -0.7163 -0.0183  1.0022
10870TIP3    H254026   3.935   2.003  13.786  0.4643 -0.7384 -0.3939
10871TIP3   OH254027   5.106   3.149   1.706  0.4510  0.1896  0.1518
10871TIP3    H154028   5.053   3.118   1.633 -0.2186 -0.5220  0.9110
10871TIP3    H254029   5.124   3.241   1.687  0.8503 -0.1476 -1.2196
10872TIP3   OH254030   0.500   0.166   1.980 -0.5850  0.0816 -0.3462
10872TIP3    H154031   0.566   0.100   2.003 -0.4808 -0.0964 -1.1368
10872TIP3    H254032   0.544   0.223   1.917 -1.0556  0.2073 -0.5630
10873TIP3   OH254033   1.976   1.195   3.786  0.6168 -0.2329 -0.3267
10873TIP3    H154034   2.068   1.182   3.810  0.7124  0.6059 -0.2245
10873TIP3    H254035   1.978   1.264   3.719 -0.1315  1.7714  1.6006
10874TIP3   OH254036   5.788   6.698  15.528  0.0262  0.3381 -0.8865
10874TIP3    H154037   5.821   6.622  15.576 -0.8891  0.8658  0.6687
10874TIP3    H254038   5.814   6.683  15.437  3.8905  0.3586  0.0218
10875TIP3   OH254039   1.478   3.945  11.866 -0.7492  0.3719  0.1304
10875TIP3    H154040   1.546   3.901  11.814 -0.5094 -0.5017  1.1495
10875TIP3    H254041   1.459   4.025  11.817  0.3546  0.1805 -0.6585
10876TIP3   OH254042   2.701   2.259  12.909 -0.1634 -0.2418 -0.1197
10876TIP3    H154043   2.742   2.344  12.898  0.5148 -0.8614 -3.5656
10876TIP3    H254044   2.767   2.205  12.953  0.1633  0.4668  0.2612
10877TIP3   OH254045   5.209   4.714  12.543 -0.1502 -0.6427 -0.5834
10877TIP3    H154046   5.237   4.686  12.456  1.0866 -1.5506  0.0914
10877TIP3    H254047   5.263   4.664  12.603  0.5033  1.4876  0.7118
10878TIP3   OH254048   5.234   2.163  12.747 -0.3136 -0.4866  0.3180
10878TIP3    H154049   5.153   2.132  12.786 -0.2823  1.1492  1.8089
10878TIP3    H254050   5.302   2.136  12.808  0.0556 -0.1826  0.0470
10879TIP3   OH254051   1.924   6.447  12.360  0.7954 -0.1017  0.1666
10879TIP3    H154052   1.939   6.492  12.443  0.8597  0.2967 -0.0614
10879TIP3    H254053   1.844   6.395  12.375  1.0917 -0.4288  0.6373
10880TIP3   OH254054   4.551   3.263   3.237 -0.1686  0.0694 -0.3281
10880TIP3    H154055   4.565   3.333   3.174  0.2827  0.3782  0.1052
10880TIP3    H254056   4.620   3.199   3.218  0.3154  0.4199  0.1930
10881TIP3   OH254057   5.332   5.002   0.448 -0.0126  0.1509  0.0269
10881TIP3    H154058   5.325   4.968   0.359 -1.1190  1.4852 -0.4198
10881TIP3    H254059   5.260   4.961   0.496 -2.6040  3.0812 -0.9903
10882TIP3   OH254060   1.607   1.826  15.524 -0.3683  0.0303  0.1470
10882TIP3    H154061   1.695   1.805  15.491 -0.2644  1.4132 -0.5526
10882TIP3    H254062   1.551   1.824  15.446 -0.9196 -0.5943  0.5497
10883TIP3   OH254063   5.806   3.771   2.470  0.1868  0.4818 -0.2773
10883TIP3    H154064   5.792   3.731   2.556  0.5993  0.5830 -0.1571
10883TIP3    H254065   5.786   3.701   2.408 -0.0727  0.3954 -0.0979
10884TIP3   OH254066   0.669   6.761   5.687 -0.3674  0.1060 -0.3319
10884TIP3    H154067   0.679   6.801   5.773  0.2178 -1.4387  0.3552
10884TIP3    H254068   0.605   6.816   5.642  0.4346  1.8184  0.5206
10885TIP3   OH254069   3.130   6.707  16.382  0.0897  0.0198 -0.6314
10885TIP3    H154070   3.102   6.622  16.418  0.1384  0.4415  0.4554
10885TIP3    H254071   3.049   6.758  16.374  0.1577  0.1558 -0.4738
10886TIP3   OH254072   0.271   5.452  13.599 -0.3038 -0.1045 -0.5718
10886TIP3    H154073   0.318   5.451  13.515  1.0470 -1.4405  0.1511
10886TIP3    H254074   0.284   5.541  13.633 -0.7424  0.4012 -1.6851
10887TIP3   OH254075   0.346   5.643   4.457 -0.1371  0.5018 -0.1425
10887TIP3    H154076   0.405   5.657   4.382 -0.1929  0.1547 -0.2543
10887TIP3    H254077   0.381   5.699   4.526  0.7163 -0.1912  0.0079
10888TIP3   OH254078   2.932   4.497  14.785 -0.1013  0.0652  0.4412
10888TIP3    H154079   2.872   4.497  14.710 -2.3537 -2.3101  2.0983
10888TIP3    H254080   2.889   4.551  14.851  0.2006 -0.6395  1.2242
10889TIP3   OH254081   3.976   3.220  14.912  0.3216  0.2056 -0.4585
10889TIP3    H154082   4.062   3.188  14.938  0.5992  0.6325 -0.8290
10889TIP3    H254083   3.992   3.310  14.882 -0.2397  0.2667 -0.5875
10890TIP3   OH254084   5.468   0.521   4.142 -0.2198  0.7167  0.2198
10890TIP3    H154085   5.467   0.452   4.076  0.8908  0.4441  0.4637
10890TIP3    H254086   5.533   0.492   4.207  0.4196  2.0706  0.2319
10891TIP3   OH254087   2.253   3.107   6.671 -0.8012  0.3292 -0.5178
10891TIP3    H154088   2.211   3.083   6.588 -0.0110 -0.5111 -0.6881
10891TIP3    H254089   2.319   3.039   6.685 -1.8022 -0.3421  1.4663
10892TIP3   OH254090   1.346   0.447  10.552  0.7809  0.5854  0.2505
10892TIP3    H154091   1.278   0.474  10.490 -0.7074 -2.9396  0.0882
10892TIP3    H254092   1.424   0.435  10.499  0.3624  0.5958 -0.3845
10893TIP3   OH254093   3.432   2.944  15.144  0.3291 -0.0726 -0.8536
10893TIP3    H154094   3.523   2.921  15.159  0.2694  0.5123  0.5901
10893TIP3    H254095   3.421   2.938  15.049  1.2614 -2.2733 -0.8815
10894TIP3   OH254096   5.962   5.344  10.425  0.5415 -0.1384 -0.4488
10894TIP3    H154097   6.052   5.320  10.449  0.6720  0.1106 -0.6864
10894TIP3    H254098   5.946   5.426  10.470  0.4117 -0.2104 -0.3632
10895TIP3   OH254099   4.945   4.870  14.480 -0.6175 -1.0368  0.1514
10895TIP3    H154100   4.949   4.924  14.559  0.6849  0.0862 -0.6513
10895TIP3    H254101   4.852   4.863  14.461 -0.8542  0.3643  0.6614
10896TIP3   OH254102   1.913   5.961   3.990  0.5589 -0.3100 -0.1674
10896TIP3    H154103   1.958   5.915   4.061  1.4734 -0.9436 -1.1380
10896TIP3    H254104   1.930   6.054   4.007 -0.9453 -0.3036  1.5675
10897TIP3   OH254105   4.493   0.952   5.858 -0.3220  0.7299  0.2934
10897TIP3    H154106   4.458   0.903   5.932 -0.9040  1.3639  0.4406
10897TIP3    H254107   4.433   1.025   5.846  0.4446  1.3208 -0.0329
10898TIP3   OH254108   3.007   6.081   2.901  0.0265 -0.2686 -0.3760
10898TIP3    H154109   2.922   6.122   2.918  0.6993  1.0837 -0.1168
10898TIP3    H254110   3.023   6.095   2.808  0.2340  0.0105 -0.2988
10899TIP3   OH254111   2.569   5.346  15.295 -0.3921  0.2754 -0.5172
10899TIP3    H154112   2.550   5.399  15.218 -1.2991 -0.2726 -0.6749
10899TIP3    H254113   2.510   5.271  15.289 -0.5954  0.2968  0.7908
10900TIP3   OH254114   0.662   0.374  13.663  0.0027 -0.0609  0.2786
10900TIP3    H154115   0.645   0.388  13.756 -0.0804 -1.8700  0.5731
10900TIP3    H254116   0.581   0.402  13.620 -0.4357 -0.3862  0.8729
10901TIP3   OH254117   2.328   1.223   0.876  0.2304 -0.0570 -0.6159
10901TIP3    H154118   2.402   1.164   0.887  0.0618 -0.1419  0.1185
10901TIP3    H254119   2.325   1.273   0.958  0.0122  0.5539 -0.9944
10902TIP3   OH254120   0.269   3.778  11.889 -1.0342 -0.3333 -1.1611
10902TIP3    H154121   0.338   3.712  11.891 -0.2083  0.4897 -1.6683
10902TIP3    H254122   0.191   3.732  11.918  0.2605 -0.6103  2.4456
10903TIP3   OH254123   1.100   2.773  12.271 -0.1821  0.1935  0.0322
10903TIP3    H154124   1.129   2.858  12.238  0.6245  0.2115  0.7589
10903TIP3    H254125   1.105   2.781  12.366 -0.4755 -0.5421  0.1152
10904TIP3   OH254126   0.967   2.322  14.429 -0.1675  0.4172  0.1716
10904TIP3    H154127   0.968   2.244  14.484 -0.7858  0.3621  0.1157
10904TIP3    H254128   0.905   2.381  14.471 -1.0476  0.1680 -0.7269
10905TIP3   OH254129   2.068   1.390   2.270 -0.6144 -0.1897 -0.0916
10905TIP3    H154130   2.109   1.471   2.298  1.3346 -0.7891 -1.0121
10905TIP3    H254131   1.975   1.410   2.266 -0.3682  1.4770  1.3560
10906TIP3   OH254132   5.408   4.412   2.093 -0.0698 -0.7479  0.0503
10906TIP3    H154133   5.346   4.343   2.118 -0.0392 -1.0415 -0.6525
10906TIP3    H254134   5.353   4.483   2.060 -0.0544 -0.8233 -0.1379
10907TIP3   OH254135   4.392   2.694  11.428 -0.0536  0.4363 -0.3041
10907TIP3    H154136   4.401   2.785  11.456 -1.0976  0.3489  0.3900
10907TIP3    H254137   4.479   2.668  11.398  0.3402  1.5355 -0.1321
10908TIP3   OH254138   0.412   1.765  12.670 -0.5066 -0.0783 -0.0295
10908TIP3    H154139   0.424   1.736  12.579  0.4430  0.9593 -0.2645
10908TIP3    H254140   0.455   1.697  12.722  0.7871  0.3478 -0.5001
10909TIP3   OH254141   6.007   3.509   1.937  0.0552  0.5502 -0.3039
10909TIP3    H154142   5.991   3.494   2.030 -0.8629 -0.4251 -0.5942
10909TIP3    H254143   6.051   3.593   1.933  0.8002  0.2450  1.0714
10910TIP3   OH254144   5.703   6.157   2.938 -0.2470  0.1204 -0.1338
10910TIP3    H154145   5.793   6.127   2.955 -0.0960  1.3073  1.2875
10910TIP3    H254146   5.705   6.187   2.847  0.4277 -1.1185 -0.5521
10911TIP3   OH254147   4.406   5.614  16.417 -0.4534  0.0705  0.0047
10911TIP3    H154148   4.371   5.541  16.468 -2.0817  0.6740 -0.1936
10911TIP3    H254149   4.392   5.589  16.326 -0.4565  0.3569 -0.0752
10912TIP3   OH254150   3.794   1.964   3.469  0.0502  0.5037 -0.1355
10912TIP3    H154151   3.780   2.017   3.548 -0.5974  0.7612 -0.4138
10912TIP3    H254152   3.752   1.880   3.488 -0.5280  0.7301 -0.3749
10913TIP3   OH254153   6.000   0.255  11.096  0.6497 -0.2704 -0.5172
10913TIP3    H154154   5.951   0.240  11.015  0.3482 -0.5466 -0.2877
10913TIP3    H254155   5.937   0.300  11.153  0.2728 -1.6326  0.1913
10914TIP3   OH254156   0.293   1.543   3.186  0.7217 -0.3827 -0.6135
10914TIP3    H154157   0.343   1.468   3.154 -1.0847 -2.4286  1.0203
10914TIP3    H254158   0.327   1.557   3.274  1.3759  1.0720 -1.0839
10915TIP3   OH254159   3.501   3.198   1.359  0.4392 -0.2950  0.3853
10915TIP3    H154160   3.503   3.176   1.266  0.0672  0.9083  0.0747
10915TIP3    H254161   3.496   3.114   1.403  2.2085 -0.9809 -0.6144
10916TIP3   OH254162   5.981   3.671  15.260 -0.6835 -0.7284 -0.3255
10916TIP3    H154163   6.036   3.632  15.328 -0.3622  0.2458 -0.0061
10916TIP3    H254164   5.895   3.632  15.275 -0.2741 -1.6635 -0.3247
10917TIP3   OH254165   2.699   2.007   2.221 -0.5226 -0.3368 -0.0848
10917TIP3    H154166   2.650   2.075   2.268  0.4635 -0.1791  0.7471
10917TIP3    H254167   2.696   1.931   2.278 -1.2003 -0.8551 -0.7930
10918TIP3   OH254168   2.503   0.151  11.230 -0.1983  0.2994 -0.3380
10918TIP3    H154169   2.429   0.136  11.171  0.0141  1.7190 -0.9940
10918TIP3    H254170   2.511   0.246  11.236  0.5578  0.1836  1.0298
10919TIP3   OH254171   0.665   4.562   5.376 -0.0441 -0.4181 -0.5753
10919TIP3    H154172   0.730   4.532   5.438  0.3108 -0.8054 -1.1244
10919TIP3    H254173   0.697   4.532   5.291  0.3464  1.5278 -1.1603
10920TIP3   OH254174   6.379   4.399  15.568 -0.0105  0.9542 -0.4517
10920TIP3    H154175   6.434   4.321  15.572  1.9324  2.1860 -1.3140
10920TIP3    H254176   6.439   4.471  15.589 -1.5885  2.2853 -0.2898
10921TIP3   OH254177   3.431   0.589   6.424  0.2067  0.2483  0.7356
10921TIP3    H154178   3.485   0.622   6.496 -0.2080 -0.0942  1.2177
10921TIP3    H254179   3.416   0.497   6.447 -1.2089  0.5234  1.0190
10922TIP3   OH254180   3.091   3.842  12.058  0.0005 -0.0858 -0.2301
10922TIP3    H154181   3.134   3.763  12.090 -0.0773  0.5721  1.5995
10922TIP3    H254182   3.163   3.900  12.032  0.0929 -0.3220 -0.5053
10923TIP3   OH254183   1.523   4.775  11.062 -0.8110  0.4354 -0.2312
10923TIP3    H154184   1.532   4.843  11.128  1.8912  0.8285 -0.8698
10923TIP3    H254185   1.546   4.818  10.980  3.0975 -1.4951 -0.4185
10924TIP3   OH254186   4.077   2.038   3.796  0.3957  0.4648 -0.4168
10924TIP3    H154187   3.993   2.072   3.766 -0.3205 -1.4374 -0.7342
10924TIP3    H254188   4.134   2.041   3.719 -0.4578 -1.3812 -1.1855
10925TIP3   OH254189   5.863   6.714  11.450 -0.3227  0.0509  0.4720
10925TIP3    H154190   5.929   6.784  11.450 -0.2404 -0.0265  0.4903
10925TIP3    H254191   5.910   6.637  11.482 -0.7897  0.3260  1.8754
10926TIP3   OH254192   5.844   5.127   3.006  0.0052 -0.1506  0.2571
10926TIP3    H154193   5.882   5.051   2.963  0.2001 -1.1198  2.0212
10926TIP3    H254194   5.909   5.196   2.995  0.0537 -0.3751 -0.9382
10927TIP3   OH254195   2.709   0.076   2.307  0.1929  0.1770 -0.0826
10927TIP3    H154196   2.631   0.043   2.263 -0.7356 -1.2253  2.4020
10927TIP3    H254197   2.778   0.015   2.281  0.2921  0.8722 -1.5438
10928TIP3   OH254198   1.381   1.811   3.720  0.2764 -0.1524 -0.0039
10928TIP3    H154199   1.311   1.828   3.784  1.1232  0.6361  0.7378
10928TIP3    H254200   1.457   1.857   3.755  1.6207 -2.2649  0.0336
10929TIP3   OH254201   5.212   4.422   5.532  0.0813 -0.3617 -0.0195
10929TIP3    H154202   5.193   4.364   5.605  0.6224  0.5179  0.8596
10929TIP3    H254203   5.222   4.365   5.456 -4.7539 -1.0533 -0.4172
10930TIP3   OH254204   4.032   3.833  15.309  0.3369  0.1011  0.1004
10930TIP3    H154205   3.937   3.825  15.306  0.3587 -0.3914  0.5439
10930TIP3    H254206   4.054   3.889  15.235 -0.3081  0.3216  0.0750
10931TIP3   OH254207   4.128   4.264   0.205  0.3767  0.1870  0.1802
10931TIP3    H154208   4.061   4.200   0.182  2.1458 -1.2785 -1.2187
10931TIP3    H254209   4.173   4.226   0.281  1.0275  0.0800 -0.2552
10932TIP3   OH254210   0.429   2.889  13.302  0.5594  0.0769 -0.9961
10932TIP3    H154211   0.507   2.838  13.285 -0.1137 -1.4196  0.1700
10932TIP3    H254212   0.386   2.899  13.217  0.4993 -1.6769 -1.1950
10933TIP3   OH254213   3.821   0.548  14.523  0.4135  0.4557 -0.0190
10933TIP3    H154214   3.796   0.586  14.439  2.1403  0.1342 -0.7238
10933TIP3    H254215   3.845   0.624  14.577 -0.3750  0.6397  0.0835
10934TIP3   OH254216   1.060   1.915  14.159  0.2226  0.2301  0.0991
10934TIP3    H154217   0.996   1.861  14.113  2.9567 -3.2614 -0.0943
10934TIP3    H254218   1.053   1.888  14.250  0.7186  0.5406  0.2332
10935TIP3   OH254219   4.803   6.714   5.175 -0.4017 -0.3647 -0.0277
10935TIP3    H154220   4.794   6.658   5.097 -1.2651  0.2199 -0.3643
10935TIP3    H254221   4.897   6.727   5.184 -0.1417 -2.1942  0.3059
10936TIP3   OH254222   5.445   2.067  13.745  0.1726 -0.2804  0.0601
10936TIP3    H154223   5.385   2.099  13.813  0.1790  0.2947 -0.2025
10936TIP3    H254224   5.507   2.138  13.733  1.4116 -1.1758  0.9080
10937TIP3   OH254225   5.698   3.030   3.236  0.3888  0.1473 -0.3963
10937TIP3    H154226   5.783   3.011   3.196 -0.1074  0.1753 -1.5080
10937TIP3    H254227   5.635   2.986   3.179 -0.2381 -1.4942  1.4882
10938TIP3   OH254228   1.128   1.733   5.183 -0.2411 -0.8382  0.3569
10938TIP3    H154229   1.047   1.784   5.182 -0.6177 -1.4266  0.6392
10938TIP3    H254230   1.197   1.799   5.176 -0.6979 -0.2372  1.2934
10939TIP3   OH254231   1.671   0.899  14.476  0.6882 -0.2659  0.0740
10939TIP3    H154232   1.671   0.805  14.455 -4.1091 -0.5637  0.2503
10939TIP3    H254233   1.704   0.941  14.396 -0.2691 -2.0216 -1.3199
10940TIP3   OH254234   0.858   2.836  15.637  0.3185  0.7286  0.4210
10940TIP3    H154235   0.819   2.760  15.680 -2.0396  1.5543 -0.0674
10940TIP3    H254236   0.864   2.810  15.545  2.5962  0.0196  0.7166
10941TIP3   OH254237   2.079   0.193   2.981 -0.0898 -0.0214  0.3462
10941TIP3    H154238   2.060   0.259   2.914  1.1544 -0.1295 -0.1452
10941TIP3    H254239   2.048   0.111   2.943  0.5092 -0.0639 -0.0661
10942TIP3   OH254240   5.654   5.022   6.270  0.0035  0.1100  0.4748
10942TIP3    H154241   5.682   5.025   6.361 -2.4916 -0.0081  1.3226
10942TIP3    H254242   5.647   5.113   6.243 -0.2900  0.1818  0.7823
10943TIP3   OH254243   0.813   2.566   4.277 -0.4297  0.3689  0.4426
10943TIP3    H154244   0.774   2.638   4.326 -1.1609 -0.2365  0.7583
10943TIP3    H254245   0.885   2.607   4.228 -1.3610  1.4700 -0.0461
10944TIP3   OH254246   5.509   3.710  17.031  0.1074 -0.2912  0.3550
10944TIP3    H154247   5.490   3.619  17.057  0.1199 -0.5506 -0.5206
10944TIP3    H254248   5.431   3.759  17.058 -1.3749 -1.1407 -2.1026
10945TIP3   OH254249   3.708   2.429   0.486  0.0189  0.2356  0.7825
10945TIP3    H154250   3.676   2.343   0.457 -1.4657  0.9063  0.3396
10945TIP3    H254251   3.774   2.408   0.552  1.3318 -1.2760 -0.8855
10946TIP3   OH254252   5.574   1.438  12.368  0.2447  0.0363  0.3023
10946TIP3    H154253   5.641   1.469  12.307 -1.7525  1.0670 -1.5127
10946TIP3    H254254   5.585   1.492  12.446  2.1455 -0.5432  0.4919
10947TIP3   OH254255   2.610   3.970  14.745 -0.2667  0.4143  0.0543
10947TIP3    H154256   2.703   3.986  14.765  0.0539 -0.1123 -0.9504
10947TIP3    H254257   2.564   4.046  14.781  0.3864  0.0242  1.8160
10948TIP3   OH254258   3.656   3.330   3.970  0.3120 -0.1235  0.2033
10948TIP3    H154259   3.621   3.306   4.056  1.7842  0.9136  1.1335
10948TIP3    H254260   3.746   3.358   3.987  0.8713 -0.5552 -1.7880
10949TIP3   OH254261   1.859   2.354   2.653 -0.0124  0.5458 -0.8920
10949TIP3    H154262   1.915   2.402   2.592 -0.2259  0.7884 -0.9024
10949TIP3    H254263   1.903   2.361   2.737 -0.1723  0.9859 -0.8426
10950TIP3   OH254264   2.062   2.330   0.725 -0.2772  0.3268  0.2941
10950TIP3    H154265   2.127   2.262   0.704  0.4788  1.3826 -1.0423
10950TIP3    H254266   2.102   2.381   0.795 -0.2304  0.1978  0.3603
10951TIP3   OH254267   3.318   4.106   3.894 -0.4733  0.4645  0.1064
10951TIP3    H154268   3.317   4.017   3.929  0.5039  0.8759  1.2527
10951TIP3    H254269   3.260   4.103   3.818  0.7848 -1.5450 -0.8410
10952TIP3   OH254270   4.073   0.588   4.898 -0.4379 -0.0096  0.4812
10952TIP3    H154271   4.117   0.661   4.854  0.9073 -0.0579  1.6677
10952TIP3    H254272   4.050   0.527   4.827  0.4426  0.5320 -0.2966
10953TIP3   OH254273   4.115   4.730   4.427 -0.6096 -0.2911 -0.0804
10953TIP3    H154274   4.097   4.798   4.491  1.7556  0.8608 -0.5142
10953TIP3    H254275   4.177   4.672   4.470  1.1853  0.6180 -1.2684
10954TIP3   OH254276   0.563   3.577   1.620  0.0686 -0.6862  0.1728
10954TIP3    H154277   0.568   3.578   1.715 -0.8196  0.2459  0.2240
10954TIP3    H254278   0.626   3.510   1.593  0.7590 -0.5473  1.3835
10955TIP3   OH254279   2.048   4.114  13.891 -0.1394  0.8061  0.1714
10955TIP3    H154280   2.077   4.182  13.830 -2.2421  0.5854 -1.1556
10955TIP3    H254281   1.980   4.066  13.844 -1.0179 -0.1409  2.2672
10956TIP3   OH254282   3.475   2.019   4.903 -0.7146  0.1015 -0.4022
10956TIP3    H154283   3.532   1.951   4.939 -1.9404 -0.6948  0.1026
10956TIP3    H254284   3.536   2.087   4.873  0.5787 -1.4139 -1.3818
10957TIP3   OH254285   4.821   5.185  11.605 -0.3238 -0.4305 -0.2961
10957TIP3    H154286   4.786   5.272  11.585  0.7197  0.0967  0.0797
10957TIP3    H254287   4.867   5.158  11.525 -2.1927 -1.4833 -1.0895
10958TIP3   OH254288   5.946   3.290  11.472 -1.1847  0.2004 -0.2481
10958TIP3    H154289   5.962   3.382  11.449  0.8468  0.2535  1.1354
10958TIP3    H254290   5.850   3.283  11.475 -1.4145  1.8709 -1.7986
10959TIP3   OH254291   0.159   2.275   6.741 -0.6114 -0.0004 -0.4658
10959TIP3    H154292   0.129   2.357   6.701 -0.2322 -0.7157 -2.3226
10959TIP3    H254293   0.100   2.208   6.707 -0.6812 -0.5781  0.7351
10960TIP3   OH254294   5.009   0.338  13.304  0.5618  0.5607  0.0139
10960TIP3    H154295   5.100   0.331  13.273  0.1601 -0.9061 -0.9371
10960TIP3    H254296   5.015   0.390  13.384  2.6507 -1.8006  1.5424
10961TIP3   OH254297   0.351   2.525   4.598  0.2435 -0.6244  0.2693
10961TIP3    H154298   0.363   2.619   4.585 -0.1856 -0.6798 -0.6204
10961TIP3    H254299   0.410   2.502   4.670  0.5544  0.2726  0.3035
10962TIP3   OH254300   2.241   1.388  15.977 -0.0208  0.3364 -0.0240
10962TIP3    H154301   2.325   1.433  15.981 -0.4022  0.9970  0.7469
10962TIP3    H254302   2.262   1.297  15.996  0.4155  0.6370  0.9712
10963TIP3   OH254303   1.974   2.422   3.851  0.7948 -0.3144  0.6302
10963TIP3    H154304   2.039   2.362   3.813  1.3867  0.6961  0.0018
10963TIP3    H254305   1.917   2.445   3.779  1.3278  0.8449  0.5585
10964TIP3   OH254306   2.041   4.354  11.459 -0.0086 -0.0817 -0.0475
10964TIP3    H154307   2.100   4.284  11.487 -0.3370 -0.3123  0.0582
10964TIP3    H254308   1.961   4.341  11.510 -0.7609 -0.7371 -1.3596
10965TIP3   OH254309   6.692   1.967  16.628 -0.6215  0.5501 -0.6720
10965TIP3    H154310   6.705   2.021  16.550  0.6343  0.1016 -0.8025
10965TIP3    H254311   6.642   1.892  16.597  1.4271 -0.5562 -1.5233
10966TIP3   OH254312   3.042   0.970  16.563  0.0557 -0.2418  0.1800
10966TIP3    H154313   2.982   0.949  16.491  1.8645 -0.0895 -1.4649
10966TIP3    H254314   3.024   0.904  16.629 -1.3669 -0.6683 -0.5795
10967TIP3   OH254315   1.037   4.985   1.646  0.3702  0.0783  0.1130
10967TIP3    H154316   1.061   4.928   1.720  0.1290 -1.2444 -0.7925
10967TIP3    H254317   0.944   5.005   1.661 -0.6047 -2.7958 -1.4019
10968TIP3   OH254318   1.113   0.147  15.942  0.0853  0.0140  0.7434
10968TIP3    H154319   1.140   0.239  15.942  0.8363 -0.1676 -0.7553
10968TIP3    H254320   1.181   0.102  15.891 -1.2362 -1.0465 -0.1768
10969TIP3   OH254321   2.941   3.153  13.709 -0.4986 -0.5334  0.2370
10969TIP3    H154322   3.036   3.139  13.703 -0.2018  1.7153 -2.3837
10969TIP3    H254323   2.903   3.083  13.656 -0.0946 -0.0415 -0.7258
10970TIP3   OH254324   2.498   2.444  11.696 -0.1793 -0.5937  1.1937
10970TIP3    H154325   2.505   2.531  11.657  1.3537 -0.2060  2.2188
10970TIP3    H254326   2.567   2.393  11.653 -1.1449 -1.3693  0.5144
10971TIP3   OH254327   4.211   3.606   2.079 -0.6356  0.8244  0.0569
10971TIP3    H154328   4.201   3.601   1.984  1.3804 -2.3951 -0.1323
10971TIP3    H254329   4.208   3.515   2.108  0.0402  1.6335  2.9605
10972TIP3   OH254330   1.942   2.304  12.106  0.3928 -0.0981 -0.1597
10972TIP3    H154331   1.936   2.284  12.200  0.2924  0.1191 -0.1190
10972TIP3    H254332   1.854   2.290  12.073  0.0132  1.4059  0.1041
10973TIP3   OH254333   2.441   0.262  13.030  0.3096  0.2257 -0.3097
10973TIP3    H154334   2.440   0.191  12.966 -0.7368 -1.2771  1.2739
10973TIP3    H254335   2.512   0.238  13.090  0.2629  0.7781 -0.0317
10974TIP3   OH254336   1.910   6.522   2.855 -0.9315 -0.0064  1.1927
10974TIP3    H154337   1.873   6.446   2.808 -2.3298  0.4320  1.5471
10974TIP3    H254338   1.877   6.513   2.944  0.2809  0.1231  1.6649
10975TIP3   OH254339   2.120   3.624  12.311 -0.6441  0.4267  0.5321
10975TIP3    H154340   2.189   3.635  12.376  1.8797 -1.0052 -1.6833
10975TIP3    H254341   2.064   3.555  12.346  0.5103 -0.1430  1.3114
10976TIP3   OH254342   0.284   4.370   2.760 -0.0274  0.0254  0.7291
10976TIP3    H154343   0.239   4.306   2.705  2.8445  0.1033 -2.0230
10976TIP3    H254344   0.244   4.454   2.737  0.5876 -0.0516 -0.6984
10977TIP3   OH254345   5.646   0.703   0.413  0.0816 -1.2012  0.3942
10977TIP3    H154346   5.633   0.797   0.419 -1.4140 -1.3299 -0.2595
10977TIP3    H254347   5.724   0.693   0.359  0.4436 -0.3467  0.7364
10978TIP3   OH254348   2.441   6.562   0.989 -0.1399 -0.2632  0.1507
10978TIP3    H154349   2.517   6.512   0.962 -0.0478 -0.1686  0.2319
10978TIP3    H254350   2.435   6.547   1.083  0.6066  0.8417  0.3887
10979TIP3   OH254351   6.223   5.381  14.813 -0.6923 -0.1195  0.5628
10979TIP3    H154352   6.208   5.438  14.889  0.0017  1.7025 -0.6193
10979TIP3    H254353   6.135   5.358  14.783 -1.0615  1.8702 -0.0212
10980TIP3   OH254354   0.176   5.524   5.926  0.1555  0.0746  0.0140
10980TIP3    H154355   0.144   5.501   6.014  0.0290  2.3111  0.5969
10980TIP3    H254356   0.271   5.513   5.932  0.2740  1.3533  0.8336
10981TIP3   OH254357   6.520   6.356  16.790 -0.4078  0.6350  0.4632
10981TIP3    H154358   6.570   6.275  16.804 -2.2527 -0.4450  1.1487
10981TIP3    H254359   6.586   6.420  16.762  1.0930 -1.1218 -0.2605
10982TIP3   OH254360   1.262   0.191  12.595  0.3087  0.4074  0.1124
10982TIP3    H154361   1.315   0.114  12.576  0.7917  0.5943  0.6653
10982TIP3    H254362   1.293   0.221  12.681 -0.1929  0.9447  0.1133
10983TIP3   OH254363   0.608   0.038   4.201  0.0783  0.4954  0.2333
10983TIP3    H154364   0.702   0.052   4.188 -0.0687  2.2010  0.7101
10983TIP3    H254365   0.585   0.098   4.272 -1.5583  0.8218 -0.5338
10984TIP3   OH254366   0.820   2.035  11.927  0.2103  0.2818 -0.2155
10984TIP3    H154367   0.802   2.052  11.834 -0.4064  0.2394 -0.1067
10984TIP3    H254368   0.748   2.077  11.974 -0.4037 -1.1077  0.1497
10985TIP3   OH254369   0.411   2.898  15.248 -0.3022 -0.0584 -0.8653
10985TIP3    H154370   0.447   2.919  15.161  1.0161  0.5026 -0.2073
10985TIP3    H254371   0.481   2.921  15.309 -0.1736 -2.9551  0.2109
10986TIP3   OH254372   4.972   0.315   0.974  0.2170  0.1107  0.3086
10986TIP3    H154373   5.062   0.318   1.009 -0.4245 -1.2609  2.2748
10986TIP3    H254374   4.968   0.388   0.912  2.3331  0.9561  1.0615
10987TIP3   OH254375   6.382   6.428   5.588 -0.5824 -0.3698  0.5832
10987TIP3    H154376   6.305   6.410   5.643  1.0832 -1.1665  2.7794
10987TIP3    H254377   6.400   6.344   5.545 -2.0454  0.3184 -1.5520
10988TIP3   OH254378   3.147   0.639   5.678  0.7417 -0.3607  0.4716
10988TIP3    H154379   3.219   0.659   5.618  1.2914 -0.8812  0.9454
10988TIP3    H254380   3.102   0.566   5.636  1.0507 -0.6434  0.6288
10989TIP3   OH254381   1.473   4.768  16.796  0.4553 -0.4588  0.3842
10989TIP3    H154382   1.406   4.814  16.747  0.2739 -2.0418 -0.9491
10989TIP3    H254383   1.555   4.814  16.774  0.0980  0.1211  0.2581
10990TIP3   OH254384   3.115   3.531  15.027 -0.0642 -0.0048  0.2252
10990TIP3    H154385   3.098   3.442  15.058 -0.2416 -0.1311 -0.2263
10990TIP3    H254386   3.147   3.519  14.937 -1.9858  0.4686 -0.5780
10991TIP3   OH254387   5.961   1.815   3.048 -0.5454 -0.0240  0.2881
10991TIP3    H154388   5.890   1.833   2.986 -0.9854 -0.8856  0.5153
10991TIP3    H254389   6.011   1.744   3.008 -1.5633 -1.4526  1.4310
10992TIP3   OH254390   5.607   3.946   2.431 -0.2082 -0.1294  0.0795
10992TIP3    H154391   5.686   3.899   2.457 -1.0090 -0.9812  1.0294
10992TIP3    H254392   5.571   3.979   2.514  0.1234  1.8555 -0.5169
10993TIP3   OH254393   5.161   4.567   5.807 -0.3230 -0.0819 -0.1639
10993TIP3    H154394   5.092   4.515   5.850  0.1226 -1.8516 -1.4796
10993TIP3    H254395   5.177   4.639   5.867  0.0950 -2.2726  2.5734
10994TIP3   OH254396   5.716   1.063   4.621 -0.2949  0.0650  0.0265
10994TIP3    H154397   5.712   1.147   4.576  1.1165  0.9567  1.4783
10994TIP3    H254398   5.639   1.063   4.679 -0.9945 -0.2161 -0.8856
10995TIP3   OH254399   0.491   3.436  14.749  0.5248  0.3836  0.3768
10995TIP3    H154400   0.492   3.501  14.818  1.3899  1.4056 -0.5637
10995TIP3    H254401   0.518   3.355  14.792 -0.3423  0.6774  1.5084
10996TIP3   OH254402   3.550   3.346   1.812  0.7025  0.1202  0.1417
10996TIP3    H154403   3.573   3.283   1.880  0.7393 -1.1160 -0.9738
10996TIP3    H254404   3.460   3.323   1.788  1.1331 -0.3020 -1.1096
10997TIP3   OH254405   2.224   6.187   5.234 -0.0443 -0.0725  0.1879
10997TIP3    H154406   2.299   6.127   5.229 -1.3677 -1.7343 -1.0659
10997TIP3    H254407   2.196   6.182   5.326  0.0301 -1.2029  0.1670
10998TIP3   OH254408   3.041   3.153   2.373  0.3705 -0.6631  0.2547
10998TIP3    H154409   3.135   3.151   2.353  0.4471  0.8327  0.3408
10998TIP3    H254410   2.999   3.131   2.290  0.7780  1.3748 -0.5624
10999TIP3   OH254411   4.922   5.897  15.474  0.5763  0.4258 -0.0215
10999TIP3    H154412   4.829   5.915  15.489  0.5547 -0.1725  0.6192
10999TIP3    H254413   4.941   5.939  15.390 -0.5859 -0.5105 -0.7840
11000TIP3   OH254414   4.054   4.245   4.611 -0.1914  0.1861  0.2364
11000TIP3    H154415   4.048   4.166   4.558  0.2837 -0.1487  0.6711
11000TIP3    H254416   3.963   4.270   4.628 -0.3875  0.8393 -1.5051
11001TIP3   OH254417   2.401   2.897  14.473 -0.2946 -0.3732  0.5769
11001TIP3    H154418   2.322   2.844  14.482 -0.8813  0.4100  0.1720
11001TIP3    H254419   2.377   2.966  14.411  1.3850 -1.3931 -1.3192
11002TIP3   OH254420   6.603   0.638   0.879  0.6705 -0.5380  0.1751
11002TIP3    H154421   6.690   0.599   0.890  0.2027 -1.1555  2.0954
11002TIP3    H254422   6.544   0.563   0.870  0.3242 -0.1191 -1.4295
11003TIP3   OH254423   4.986   0.799   3.368  0.4591 -0.2581  0.3167
11003TIP3    H154424   5.041   0.801   3.446  1.9134  1.0267 -0.6913
11003TIP3    H254425   5.021   0.868   3.312  0.1399 -1.8019 -1.9269
11004TIP3   OH254426   2.968   3.405   1.436  0.3117  0.1643 -0.8885
11004TIP3    H154427   3.053   3.364   1.420  0.1279 -0.2934 -0.6974
11004TIP3    H254428   2.922   3.344   1.494  0.2067  0.8506 -0.2389
11005TIP3   OH254429   0.139   4.731  14.578 -0.7196  0.5592  0.3416
11005TIP3    H154430   0.167   4.665  14.641  0.2530  2.0747  1.5761
11005TIP3    H254431   0.219   4.754  14.530 -0.5567  2.3341  1.3995
11006TIP3   OH254432   4.747   6.278   4.374  0.3400 -0.0791  0.0914
11006TIP3    H154433   4.841   6.274   4.358  0.9672  0.3640  3.0574
11006TIP3    H254434   4.731   6.369   4.400 -1.0955  0.0467 -1.1048
11007TIP3   OH254435   6.527   2.747   0.532 -0.4936  0.7978 -0.6115
11007TIP3    H154436   6.569   2.831   0.512 -0.0227  0.4397 -1.1523
11007TIP3    H254437   6.468   2.767   0.605 -0.8845  1.7506 -1.1573
11008TIP3   OH254438   2.519   0.256  14.589  0.7452  0.1664 -0.1385
11008TIP3    H154439   2.433   0.253  14.546 -0.6475 -0.2044  2.4317
11008TIP3    H254440   2.545   0.164  14.596  0.6918  0.1759  0.2328
11009TIP3   OH254441   4.405   4.488   2.425  0.2406 -0.4769  0.1011
11009TIP3    H154442   4.337   4.514   2.487 -0.1059  0.6496 -0.7231
11009TIP3    H254443   4.472   4.556   2.432  1.3613 -1.6353  0.9827
11010TIP3   OH254444   3.611   0.940   4.403  0.4374 -0.4000  0.2711
11010TIP3    H154445   3.680   0.877   4.381  0.0616 -0.9258  0.5755
11010TIP3    H254446   3.637   0.975   4.488  0.2214 -0.7540  0.4836
11011TIP3   OH254447   2.305   5.615  10.934  0.0684 -0.0112  0.2759
11011TIP3    H154448   2.282   5.528  10.903  0.0105  0.3734 -0.7899
11011TIP3    H254449   2.397   5.608  10.958 -0.2038 -0.6284  1.1930
11012TIP3   OH254450   6.010   6.290   1.263  0.3907 -0.0281 -0.3337
11012TIP3    H154451   6.043   6.203   1.284 -0.7917 -0.5540 -0.5966
11012TIP3    H254452   6.042   6.345   1.335  1.9355 -0.4628 -0.6484
11013TIP3   OH254453   3.226   1.091   4.938 -0.3835 -0.1144  0.6759
11013TIP3    H154454   3.314   1.055   4.927  0.2743  1.4849  0.4259
11013TIP3    H254455   3.176   1.058   4.864 -0.1462 -1.4450  1.0943
11014TIP3   OH254456   3.787   4.205   1.990  0.1727  0.6104  0.1281
11014TIP3    H154457   3.860   4.155   1.954  0.5819  0.0748  1.6554
11014TIP3    H254458   3.793   4.193   2.084 -1.4300  1.2106  0.3393
11015TIP3   OH254459   1.364   6.531  16.007 -0.4346  0.3691 -0.2453
11015TIP3    H154460   1.411   6.468  15.952  0.5484  0.4584  0.4649
11015TIP3    H254461   1.433   6.583  16.049 -1.1758  0.6572  0.6588
11016TIP3   OH254462   6.176   6.264  15.140  0.0804 -0.2289  0.1476
11016TIP3    H154463   6.156   6.177  15.172  0.2068 -2.1798 -4.3691
11016TIP3    H254464   6.262   6.255  15.097 -0.4960  1.7169 -1.6070
11017TIP3   OH254465   6.289   0.092  15.920  0.1046  0.4397  0.0091
11017TIP3    H154466   6.247   0.170  15.958  0.0830 -1.0691  3.5034
11017TIP3    H254467   6.355   0.067  15.985  0.9807 -1.7517 -1.6092
11018TIP3   OH254468   1.336   3.822  14.120  0.3968 -0.1813 -0.2858
11018TIP3    H154469   1.362   3.745  14.171 -0.5152  0.5514  1.3863
11018TIP3    H254470   1.254   3.851  14.161  1.2987  2.3483 -0.0877
11019TIP3   OH254471   6.751   6.004   0.096  0.2550 -0.1754 -0.6033
11019TIP3    H154472   6.764   6.098   0.084  2.5759 -0.1104  1.4974
11019TIP3    H254473   6.681   5.997   0.160  1.1219  0.2300  0.4170
11020TIP3   OH254474   3.847   0.279   3.762 -0.0707  0.1388  0.0127
11020TIP3    H154475   3.762   0.282   3.805 -0.1934  2.1311 -0.2977
11020TIP3    H254476   3.910   0.278   3.834 -0.2994 -2.0766  0.2600
11021TIP3   OH254477   4.713   0.517  16.460 -1.0178  0.3454  0.4510
11021TIP3    H154478   4.756   0.507  16.545 -0.0431  0.7639  0.0210
11021TIP3    H254479   4.770   0.472  16.399 -1.9708 -0.3947  0.0734
11022TIP3   OH254480   4.328   1.988  13.215 -0.0301 -0.2053  0.2773
11022TIP3    H154481   4.256   2.051  13.209 -1.3489 -1.5976  0.8194
11022TIP3    H254482   4.399   2.036  13.256 -1.3381  0.6587  1.6062
11023TIP3   OH254483   3.861   5.655  10.687 -0.5200 -0.0750  0.2708
11023TIP3    H154484   3.794   5.717  10.658  0.0050 -0.2479 -1.4110
11023TIP3    H254485   3.940   5.680  10.639  0.6083  0.0271  2.1137
11024TIP3   OH254486   0.299   5.352   1.038 -0.2883 -0.0953  0.4291
11024TIP3    H154487   0.287   5.268   1.083 -0.1654  0.3255  1.2609
11024TIP3    H254488   0.333   5.411   1.105  0.6833  0.3412 -0.4020
11025TIP3   OH254489   1.859   6.060  12.431 -0.1614 -0.3880 -0.3703
11025TIP3    H154490   1.821   6.148  12.425 -0.1475 -0.3629 -0.1105
11025TIP3    H254491   1.952   6.075  12.447 -0.0786 -0.4507 -0.7963
11026TIP3   OH254492   4.464   0.055   4.663 -0.5711 -0.4505  0.1905
11026TIP3    H154493   4.429  -0.034   4.670  0.9597 -0.9825  1.7439
11026TIP3    H254494   4.392   0.112   4.690 -1.7067 -1.1490 -1.2347
11027TIP3   OH254495   0.836   6.319   2.610  0.7788  0.5707  0.5743
11027TIP3    H154496   0.858   6.272   2.691  1.9007  0.2818  0.1153
11027TIP3    H254497   0.840   6.252   2.542  0.1215  0.8745  0.2264
11028TIP3   OH254498   5.103   4.944   2.670 -0.8151  0.2207  0.0377
11028TIP3    H154499   5.117   4.914   2.760 -3.0340  0.7524  0.6067
11028TIP3    H254500   5.120   4.866   2.616  0.7356 -0.0480  0.8552
11029TIP3   OH254501   2.565   2.648  15.339  0.4376 -0.0228 -0.3336
11029TIP3    H154502   2.521   2.603  15.267  0.3959 -1.4219  0.5164
11029TIP3    H254503   2.554   2.589  15.414  1.4031  0.8843  0.5588
11030TIP3   OH254504   1.541   2.511  11.681 -0.6482  0.3288  0.3998
11030TIP3    H154505   1.501   2.583  11.632 -1.8044  0.2487  1.1952
11030TIP3    H254506   1.565   2.448  11.614 -1.3826  0.6184 -0.1497
11031TIP3   OH254507   5.005   6.019   3.799 -0.3813 -0.0007 -0.9009
11031TIP3    H154508   5.032   6.095   3.747 -1.5637 -0.0437 -1.6017
11031TIP3    H254509   4.991   5.949   3.735  3.9934 -1.9608 -0.0777
11032TIP3   OH254510   4.468   5.587   5.543 -0.3613 -0.3778 -0.4608
11032TIP3    H154511   4.452   5.671   5.587  0.8800  0.4680 -1.5264
11032TIP3    H254512   4.529   5.541   5.601 -0.6413 -0.3266 -0.1223
11033TIP3   OH254513   2.050   4.481  15.225 -0.2140  0.1060 -0.4965
11033TIP3    H154514   2.030   4.418  15.295 -0.4209 -0.3687 -0.9775
11033TIP3    H254515   2.116   4.538  15.263 -1.1972  0.6119  0.5178
11034TIP3   OH254516   5.515   2.368  15.837 -0.6356  0.5890  0.8405
11034TIP3    H154517   5.580   2.376  15.907 -1.9963  2.2011  2.0110
11034TIP3    H254518   5.566   2.360  15.757  0.9925 -1.3549  1.9751
11035TIP3   OH254519   0.931   0.812  11.650  0.0088 -0.2016  0.4700
11035TIP3    H154520   0.936   0.740  11.588  2.3468  0.4483 -0.1845
11035TIP3    H254521   0.838   0.817  11.673 -0.5577 -1.9483 -1.1790
11036TIP3   OH254522   6.211   3.003   5.918 -0.1515 -0.0814  0.8202
11036TIP3    H154523   6.121   2.980   5.942  0.5833 -0.7169  3.3260
11036TIP3    H254524   6.220   2.976   5.827 -2.4627 -0.0267  0.5103
11037TIP3   OH254525   2.312   6.288  14.769  0.0092 -0.8062  0.2848
11037TIP3    H154526   2.406   6.302  14.760  0.1301 -2.1287 -0.7579
11037TIP3    H254527   2.290   6.332  14.851  1.5525 -0.5830  0.6189
11038TIP3   OH254528   0.767   3.148  16.186 -0.2402  0.2936 -0.5175
11038TIP3    H154529   0.693   3.148  16.246 -0.9218  0.2004 -1.3456
11038TIP3    H254530   0.730   3.174  16.102  0.4696 -0.6997 -1.1674
11039TIP3   OH254531   5.802   5.851  15.540 -0.0038  0.3222  0.1348
11039TIP3    H154532   5.881   5.901  15.523 -1.1414  2.0660 -0.3374
11039TIP3    H254533   5.807   5.777  15.479  0.7136  1.0592 -0.7334
11040TIP3   OH254534   3.905   3.842  11.180 -0.3286 -0.1233  0.0034
11040TIP3    H154535   3.886   3.909  11.114 -1.3673  0.7010  1.0962
11040TIP3    H254536   3.828   3.840  11.236  0.2580 -1.2717  0.8171
11041TIP3   OH254537   0.230   5.423  12.375  0.5603  0.2513 -0.0217
11041TIP3    H154538   0.234   5.502  12.321 -0.3059 -0.4698 -1.1728
11041TIP3    H254539   0.322   5.395  12.382  0.6850  0.2713 -1.2751
11042TIP3   OH254540   3.250   1.156   0.815 -0.1290  0.6012  0.7968
11042TIP3    H154541   3.326   1.150   0.757  0.8148  1.3887  1.8842
11042TIP3    H254542   3.204   1.073   0.804  1.3097 -0.2019  0.6315
11043TIP3   OH254543   2.673   5.578   4.572 -0.7913  0.7530 -0.6464
11043TIP3    H154544   2.757   5.613   4.601 -1.3078  0.3191  1.4700
11043TIP3    H254545   2.632   5.652   4.526 -0.9782  2.3913  1.9402
11044TIP3   OH254546   6.535   6.150   4.979  0.3814 -0.0171 -0.5284
11044TIP3    H154547   6.514   6.058   4.993  0.1913  0.1431  0.2869
11044TIP3    H254548   6.491   6.173   4.896 -1.6709 -0.0158  0.4945
11045TIP3   OH254549   1.245   5.788  13.029 -0.3514  0.3462 -0.1621
11045TIP3    H154550   1.292   5.805  12.948  1.5341 -0.2312  0.7706
11045TIP3    H254551   1.152   5.791  13.004  0.1772  0.4370 -2.2591
11046TIP3   OH254552   4.482   0.520  13.309 -0.2381 -0.4154  0.3721
11046TIP3    H154553   4.429   0.587  13.264  1.9760  1.2651  0.1074
11046TIP3    H254554   4.510   0.461  13.239  0.0545 -0.0277  0.1625
11047TIP3   OH254555   6.818   5.616  14.274  0.6326 -0.1953 -0.4455
11047TIP3    H154556   6.785   5.533  14.308  0.7254  0.3906  1.1165
11047TIP3    H254557   6.913   5.609  14.279  0.6372  0.0978 -0.0588
11048TIP3   OH254558   6.338   4.430  13.513  0.1600  0.0441 -0.1957
11048TIP3    H154559   6.264   4.378  13.482  0.3501  0.7924 -1.9889
11048TIP3    H254560   6.303   4.481  13.586 -0.2066 -2.0161  1.1889
11049TIP3   OH254561   4.675   0.785   0.850 -0.4632  0.4773 -0.1875
11049TIP3    H154562   4.660   0.878   0.866  3.0515  1.1653 -0.0434
11049TIP3    H254563   4.675   0.777   0.755  0.9048  1.0606 -0.2718
11050TIP3   OH254564   0.010   5.955  11.118 -0.0942  0.0693  0.2428
11050TIP3    H154565   0.081   5.964  11.181  0.1986 -0.6281  0.0264
11050TIP3    H254566   0.051   5.916  11.041 -0.3652  1.2353 -0.5256
11051TIP3   OH254567   5.701   1.923   0.874 -0.5236 -0.3204  0.0427
11051TIP3    H154568   5.693   1.892   0.964  1.0447 -1.2393 -0.0830
11051TIP3    H254569   5.745   1.851   0.829  2.0195  1.5163 -0.6093
11052TIP3   OH254570   5.494   6.451   1.878  0.2996  0.4138 -0.3912
11052TIP3    H154571   5.486   6.391   1.952 -0.9376  1.6088  0.5037
11052TIP3    H254572   5.427   6.518   1.894  2.4438  2.7850 -0.6072
11053TIP3   OH254573   1.935   2.148  11.240 -0.2393  0.8502 -0.4843
11053TIP3    H154574   2.004   2.132  11.305 -0.3937  1.6616 -0.1052
11053TIP3    H254575   1.894   2.063  11.227  1.5742  0.1003 -1.5847
11054TIP3   OH254576   1.730   5.510  11.428 -0.0741 -0.1023 -0.1122
11054TIP3    H154577   1.647   5.492  11.473  0.0370  0.4312  0.3132
11054TIP3    H254578   1.718   5.471  11.341 -1.5811  1.7017 -0.7939
11055TIP3   OH254579   2.706   5.291   5.356  0.2837 -0.1222  0.1347
11055TIP3    H154580   2.640   5.285   5.287  0.4240 -0.2727  0.0155
11055TIP3    H254581   2.757   5.211   5.348  0.0856 -0.3019  0.6297
11056TIP3   OH254582   2.584   5.520   2.956 -0.6103 -0.3102 -0.1984
11056TIP3    H154583   2.538   5.516   2.872 -1.5545  0.8255  0.2330
11056TIP3    H254584   2.633   5.438   2.961 -2.3486 -1.4244 -0.8231
11057TIP3   OH254585   3.675   1.063  13.771 -0.0220  0.5219  0.4102
11057TIP3    H154586   3.765   1.030  13.776 -0.4983 -0.7837  0.7318
11057TIP3    H254587   3.685   1.156  13.749  1.3504 -0.2285 -2.6370
11058TIP3   OH254588   6.064   1.577  13.771 -0.0800  0.1366 -0.0092
11058TIP3    H154589   6.008   1.600  13.845  0.2302  0.4903  0.1169
11058TIP3    H254590   6.041   1.638  13.702  1.3529  1.4403  0.6145
11059TIP3   OH254591   0.296   2.699   6.149  0.0813  0.5991  0.6791
11059TIP3    H154592   0.228   2.667   6.089 -0.8005 -0.6497  2.2297
11059TIP3    H254593   0.301   2.630   6.216  1.4001  1.6736  1.7223
11060TIP3   OH254594   5.114   0.038  15.091  0.4014 -0.2434  0.3201
11060TIP3    H154595   5.110   0.098  15.165  0.2374 -0.0577  0.1593
11060TIP3    H254596   5.169   0.082  15.027 -1.5226  0.7575 -0.7175
11061TIP3   OH254597   4.206   1.159  12.813 -0.4408  0.1988  0.0889
11061TIP3    H154598   4.223   1.253  12.821 -0.7196  0.1223  2.2604
11061TIP3    H254599   4.293   1.120  12.803 -0.0128  0.4883  2.2791
11062TIP3   OH254600   0.906   0.829   5.291  0.0802 -0.3318  0.5955
11062TIP3    H154601   0.905   0.913   5.244  2.0051 -0.2455  0.6421
11062TIP3    H254602   0.858   0.846   5.372  0.6108  0.7853  0.6918
11063TIP3   OH254603   6.282   3.829  12.795  0.1233  0.0257 -0.4889
11063TIP3    H154604   6.232   3.829  12.877  1.0960 -2.9639  0.2392
11063TIP3    H254605   6.215   3.830  12.726 -0.8480 -0.4561  0.4090
11064TIP3   OH254606   4.127   5.151  14.098 -0.4354 -0.3311 -0.9764
11064TIP3    H154607   4.059   5.142  14.030 -1.8721  0.4352  0.2833
11064TIP3    H254608   4.089   5.213  14.161  0.8390 -1.0185  0.5303
11065TIP3   OH254609   1.950   5.846  15.722 -0.1488 -0.0135 -0.1673
11065TIP3    H154610   2.003   5.922  15.695  0.3954 -0.8238 -1.4527
11065TIP3    H254611   1.913   5.872  15.806  0.4363  1.4854 -0.3400
11066TIP3   OH254612   6.425   1.544  16.049  0.2394  0.5030  0.5107
11066TIP3    H154613   6.351   1.571  15.995  0.3528  0.1308  0.1652
11066TIP3    H254614   6.482   1.620  16.051  0.1648  0.5684  0.2214
11067TIP3   OH254615   1.630   2.205   2.716  0.2435 -0.2674  0.8127
11067TIP3    H154616   1.547   2.180   2.676 -1.7491  0.8151  3.8966
11067TIP3    H254617   1.624   2.300   2.725  1.7962 -0.1789  1.1613
11068TIP3   OH254618   3.947   2.727  12.244 -0.6144 -0.8200 -0.3934
11068TIP3    H154619   3.895   2.651  12.268 -0.7707 -0.7384 -0.4733
11068TIP3    H254620   3.886   2.801  12.249 -0.3147 -0.6124  0.2795
11069TIP3   OH254621   2.863   4.489  16.312  0.0609  0.1132  0.1547
11069TIP3    H154622   2.853   4.400  16.346 -0.1544  0.6074  1.4325
11069TIP3    H254623   2.778   4.530  16.327  0.7171  1.1087  1.3356
11070TIP3   OH254624   2.240   2.948   2.507 -0.0812  0.2858  0.0753
11070TIP3    H154625   2.147   2.932   2.494 -0.0021  0.6673 -1.0155
11070TIP3    H254626   2.279   2.862   2.518 -0.5210  0.1095  0.2498
11071TIP3   OH254627   1.046   0.891   5.623  0.5552  0.2432 -0.2315
11071TIP3    H154628   0.958   0.898   5.585  0.3362 -0.5514  0.1112
11071TIP3    H254629   1.068   0.981   5.649 -0.6678  0.2837  0.7706
11072TIP3   OH254630   0.399   2.698   5.522 -0.1814  0.1869 -0.4840
11072TIP3    H154631   0.407   2.787   5.556  1.3368 -0.5252  1.1831
11072TIP3    H254632   0.305   2.683   5.516 -0.4915  1.2920  0.9504
11073TIP3   OH254633   2.428   5.301  14.203  0.0301  0.2488  0.9769
11073TIP3    H154634   2.408   5.395  14.202 -0.1274  0.2382  2.0394
11073TIP3    H254635   2.519   5.295  14.174 -0.2371  0.6453  0.0292
11074TIP3   OH254636   1.073   0.606   2.147  0.3027 -0.1754 -0.3637
11074TIP3    H154637   0.985   0.567   2.148  1.8089 -4.0006  0.8464
11074TIP3    H254638   1.101   0.600   2.056  1.3939 -4.7202  0.0537
11075TIP3   OH254639   1.921   4.776   0.969 -0.0108 -0.0731 -0.6856
11075TIP3    H154640   1.831   4.752   0.991 -0.0707  0.1809 -0.6465
11075TIP3    H254641   1.964   4.783   1.054 -0.1987  0.7418 -0.6434
11076TIP3   OH254642   1.129   5.412  14.466 -0.4187  0.1375 -0.4436
11076TIP3    H154643   1.061   5.390  14.403 -1.7587 -0.3871  1.1209
11076TIP3    H254644   1.087   5.475  14.525  0.5897  0.1264  0.3041
11077TIP3   OH254645   4.210   1.330  13.992  0.0957 -0.2085  0.0078
11077TIP3    H154646   4.270   1.256  14.003 -0.0752 -0.3754 -0.1599
11077TIP3    H254647   4.233   1.391  14.062 -0.6307 -1.0070  0.9635
11078TIP3   OH254648   4.184   4.622   5.383 -0.0601 -0.2330 -0.0522
11078TIP3    H154649   4.203   4.709   5.418  0.4518 -1.2880  2.4353
11078TIP3    H254650   4.250   4.609   5.315  0.6679  0.7992  0.4335
11079TIP3   OH254651   3.800   1.799  13.482  0.2851 -0.3242 -0.0721
11079TIP3    H154652   3.745   1.868  13.519  1.0811  0.0631  0.4223
11079TIP3    H254653   3.830   1.834  13.398  3.2137  1.3747  1.4714
11080TIP3   OH254654   3.281   5.609  15.500 -0.1004 -0.3236 -0.4401
11080TIP3    H154655   3.291   5.573  15.412 -0.0576  1.6176 -1.2697
11080TIP3    H254656   3.192   5.645  15.501 -0.5314 -1.3436  0.7277
11081TIP3   OH254657   2.432   6.656  14.020  0.0590  0.2630  0.2935
11081TIP3    H154658   2.431   6.690  14.109  0.3056  1.5570 -0.1738
11081TIP3    H254659   2.368   6.709  13.973  0.8946  0.4955 -0.6066
11082TIP3   OH254660   2.873   3.992  12.115  0.6964 -0.3762 -0.4780
11082TIP3    H154661   2.909   4.080  12.122 -1.1108  0.8685 -4.2418
11082TIP3    H254662   2.949   3.935  12.110  1.9765  1.2707 -0.6537
11083TIP3   OH254663   0.472   0.986   3.513  0.3888 -0.1393  0.4179
11083TIP3    H154664   0.558   1.023   3.492  0.5169  0.3608  1.7150
11083TIP3    H254665   0.459   0.918   3.447  1.5093  0.1752 -0.1681
11084TIP3   OH254666   3.169   2.256   1.276  0.2833 -0.6653  0.5268
11084TIP3    H154667   3.165   2.303   1.192  0.9878 -2.4861 -0.6025
11084TIP3    H254668   3.181   2.325   1.342 -2.9344  1.0774 -0.5209
11085TIP3   OH254669   5.793   3.204  14.679  0.1511  0.1883  0.2036
11085TIP3    H154670   5.734   3.154  14.735 -1.0836  2.5387  1.1387
11085TIP3    H254671   5.855   3.139  14.645 -0.5678 -1.7168  2.3219
11086TIP3   OH254672   1.609   2.623   3.879 -0.2061 -0.2017  0.2901
11086TIP3    H154673   1.690   2.660   3.915  0.3511 -2.1613  1.2251
11086TIP3    H254674   1.541   2.647   3.942  0.1705 -0.8225  0.9531
11087TIP3   OH254675   1.374   3.723  11.144  0.0083 -0.4690  0.1137
11087TIP3    H154676   1.297   3.702  11.197 -0.4565 -0.1138 -0.4192
11087TIP3    H254677   1.342   3.727  11.054  0.9938 -2.1907 -0.3665
11088TIP3   OH254678   2.028   5.820   1.604  0.4163 -0.4436 -0.2422
11088TIP3    H154679   1.994   5.768   1.531  0.5483  0.0479 -0.6660
11088TIP3    H254680   2.084   5.760   1.653 -0.8914 -1.2104  0.3551
11089TIP3   OH254681   1.603   3.234   5.674  0.0637  0.1363  0.2495
11089TIP3    H154682   1.592   3.226   5.769 -0.2427 -3.6829  0.0428
11089TIP3    H254683   1.522   3.274   5.644 -0.1635  0.6770  1.4872
11090TIP3   OH254684   3.556   3.763  16.380  0.6161 -0.4385 -0.2990
11090TIP3    H154685   3.629   3.823  16.366  0.6778 -0.5222 -0.3370
11090TIP3    H254686   3.486   3.818  16.417  1.1135 -0.5893  0.9151
11091TIP3   OH254687   4.049   0.965  12.967 -0.6406 -0.2231 -0.2218
11091TIP3    H154688   4.080   1.003  12.885 -2.1792  0.1898 -0.6489
11091TIP3    H254689   4.095   1.013  13.035  1.5879 -1.3833 -0.8148
11092TIP3   OH254690   2.507   2.072   2.037  0.4780 -0.3959  0.0275
11092TIP3    H154691   2.444   2.002   2.053 -1.3985  1.3461  0.8246
11092TIP3    H254692   2.579   2.055   2.097 -0.5202 -0.9719  1.1014
11093TIP3   OH254693   0.895   4.947   4.005  0.2675  0.2078 -0.5331
11093TIP3    H154694   0.877   5.039   3.985 -0.5598  0.2645  0.3756
11093TIP3    H254695   0.848   4.931   4.087  1.7050 -0.5996  0.1724
11094TIP3   OH254696   3.452   1.585   2.166  0.0480 -0.1915 -0.4438
11094TIP3    H154697   3.508   1.657   2.194  0.3054 -0.4563 -0.2682
11094TIP3    H254698   3.457   1.587   2.070  0.4273 -0.2617 -0.4287
11095TIP3   OH254699   5.483   2.932   2.440 -0.2595 -0.2678 -0.3799
11095TIP3    H154700   5.409   2.955   2.496 -1.2116  2.1088 -2.4320
11095TIP3    H254701   5.560   2.958   2.491 -0.9404 -0.5988  0.8535
11096TIP3   OH254702   4.885   3.513   5.177  0.0998  0.3079  0.1610
11096TIP3    H154703   4.945   3.438   5.180 -0.7387 -0.4629 -1.0818
11096TIP3    H254704   4.804   3.477   5.142 -1.3053  1.2191  2.3172
11097TIP3   OH254705   6.079   6.691   5.047  0.0205 -0.1613  0.3174
11097TIP3    H154706   6.096   6.610   5.095  1.5769 -2.1137 -3.1245
11097TIP3    H254707   6.041   6.662   4.964  0.0192  2.7270 -0.8039
11098TIP3   OH254708   0.185   6.307   5.541  0.0279 -0.1423  0.2472
11098TIP3    H154709   0.249   6.252   5.495  2.7689  0.9542  2.4299
11098TIP3    H254710   0.188   6.391   5.496 -1.2540 -0.5836 -0.7110
11099TIP3   OH254711   3.631   5.290  12.461  0.0094  0.2641 -0.0523
11099TIP3    H154712   3.610   5.380  12.486  0.6696  0.4678 -0.2233
11099TIP3    H254713   3.552   5.240  12.484 -0.7210  1.0370 -0.8239
11100TIP3   OH254714   5.314   2.909   5.720 -0.4404 -0.3888  0.5653
11100TIP3    H154715   5.276   2.987   5.760 -1.9787 -0.9142  0.2329
11100TIP3    H254716   5.343   2.938   5.633 -1.8479 -0.3412  0.0745
11101TIP3   OH254717   5.663   6.746  14.878 -0.2633 -0.3237 -0.3384
11101TIP3    H154718   5.679   6.799  14.800 -0.7723  0.7828  0.2847
11101TIP3    H254719   5.655   6.656  14.845 -0.1385  0.0756 -1.5072
11102TIP3   OH254720   4.613   5.243  12.937  0.1041 -0.5076 -0.0250
11102TIP3    H154721   4.583   5.268  13.024  2.3869 -1.2184  1.0268
11102TIP3    H254722   4.708   5.240  12.944  0.3727 -0.2709 -2.6441
11103TIP3   OH254723   2.809   0.109   0.084  0.0109  0.4405  0.0118
11103TIP3    H154724   2.755   0.180   0.050 -0.5775  0.4663  0.9606
11103TIP3    H254725   2.798   0.038   0.020 -2.4987 -0.1492  0.9805
11104TIP3   OH254726   3.488   6.016   2.440 -0.0354  0.1348  0.1167
11104TIP3    H154727   3.442   6.047   2.362 -0.1850  0.2242  0.2389
11104TIP3    H254728   3.498   6.094   2.495  0.0729  0.0729  0.1852
11105TIP3   OH254729   1.330   5.655   4.907  0.1990 -0.3982 -0.3180
11105TIP3    H154730   1.366   5.651   4.819  0.3920 -0.9695 -0.2201
11105TIP3    H254731   1.310   5.748   4.921  1.0246 -0.1651 -0.6186
11106TIP3   OH254732   1.858   4.300   0.682  0.3872 -0.0900  0.2196
11106TIP3    H154733   1.770   4.284   0.647  0.2762 -0.0898  0.4916
11106TIP3    H254734   1.892   4.213   0.702  0.5426 -0.1048 -0.1077
11107TIP3   OH254735   5.621   5.486   6.340  0.1780 -0.2998 -0.1772
11107TIP3    H154736   5.564   5.554   6.304 -0.6779  0.4169  2.3150
11107TIP3    H254737   5.660   5.526   6.418  0.7609 -2.2128  0.5714
11108TIP3   OH254738   2.384   0.743   4.266 -0.3507 -0.2730 -0.2175
11108TIP3    H154739   2.323   0.671   4.250  0.8753 -1.2401 -0.7651
11108TIP3    H254740   2.438   0.711   4.339  0.4054 -0.0537 -0.6716
11109TIP3   OH254741   2.818   4.084   4.230 -0.0489 -0.3600 -0.0234
11109TIP3    H154742   2.815   4.179   4.219 -0.0146 -0.0949  1.8728
11109TIP3    H254743   2.910   4.065   4.250 -0.4535 -0.4189  2.0366
11110TIP3   OH254744   5.732   5.756  11.282 -0.4734  0.1580  0.3935
11110TIP3    H154745   5.689   5.714  11.208 -0.8336 -0.1187  0.7585
11110TIP3    H254746   5.730   5.850  11.260  0.1560  0.0120 -0.3247
11111TIP3   OH254747   3.414   5.028  10.793  0.8382 -0.5113 -0.4600
11111TIP3    H154748   3.478   4.993  10.731  1.8599  0.3786  0.0470
11111TIP3    H254749   3.434   4.983  10.875  0.4685 -0.6046 -0.4220
11112TIP3   OH254750   5.709   4.221  16.628  0.4463  0.2632 -0.4145
11112TIP3    H154751   5.660   4.148  16.590  1.2534 -0.3359 -0.3249
11112TIP3    H254752   5.723   4.281  16.554  4.3083 -2.0939 -1.8589
11113TIP3   OH254753   2.086   3.220  13.451 -0.0776  0.4793 -0.1737
11113TIP3    H154754   1.998   3.247  13.478 -0.3093 -0.4039 -0.0384
11113TIP3    H254755   2.072   3.143  13.396  0.5992  0.4600 -0.3230
11114TIP3   OH254756   6.009   1.947   5.104 -0.0643  0.8223  0.2012
11114TIP3    H154757   6.021   1.856   5.129 -0.4454  0.1235 -1.9308
11114TIP3    H254758   5.915   1.962   5.111  0.0817  1.2900  1.2521
11115TIP3   OH254759   5.871   4.550  13.163  0.0982  0.5912  0.3890
11115TIP3    H154760   5.915   4.624  13.206  2.4694  0.3018 -1.3948
11115TIP3    H254761   5.940   4.486  13.148 -0.4259  0.7406 -3.9791
11116TIP3   OH254762   5.994   3.641  12.472  0.0119  0.3371 -0.5978
11116TIP3    H154763   6.082   3.603  12.482  0.8288  1.8716 -1.6235
11116TIP3    H254764   5.938   3.566  12.451  0.8210 -0.8557  1.2596
11117TIP3   OH254765   3.141   5.716   1.336  0.0633 -0.6875  0.6788
11117TIP3    H154766   3.163   5.755   1.252  0.4260 -1.6552  0.3190
11117TIP3    H254767   3.077   5.777   1.374  2.5511  1.6806  1.3407
11118TIP3   OH254768   3.731   3.705   1.173 -0.1278 -0.0941  0.1838
11118TIP3    H154769   3.813   3.728   1.130 -0.4293 -0.5251 -0.6339
11118TIP3    H254770   3.709   3.782   1.225  1.7404 -0.6449  1.9243
11119TIP3   OH254771   4.071   0.422  12.829 -0.6378  0.3364  0.7821
11119TIP3    H154772   4.144   0.451  12.884  0.5256 -0.1298 -0.4405
11119TIP3    H254773   4.056   0.331  12.855 -0.3463  0.2385  0.6234
11120TIP3   OH254774   1.441   4.169  10.964 -0.2246 -0.1065 -0.1605
11120TIP3    H154775   1.362   4.114  10.961 -1.2719  1.3185  0.1376
11120TIP3    H254776   1.409   4.255  10.994  1.7534 -0.0206  1.9352
11121TIP3   OH254777   3.196   4.257   5.466  0.0240  0.9036  0.0476
11121TIP3    H154778   3.273   4.249   5.411  0.7067  1.3617  0.9142
11121TIP3    H254779   3.171   4.349   5.458  0.3950  1.0801  0.8379
11122TIP3   OH254780   5.819   2.220  11.025  0.1429  0.3305  0.1600
11122TIP3    H154781   5.796   2.166  10.949  0.5254  0.4134 -0.0196
11122TIP3    H254782   5.772   2.302  11.011  1.0079  0.7300 -0.5180
11123TIP3   OH254783   2.003   2.924  13.472 -0.1602 -0.2471 -0.0517
11123TIP3    H154784   2.073   2.877  13.427 -0.7748  0.3439 -1.6972
11123TIP3    H254785   2.006   2.891  13.562  1.2189 -1.3538 -0.4701
11124TIP3   OH254786   0.208   6.671   2.209 -0.0573 -0.1934  0.1450
11124TIP3    H154787   0.209   6.752   2.159  0.2818 -0.8320 -0.9293
11124TIP3    H254788   0.233   6.696   2.297 -0.6340  0.9663 -0.0031
11125TIP3   OH254789   4.876   6.331   0.734 -0.0316  0.1825  0.0813
11125TIP3    H154790   4.829   6.280   0.800  0.1298  1.2406  1.0459
11125TIP3    H254791   4.884   6.272   0.659 -1.6370 -0.5154  0.4136
11126TIP3   OH254792   1.349   3.792   2.711 -0.0783 -0.3116 -0.5763
11126TIP3    H154793   1.294   3.870   2.718 -0.0832 -0.3637  0.0492
11126TIP3    H254794   1.426   3.822   2.662 -0.2011  0.0224 -0.5722
11127TIP3   OH254795   1.974   4.114   0.313 -0.0560 -0.2778 -0.0963
11127TIP3    H154796   1.963   4.152   0.226 -1.2623 -0.1624  0.0844
11127TIP3    H254797   1.885   4.088   0.339  0.5720 -2.2812  0.2183
11128TIP3   OH254798   1.946   1.703  14.407 -0.0673  0.0758 -0.2927
11128TIP3    H154799   2.034   1.739  14.411 -0.1357  0.2310 -0.1327
11128TIP3    H254800   1.959   1.609  14.399  0.1115  0.1490 -0.8600
11129TIP3   OH254801   4.801   3.946  10.981  0.6781 -0.1164 -0.5230
11129TIP3    H154802   4.711   3.918  10.965  0.5134  0.5150 -0.7087
11129TIP3    H254803   4.797   3.990  11.066  1.0544 -1.1737  0.0615
11130TIP3   OH254804   1.819   1.303   0.845  0.2867  0.7837  0.2947
11130TIP3    H154805   1.909   1.330   0.825  0.5224  0.1541  0.4862
11130TIP3    H254806   1.812   1.311   0.940  1.1477 -2.0556  0.7077
11131TIP3   OH254807   5.300   0.874   4.890 -0.9056 -0.4455  0.3079
11131TIP3    H154808   5.320   0.788   4.927 -2.0498 -0.6223  0.5394
11131TIP3    H254809   5.290   0.858   4.796  0.6185 -0.2389  0.0844
11132TIP3   OH254810   4.643   1.065   0.817  0.4240 -0.4644  0.3843
11132TIP3    H154811   4.583   1.128   0.777  0.6276 -0.9484 -0.7080
11132TIP3    H254812   4.730   1.098   0.796  0.5321 -0.9769 -0.0018
11133TIP3   OH254813   3.710   1.461  10.921 -0.2304  0.0686  0.6613
11133TIP3    H154814   3.618   1.453  10.948  0.2205 -0.6940  2.0844
11133TIP3    H254815   3.742   1.371  10.921  0.7167  0.3992  0.9092
11134TIP3   OH254816   1.626   6.804   3.429 -0.0790  0.5463 -0.0352
11134TIP3    H154817   1.578   6.846   3.500  0.2671  2.5345 -0.8884
11134TIP3    H254818   1.569   6.815   3.353  0.3252  0.0345 -0.4161
11135TIP3   OH254819   6.281   2.126  13.341  0.1561  0.1078  0.1931
11135TIP3    H154820   6.200   2.152  13.385  0.6144  0.1636  1.0381
11135TIP3    H254821   6.265   2.143  13.249 -0.1156  1.9778  0.5343
11136TIP3   OH254822   2.935   5.489  11.918  0.2835 -0.3415 -0.7825
11136TIP3    H154823   2.851   5.533  11.932  0.5354  0.2400 -1.0456
11136TIP3    H254824   2.990   5.555  11.875  1.4809 -0.0742  1.0425
11137TIP3   OH254825   4.186   5.985  15.223  0.2502  0.0385  0.2019
11137TIP3    H154826   4.242   6.058  15.195 -0.4656  0.6190  0.2489
11137TIP3    H254827   4.230   5.907  15.190  0.0359  0.6074 -1.5521
11138TIP3   OH254828   5.580   6.274  15.520 -0.0586  0.6908  0.1711
11138TIP3    H154829   5.613   6.325  15.447 -3.5585  1.4041 -1.1387
11138TIP3    H254830   5.531   6.337  15.573 -0.0980 -0.3761  1.4571
11139TIP3   OH254831   4.089   1.775  14.881 -0.3756  0.4805 -0.1470
11139TIP3    H154832   4.098   1.823  14.799  1.5795 -0.8593 -0.7739
11139TIP3    H254833   4.144   1.822  14.943  1.2405 -0.6570 -0.6631
11140TIP3   OH254834   4.542   2.780  12.313  0.1042  0.4640 -0.1902
11140TIP3    H154835   4.575   2.693  12.333  2.3418  1.8904  3.2614
11140TIP3    H254836   4.620   2.834  12.302 -1.1933  2.1578 -1.9554
11141TIP3   OH254837   5.475   6.205   0.832  0.0126  0.3438 -0.3552
11141TIP3    H154838   5.413   6.278   0.839 -1.0261 -0.5397 -0.2382
11141TIP3    H254839   5.558   6.242   0.863  0.0585  2.1204 -2.3258
11142TIP3   OH254840   4.143   3.609  12.062  0.2943  0.5598 -0.1250
11142TIP3    H154841   4.138   3.639  12.153  1.0563 -0.5677  0.3060
11142TIP3    H254842   4.096   3.525  12.061  0.1037  0.6628 -0.8258
11143TIP3   OH254843   6.556   5.098  12.629 -0.6808 -0.3363 -0.2191
11143TIP3    H154844   6.612   5.025  12.657  0.3068  0.0923 -1.0131
11143TIP3    H254845   6.480   5.056  12.589 -0.4272 -0.9305 -0.0942
11144TIP3   OH254846   0.018   0.144  14.242  0.2245  0.3998 -0.0689
11144TIP3    H154847   0.037   0.056  14.210 -0.2857  0.4937 -0.6521
11144TIP3    H254848  -0.066   0.135  14.287  0.1441  0.5958 -0.1782
11145TIP3   OH254849   5.471   0.697  16.489 -0.2283 -0.3678  0.4252
11145TIP3    H154850   5.385   0.654  16.498 -0.5120  0.3670  1.3910
11145TIP3    H254851   5.528   0.651  16.550  0.4911 -1.8232 -1.2652
11146TIP3   OH254852   5.753   4.198   2.181  0.0364 -0.3393  0.5345
11146TIP3    H154853   5.795   4.161   2.104  0.9520 -0.1302  0.9182
11146TIP3    H254854   5.659   4.193   2.162  0.0489 -3.3350  0.7505
11147TIP3   OH254855   4.306   2.805   5.312 -0.6786 -0.5776  0.2147
11147TIP3    H154856   4.263   2.805   5.227  0.5318 -1.6475 -0.4226
11147TIP3    H254857   4.392   2.844   5.295 -0.3143 -1.0809  0.8899
11148TIP3   OH254858   3.872   2.277   3.131 -0.1967  0.0403  0.6099
11148TIP3    H154859   3.945   2.332   3.101  0.8128 -1.8384 -0.5179
11148TIP3    H254860   3.890   2.264   3.224  0.1331  0.7389  0.6541
11149TIP3   OH254861   6.628   1.945   0.375  0.6997  0.1332 -0.7385
11149TIP3    H154862   6.541   1.984   0.386  1.0359  0.5416  0.6218
11149TIP3    H254863   6.624   1.903   0.289 -0.0618  2.1271 -1.7302
11150TIP3   OH254864   4.395   2.895   4.209  0.0839  0.4806 -0.6541
11150TIP3    H154865   4.387   2.973   4.154 -1.0281 -0.4556 -1.8983
11150TIP3    H254866   4.375   2.926   4.297  0.9523  1.8381 -0.8971
11151TIP3   OH254867   1.270   0.912   4.722  0.0443  0.0813  0.1194
11151TIP3    H154868   1.254   0.973   4.650 -0.6941  0.5506  0.6659
11151TIP3    H254869   1.337   0.955   4.775  1.1643 -0.6147 -0.6709
11152TIP3   OH254870   6.591   3.437   3.505 -0.2023  0.0807 -0.4655
11152TIP3    H154871   6.555   3.349   3.511  0.6940 -0.4101 -1.7861
11152TIP3    H254872   6.638   3.438   3.422  1.4329  1.1796  0.4053
11153TIP3   OH254873   5.468   0.719   0.150  0.2649  0.5453 -0.3311
11153TIP3    H154874   5.516   0.716   0.233  1.2450 -0.3060 -0.9131
11153TIP3    H254875   5.394   0.661   0.163 -0.4145  1.5364  0.4257
11154TIP3   OH254876   2.625   5.769  12.509  0.2848 -0.1856  0.1413
11154TIP3    H154877   2.563   5.812  12.451  1.3328  0.8418 -0.2409
11154TIP3    H254878   2.710   5.782  12.468  1.1844  1.3269  2.3075
11155TIP3   OH254879   1.683   0.177  16.957  0.1487 -0.1241 -0.3201
11155TIP3    H154880   1.628   0.255  16.953  0.4396  0.1350  0.6093
11155TIP3    H254881   1.773   0.210  16.956  0.2766 -0.3854  0.7631
11156TIP3   OH254882   4.173   0.347  16.719  0.0817  0.0928 -0.2033
11156TIP3    H154883   4.243   0.406  16.690  2.6743 -1.6429  2.0374
11156TIP3    H254884   4.166   0.362  16.813 -0.9214 -1.4524  0.0015
11157TIP3   OH254885   4.608   5.920   4.858  0.2525 -0.0325  0.2698
11157TIP3    H154886   4.696   5.929   4.895  0.9568  1.9306 -1.7177
11157TIP3    H254887   4.621   5.872   4.776 -0.5121  0.3320 -0.0734
11158TIP3   OH254888   0.407   4.784   1.941 -0.1171 -0.3075 -0.4934
11158TIP3    H154889   0.430   4.870   1.905  0.1502 -0.3010 -0.3167
11158TIP3    H254890   0.415   4.795   2.036  3.0207 -1.3374 -0.5168
11159TIP3   OH254891   6.479   5.332   4.811 -0.7358 -0.5051  0.5322
11159TIP3    H154892   6.452   5.424   4.814 -0.4920 -0.4489  1.9373
11159TIP3    H254893   6.527   5.319   4.893  1.3383 -1.2677 -0.7324
11160TIP3   OH254894   3.790   6.244  10.851 -0.0783 -0.2483  0.3035
11160TIP3    H154895   3.770   6.199  10.769 -0.5176  0.7657 -0.1571
11160TIP3    H254896   3.838   6.323  10.824 -0.1193  0.0344  1.0337
11161TIP3   OH254897   1.780   2.268  15.130  0.8027  0.1429 -0.1349
11161TIP3    H154898   1.781   2.218  15.048  0.0205  1.4967 -1.0114
11161TIP3    H254899   1.872   2.291  15.145  1.1652 -1.4724  0.2548
11162TIP3   OH254900   1.656   0.575   3.218 -0.1748  0.0551  0.1088
11162TIP3    H154901   1.678   0.650   3.274 -0.3666  0.9539 -0.9852
11162TIP3    H254902   1.666   0.499   3.275  1.8107  0.7387  0.7734
11163TIP3   OH254903   5.709   3.651  12.651 -0.1195 -0.5120  0.5230
11163TIP3    H154904   5.633   3.672  12.706 -1.9575 -1.7407 -1.4139
11163TIP3    H254905   5.754   3.735  12.641 -1.3135  0.3042  1.5870
11164TIP3   OH254906   6.688   2.047   2.530  0.1223  0.6319  0.1786
11164TIP3    H154907   6.652   2.031   2.443 -2.1842 -0.4942  1.2694
11164TIP3    H254908   6.752   1.977   2.543 -0.0612  0.3700 -0.3136
11165TIP3   OH254909   0.186   3.786  10.338 -0.2994 -0.8501  0.5760
11165TIP3    H154910   0.225   3.741  10.263  1.4024  1.6041 -0.1012
11165TIP3    H254911   0.260   3.825  10.385 -1.6545  1.1437  1.1729
11166TIP3   OH254912   0.987   3.798  12.145 -0.1014  0.7446 -0.7102
11166TIP3    H154913   0.981   3.864  12.214  0.1800 -0.3773  0.4180
11166TIP3    H254914   0.919   3.734  12.167 -0.4813  0.7164 -1.8831
11167TIP3   OH254915   2.570   1.064   5.139 -0.2591 -0.4607 -0.2599
11167TIP3    H154916   2.661   1.093   5.152 -0.0419 -1.4573  0.5906
11167TIP3    H254917   2.565   1.044   5.045 -0.0815  1.1370 -0.6267
11168TIP3   OH254918   6.393   0.030  16.170  0.4323 -0.1589  0.7812
11168TIP3    H154919   6.443  -0.032  16.223  0.4493 -1.0638 -0.2584
11168TIP3    H254920   6.302   0.015  16.196  0.6588  1.8110  3.0107
11169TIP3   OH254921   5.505   6.257   1.691  0.4771  0.0613 -0.0572
11169TIP3    H154922   5.514   6.332   1.749  3.0330 -0.2976  0.1288
11169TIP3    H254923   5.463   6.190   1.744 -1.7708  1.2625 -0.2042
11170TIP3   OH254924   6.513   2.077   6.232  0.6638  0.3787  0.2846
11170TIP3    H154925   6.604   2.060   6.210 -0.0872 -1.2703 -1.8843
11170TIP3    H254926   6.477   1.990   6.250 -0.6221  0.9388  0.4975
11171TIP3   OH254927   5.283   0.163  11.630 -0.1879 -0.4558 -0.3746
11171TIP3    H154928   5.214   0.113  11.586 -0.7347 -1.0529  1.1309
11171TIP3    H254929   5.237   0.234  11.675  0.1814 -0.7512  0.4892
11172TIP3   OH254930   4.913   1.448   4.098 -0.3385  0.3365 -0.2208
11172TIP3    H154931   4.943   1.534   4.126  0.2276  0.4563 -1.1563
11172TIP3    H254932   4.859   1.416   4.171  0.1049  1.1341  0.4677
11173TIP3   OH254933   6.819   4.466   5.801 -0.3814  0.1936 -0.2382
11173TIP3    H154934   6.878   4.431   5.734  1.1067 -0.2360  1.2244
11173TIP3    H254935   6.862   4.546   5.832 -1.9577  1.4168 -1.0047
11174TIP3   OH254936   5.759   1.295   0.874 -0.5380 -0.5843 -0.5264
11174TIP3    H154937   5.852   1.278   0.860  0.5477  2.3640  1.8578
11174TIP3    H254938   5.732   1.230   0.939  0.5740  0.0106  0.5722
11175TIP3   OH254939   6.261   6.570  12.510  0.5576  0.3240 -0.1967
11175TIP3    H154940   6.336   6.511  12.517  0.1902 -0.0264  1.0864
11175TIP3    H254941   6.205   6.529  12.445 -1.5290 -3.0039  3.2355
11176TIP3   OH254942   5.672   6.348   4.912  0.2061 -0.5626 -0.1145
11176TIP3    H154943   5.592   6.336   4.963 -0.2041  0.8258 -0.3682
11176TIP3    H254944   5.714   6.425   4.950  1.0798 -0.8721 -0.4192
11177TIP3   OH254945   2.481   6.502   0.602  0.1592 -0.5041 -0.0490
11177TIP3    H154946   2.543   6.431   0.582  0.2024  0.1482 -2.6114
11177TIP3    H254947   2.419   6.500   0.530 -0.5966  1.2471  0.5097
11178TIP3   OH254948   5.863   1.221  12.399 -0.3836  0.1537 -0.0593
11178TIP3    H154949   5.905   1.177  12.474  0.3861 -0.1996 -0.6819
11178TIP3    H254950   5.924   1.290  12.375  1.7814 -2.5075 -3.1967
11179TIP3   OH254951   4.275   3.497   0.231 -0.7692 -0.6831 -1.0389
11179TIP3    H154952   4.208   3.565   0.238 -1.2564 -1.1045 -1.4589
11179TIP3    H254953   4.312   3.490   0.319 -1.5472 -0.7047 -0.7006
11180TIP3   OH254954   2.096   2.298  11.571  0.1988  0.0837 -0.1420
11180TIP3    H154955   2.133   2.247  11.499  0.3505  1.3497 -0.9822
11180TIP3    H254956   2.160   2.366  11.589 -0.2230  0.2908  0.6313
11181TIP3   OH254957   2.612   3.962   4.086 -0.0596 -0.0624  0.6647
11181TIP3    H154958   2.671   4.016   4.138  0.3817  1.2250 -1.1076
11181TIP3    H254959   2.570   4.023   4.025 -2.8441 -0.9983  1.4568
11182TIP3   OH254960   0.134   3.251  13.341 -0.0694  0.1253 -0.3952
11182TIP3    H154961   0.164   3.281  13.427 -1.0988 -0.2596  0.1072
11182TIP3    H254962   0.053   3.203  13.359  1.3865 -2.8493 -1.1534
11183TIP3   OH254963   3.672   6.211  13.040  0.5058  0.0195 -0.3225
11183TIP3    H154964   3.631   6.221  13.126  0.3956 -0.6646 -0.2866
11183TIP3    H254965   3.601   6.181  12.983  0.4298  1.0808 -0.8094
11184TIP3   OH254966   2.415   6.738  14.851  0.4230  0.4630  0.4945
11184TIP3    H154967   2.345   6.797  14.824  0.8578  0.5636 -0.4549
11184TIP3    H254968   2.413   6.741  14.946 -1.1659  0.1053  0.5081
11185TIP3   OH254969   0.342   4.194  13.543  0.1131  0.3719  0.1088
11185TIP3    H154970   0.321   4.199  13.449  1.9395 -1.3341 -0.4683
11185TIP3    H254971   0.400   4.118  13.550 -0.3929  0.1473  2.7344
11186TIP3   OH254972   4.524   4.372  12.676  0.2322 -0.4163 -0.2100
11186TIP3    H154973   4.448   4.395  12.729  1.7692  1.2990  1.4229
11186TIP3    H254974   4.545   4.452  12.628  0.7139 -1.0258 -1.0513
11187TIP3   OH254975   3.393   1.903   4.144  0.1604 -0.0869  0.3175
11187TIP3    H154976   3.345   1.975   4.104  1.5901 -0.2253 -1.8320
11187TIP3    H254977   3.326   1.839   4.166 -1.0592  1.5287  1.5938
11188TIP3   OH254978   1.065   1.174   5.691  0.2907 -0.2066  0.1587
11188TIP3    H154979   1.052   1.208   5.602 -2.1718  1.1925  0.9378
11188TIP3    H254980   1.039   1.246   5.748 -3.1141 -2.5423  1.9381
11189TIP3   OH254981   3.795   6.063  12.048  0.0637 -0.3586 -0.4124
11189TIP3    H154982   3.806   5.987  11.991 -0.0379 -0.1426 -0.7247
11189TIP3    H254983   3.882   6.080  12.084  0.6169  0.7698 -2.1323
11190TIP3   OH254984   5.554   1.392  16.396  0.1383 -0.5761 -0.2181
11190TIP3    H154985   5.577   1.412  16.487 -1.0046  1.8235 -0.3867
11190TIP3    H254986   5.476   1.444  16.379  0.4288 -0.8430 -2.6477
11191TIP3   OH254987   2.508   5.156  13.956  0.1851  0.2621  0.0352
11191TIP3    H154988   2.438   5.190  14.011 -0.8192 -0.3677 -0.8060
11191TIP3    H254989   2.542   5.233  13.909  0.8145  0.7408  1.2329
11192TIP3   OH254990   1.392   5.804  14.560 -0.0326  0.1450  0.0386
11192TIP3    H154991   1.396   5.873  14.493 -0.5574 -0.0923 -0.2512
11192TIP3    H254992   1.371   5.725  14.511  1.5833 -0.4404  0.2356
11193TIP3   OH254993   4.226   3.058   3.559 -0.0640  0.4127  0.5313
11193TIP3    H154994   4.319   3.038   3.553  0.1166  1.2069  0.5815
11193TIP3    H254995   4.212   3.130   3.497 -1.4280 -2.2285 -2.4657
11194TIP3   OH254996   2.601   4.797  16.938 -0.3581 -0.2301  0.1845
11194TIP3    H154997   2.564   4.878  16.972 -1.4636 -0.1954 -1.0240
11194TIP3    H254998   2.686   4.823  16.901 -1.5906  0.8608 -2.0847
11195TIP3   OH254999   6.152   4.040  10.403 -0.1258  0.4456 -0.3722
11195TIP3    H155000   6.241   4.074  10.391 -0.0746  0.3641 -0.2235
11195TIP3    H255001   6.110   4.052  10.318  0.6443 -1.3220 -1.0568
11196TIP3   OH255002   0.655   3.314   0.435 -0.0987 -0.1456  0.2230
11196TIP3    H155003   0.683   3.237   0.387  0.6690  0.2494  0.0223
11196TIP3    H255004   0.729   3.375   0.429 -1.0120  0.9441 -0.3573
11197TIP3   OH255005   4.122   2.009  15.114  0.7598  0.0824  0.2650
11197TIP3    H155006   4.156   1.961  15.189 -0.8902 -0.2258  0.8634
11197TIP3    H255007   4.027   2.007  15.125  0.5645  4.0356  0.7243
11198TIP3   OH255008   2.648   6.518  13.398 -0.2351 -0.0398  0.3266
11198TIP3    H155009   2.670   6.559  13.314  0.3902 -1.1370 -0.0833
11198TIP3    H255010   2.726   6.530  13.452 -0.6199  0.6252  0.7389
11199TIP3   OH255011   3.488   4.358  15.078 -0.2259 -0.5165 -0.4040
11199TIP3    H155012   3.518   4.382  14.991  1.8610 -4.3686 -0.9778
11199TIP3    H255013   3.563   4.376  15.135 -0.8231 -0.0247  0.2522
11200TIP3   OH255014   1.107   0.281  11.745 -0.4990 -0.3252  0.3823
11200TIP3    H155015   1.067   0.313  11.825  3.3957 -2.7123  3.6315
11200TIP3    H255016   1.080   0.190  11.739  0.3950 -0.5719 -0.1955
11201TIP3   OH255017   4.016   0.594   0.906  0.0338 -0.1988  0.5371
11201TIP3    H155018   4.005   0.525   0.971 -2.1203  1.0368  1.5676
11201TIP3    H255019   3.943   0.654   0.921  0.4449  1.0509 -1.9102
11202TIP3   OH255020   1.850   4.844   1.674  0.2058  0.4820  0.0495
11202TIP3    H155021   1.886   4.761   1.644  0.5235 -0.3083  2.4319
11202TIP3    H255022   1.762   4.847   1.636  1.2868  0.6333 -2.6599
11203TIP3   OH255023   5.577   2.858  11.357  0.0577  0.3220 -0.1643
11203TIP3    H155024   5.660   2.831  11.397 -0.0865 -0.1989 -0.2189
11203TIP3    H255025   5.511   2.841  11.423  0.0003  0.8164 -0.0909
11204TIP3   OH255026   2.989   3.250   5.417  0.1568 -0.5986 -0.3045
11204TIP3    H155027   2.961   3.258   5.509 -0.7144 -0.3328 -0.5886
11204TIP3    H255028   3.062   3.188   5.420 -1.9892 -3.2596  0.1545
11205TIP3   OH255029   0.089   5.332   0.890  0.0953 -0.2126 -0.2018
11205TIP3    H155030   0.109   5.379   0.810 -0.8855  1.5592  0.5246
11205TIP3    H255031   0.162   5.350   0.948  0.5913 -1.1247 -0.5302
11206TIP3   OH255032   6.199   4.455   3.087 -0.0537 -0.2654  0.2077
11206TIP3    H155033   6.118   4.477   3.131 -0.8940 -0.9351 -0.9277
11206TIP3    H255034   6.198   4.359   3.082  1.0127 -0.3047  0.5448
11207TIP3   OH255035   5.426   3.759  10.086  0.0120  0.3940 -0.1075
11207TIP3    H155036   5.449   3.846  10.120 -0.8872  0.0243  1.5607
11207TIP3    H255037   5.357   3.728  10.145 -2.5344  0.1563 -3.0068
11208TIP3   OH255038   1.074   3.837  15.452 -0.3854  0.1605  0.2125
11208TIP3    H155039   1.042   3.921  15.421  1.3126  0.5533 -0.5849
11208TIP3    H255040   1.067   3.779  15.376 -0.2506 -0.0426  0.3528
11209TIP3   OH255041   5.380   5.026   4.660  0.6597  0.6433  0.0298
11209TIP3    H155042   5.326   5.104   4.646  0.2042  0.3501  0.1593
11209TIP3    H255043   5.432   5.048   4.738 -1.7221 -0.3505  2.0588
11210TIP3   OH255044   1.493   4.378   3.840  0.7726  0.1478  0.1876
11210TIP3    H155045   1.535   4.371   3.926 -1.0699  0.6005  1.1875
11210TIP3    H255046   1.566   4.388   3.778  2.1162  0.7491  1.7896
11211TIP3   OH255047   4.666   2.090  14.051  0.3137  0.0279  0.4300
11211TIP3    H155048   4.677   1.995  14.049 -1.6406 -0.2246 -0.5892
11211TIP3    H255049   4.572   2.103  14.043  0.6018  2.0719 -0.1343
11212TIP3   OH255050   2.613   2.931   4.294 -0.5857 -0.1820 -0.2615
11212TIP3    H155051   2.673   2.922   4.368  0.9337  1.9172 -1.1231
11212TIP3    H255052   2.650   2.876   4.226 -0.1418  0.3656 -0.4748
11213TIP3   OH255053   1.785   1.929  14.330  0.2947 -0.0630  0.3724
11213TIP3    H155054   1.866   1.961  14.290  0.3348 -1.4712 -0.7724
11213TIP3    H255055   1.800   1.835  14.341 -0.7716 -0.1459  1.1881
11214TIP3   OH255056   6.113   1.625   1.934 -0.5888 -0.1800 -0.6287
11214TIP3    H155057   6.182   1.675   1.978  1.2106 -2.9646 -0.0908
11214TIP3    H255058   6.041   1.623   1.997  0.7256 -1.3260  0.9199
11215TIP3   OH255059   5.701   4.409  13.662 -0.1367  0.9170 -0.3344
11215TIP3    H155060   5.674   4.486  13.612  2.0744  2.0150  0.0782
11215TIP3    H255061   5.682   4.432  13.753  1.0523  1.2432 -0.1530
11216TIP3   OH255062   3.477   5.308   1.629  0.3471 -0.2531  0.0014
11216TIP3    H155063   3.555   5.289   1.682  1.2051  0.8948 -0.8012
11216TIP3    H255064   3.498   5.274   1.542  0.1091  0.3619 -0.3047
11217TIP3   OH255065   6.143   0.542  11.054 -0.6130  0.7024 -0.0629
11217TIP3    H155066   6.049   0.536  11.069 -0.4161 -0.0787  1.0158
11217TIP3    H255067   6.153   0.610  10.988 -1.9346  0.7390 -0.2501
11218TIP3   OH255068   6.183   6.462  16.741  0.2545 -0.5249  0.1719
11218TIP3    H155069   6.222   6.383  16.703  0.6168 -1.0230  1.5304
11218TIP3    H255070   6.197   6.529  16.674  1.7076 -1.1477 -0.2030
11219TIP3   OH255071   0.757   2.236  11.141 -0.2937  0.0344  0.1935
11219TIP3    H155072   0.676   2.188  11.125  0.1015 -1.2465  1.6999
11219TIP3    H255073   0.763   2.299  11.070 -2.5213  0.0523 -0.0372
11220TIP3   OH255074   3.328   6.435   3.276  0.0647  0.1155 -0.0544
11220TIP3    H155075   3.285   6.430   3.191  1.8920  0.2060 -1.0355
11220TIP3    H255076   3.311   6.524   3.306 -1.3227 -0.1874  0.0953
11221TIP3   OH255077   2.977   2.945   3.726  0.2502  0.2623 -0.2211
11221TIP3    H155078   2.948   2.948   3.817 -0.6423  0.7093 -0.5076
11221TIP3    H255079   2.902   2.910   3.678  1.5250 -2.3277 -0.4921
11222TIP3   OH255080   1.334   3.911   1.418 -0.2137  0.7962  0.0386
11222TIP3    H155081   1.302   3.989   1.370 -1.8202  0.3331  0.2863
11222TIP3    H255082   1.369   3.855   1.350  0.7454  1.6267 -0.1751
11223TIP3   OH255083   4.606   1.494  14.383  1.0169  0.6884 -0.3874
11223TIP3    H155084   4.587   1.585  14.405  0.6692  0.4675  0.2622
11223TIP3    H255085   4.532   1.445  14.420  1.3548  0.1165 -0.4644
11224TIP3   OH255086   2.103   5.723   0.363 -0.2866 -0.2507  0.5035
11224TIP3    H155087   2.118   5.685   0.449  1.0186 -1.8966 -0.4003
11224TIP3    H255088   2.038   5.666   0.322 -0.9003  0.5236  0.3580
11225TIP3   OH255089   2.791   5.755  15.901  0.2009  0.3414 -0.3363
11225TIP3    H155090   2.847   5.833  15.894  1.4287 -0.6184 -1.7266
11225TIP3    H255091   2.720   5.782  15.959  1.4275  2.0073  0.4691
11226TIP3   OH255092   0.509   1.531  10.433 -0.1825  0.2053 -0.0759
11226TIP3    H155093   0.462   1.524  10.517 -0.4267  0.9520 -0.1432
11226TIP3    H255094   0.600   1.543  10.457 -0.0264 -1.0639  0.0592
11227TIP3   OH255095   1.864   0.727   1.209 -0.1979  0.0679 -0.3681
11227TIP3    H155096   1.945   0.760   1.171 -0.8604  0.5452 -1.3846
11227TIP3    H255097   1.889   0.704   1.299  0.7425  1.5304 -0.2081
11228TIP3   OH255098   0.167   6.499   0.397 -0.3170  0.0975  0.6370
11228TIP3    H155099   0.077   6.515   0.426 -0.3125  0.8753  0.2359
11228TIP3    H255100   0.157   6.460   0.310 -0.3055 -1.5336  1.3200
11229TIP3   OH255101   0.943   0.546  11.039 -0.2837 -0.1351  0.3434
11229TIP3    H155102   0.880   0.493  11.087  0.4578 -3.4674 -2.0202
11229TIP3    H255103   1.024   0.539  11.090 -0.8359  1.0642  1.4380
11230TIP3   OH255104   6.380   0.245   0.287 -0.0094  0.6584 -0.3980
11230TIP3    H155105   6.415   0.181   0.226 -0.6832 -0.3586  0.2571
11230TIP3    H255106   6.437   0.321   0.277  0.0743  0.4196 -2.0649
11231TIP3   OH255107   4.049   2.699  16.952 -0.2647 -0.1682  0.4321
11231TIP3    H155108   3.967   2.651  16.945  0.1071 -0.7644  0.1422
11231TIP3    H255109   4.041   2.771  16.889  0.8035 -2.2208 -2.2412
11232TIP3   OH255110   6.416   0.343  14.306  0.6071  0.1463 -0.1365
11232TIP3    H155111   6.463   0.425  14.321  1.6564 -0.5272  0.3719
11232TIP3    H255112   6.471   0.276  14.347 -0.8304 -0.6682  0.5193
11233TIP3   OH255113   6.674   6.573   4.816  0.2947 -0.6111 -0.5031
11233TIP3    H155114   6.766   6.577   4.841  0.6769  1.3447 -1.9738
11233TIP3    H255115   6.675   6.531   4.730  0.0851  1.1112 -1.3966
11234TIP3   OH255116   0.553   0.424  14.260  0.1052  0.2084  0.4049
11234TIP3    H155117   0.645   0.442  14.280  0.3348 -0.8295  0.3836
11234TIP3    H255118   0.513   0.404  14.345 -0.2294  1.1478  0.4783
11235TIP3   OH255119   3.719   5.311  12.212 -0.0707 -0.5143 -0.0741
11235TIP3    H155120   3.657   5.379  12.183 -1.5599 -1.9039 -0.2672
11235TIP3    H255121   3.723   5.322  12.307  1.3966  1.1990 -0.2758
11236TIP3   OH255122   5.363   5.575  12.761  0.1822 -0.0230 -0.3982
11236TIP3    H155123   5.405   5.631  12.696 -1.4302  0.4713 -1.0734
11236TIP3    H255124   5.400   5.488  12.746  0.0360  0.1386 -1.8303
11237TIP3   OH255125   5.820   4.997   3.807 -0.2682 -0.4545  0.1372
11237TIP3    H155126   5.815   4.984   3.712  1.1999 -1.6906  0.2040
11237TIP3    H255127   5.729   5.015   3.833 -0.8255 -0.9205 -1.3735
11238TIP3   OH255128   5.690   6.513   6.036 -0.7774 -0.1793 -0.9766
11238TIP3    H155129   5.775   6.557   6.039 -0.4619 -0.8179 -0.4003
11238TIP3    H255130   5.710   6.421   6.024 -1.3503 -0.4701  0.2130
11239TIP3   OH255131   2.092   6.317   0.392 -0.6465 -0.0723  0.4950
11239TIP3    H155132   2.127   6.251   0.452  1.0037  0.6991  0.4471
11239TIP3    H255133   2.001   6.291   0.379 -0.1750 -2.0833  0.8053
11240TIP3   OH255134   3.839   1.836  17.077  1.0141 -0.3533  0.0090
11240TIP3    H155135   3.818   1.792  16.995  0.4592  2.2068 -1.3508
11240TIP3    H255136   3.911   1.895  17.055  0.9059  0.3401  1.3901
11241TIP3   OH255137   1.634   1.215  16.068  0.6724 -0.5274  0.7217
11241TIP3    H155138   1.644   1.223  16.163 -0.2053  0.5269  0.7503
11241TIP3    H255139   1.667   1.298  16.034  0.1118 -0.5208  0.1867
11242TIP3   OH255140   2.894   6.116  15.693  0.3303  0.3098  0.3699
11242TIP3    H155141   2.923   6.091  15.605 -2.4940 -0.8164 -0.3484
11242TIP3    H255142   2.904   6.037  15.745  1.2875  0.7655  0.8995
11243TIP3   OH255143   6.114   0.652   0.838 -0.0816 -0.1555  0.2318
11243TIP3    H155144   6.133   0.630   0.747  1.9604  0.8130  0.3723
11243TIP3    H255145   6.033   0.703   0.833 -0.1122 -0.2848 -1.0278
11244TIP3   OH255146   5.835   4.123  11.271 -0.1369 -0.3121 -0.0995
11244TIP3    H155147   5.820   4.176  11.193 -1.8042 -0.4476  0.0767
11244TIP3    H255148   5.929   4.104  11.271  0.4704  2.3624 -0.3167
11245TIP3   OH255149   0.684   1.333  10.957  0.3639  1.0559 -0.0968
11245TIP3    H155150   0.750   1.402  10.956 -0.6457  2.0509 -0.6523
11245TIP3    H255151   0.670   1.312  10.865  1.3404 -0.5939  0.1020
11246TIP3   OH255152   2.245   2.689  15.596  0.5209  0.1340  0.1755
11246TIP3    H155153   2.270   2.779  15.579  0.4791  0.0200 -0.5475
11246TIP3    H255154   2.305   2.659  15.664  0.1093  0.8955  0.8863
11247TIP3   OH255155   5.203   3.239   4.335 -0.4377 -0.2004  0.5916
11247TIP3    H155156   5.163   3.169   4.282  2.8580 -1.6536 -0.2254
11247TIP3    H255157   5.182   3.319   4.288 -0.0740 -1.1719 -1.3564
11248TIP3   OH255158   1.692   1.634   4.143  0.5992  0.2760  0.2174
11248TIP3    H155159   1.675   1.552   4.190 -0.9271  0.4280 -0.0088
11248TIP3    H255160   1.706   1.699   4.212 -2.3888  0.6591  0.6039
11249TIP3   OH255161   0.021   4.773   4.434  0.0448 -0.1729  0.3465
11249TIP3    H155162   0.085   4.704   4.414  1.8702  1.9200 -1.6965
11249TIP3    H255163  -0.062   4.738   4.404  0.6767 -1.8975  0.4431
11250TIP3   OH255164   0.003   0.456   1.181 -0.3256 -0.0277 -0.7212
11250TIP3    H155165   0.086   0.408   1.176 -0.0740  0.2001  0.8554
11250TIP3    H255166  -0.027   0.460   1.090  0.3841 -1.8601 -1.0969
11251TIP3   OH255167   0.214   5.423  15.360  0.0782  0.7015  0.3756
11251TIP3    H155168   0.215   5.336  15.400 -0.8468  0.8893  0.8468
11251TIP3    H255169   0.144   5.469  15.406  0.6644  1.7531  0.2478
11252TIP3   OH255170   5.207   5.050  14.106 -0.5725  0.2026 -0.3993
11252TIP3    H155171   5.133   5.108  14.125 -0.6545  0.1661 -0.6118
11252TIP3    H255172   5.266   5.103  14.054 -0.4397  0.2366 -0.2169
11253TIP3   OH255173   6.436   2.111   0.483  0.2868 -0.6983  0.5665
11253TIP3    H155174   6.487   2.192   0.485  0.4853 -0.7796 -0.6712
11253TIP3    H255175   6.473   2.059   0.554  0.2148  0.2514  1.3270
11254TIP3   OH255176   4.792   0.300  12.219  0.4840  0.1614 -0.3437
11254TIP3    H155177   4.727   0.233  12.240 -0.5960  0.5898 -2.1297
11254TIP3    H255178   4.742   0.381  12.216  1.2649  0.6329 -0.9165
11255TIP3   OH255179   3.409   0.624  11.629 -0.3087 -0.2691 -0.0792
11255TIP3    H155180   3.378   0.680  11.558  2.1190  1.1683 -0.1251
11255TIP3    H255181   3.372   0.538  11.610 -2.1831  0.7601 -1.3646
11256TIP3   OH255182   3.352   0.955  14.215 -0.0523  0.2443 -0.2008
11256TIP3    H155183   3.264   0.981  14.186  0.7857  2.3096 -1.0385
11256TIP3    H255184   3.390   0.911  14.140  0.4305  1.3980 -0.6471
11257TIP3   OH255185   5.398   4.368  15.989 -0.1179 -0.1719 -0.0649
11257TIP3    H155186   5.471   4.430  15.993 -1.0263  1.0094 -1.2337
11257TIP3    H255187   5.336   4.407  15.928 -0.8201 -2.1425 -0.6786
11258TIP3   OH255188   5.623   3.211  16.623  0.3501  0.2802  0.5402
11258TIP3    H155189   5.592   3.213  16.532  0.7890  1.4203  0.3996
11258TIP3    H255190   5.549   3.177  16.672 -0.2815  0.6650 -0.1160
11259TIP3   OH255191   2.538   6.348  12.174 -0.0655 -0.3424  0.0391
11259TIP3    H155192   2.616   6.394  12.202 -0.6563  1.2837 -0.9000
11259TIP3    H255193   2.485   6.340  12.254  0.0129  0.6732  0.1972
11260TIP3   OH255194   2.130   6.083   3.549  0.0256 -0.0667 -0.1859
11260TIP3    H155195   2.144   6.120   3.637  1.0571  0.9054 -0.7341
11260TIP3    H255196   2.045   6.116   3.522  0.0798  0.3224  0.1112
11261TIP3   OH255197   2.710   0.304   4.978 -0.7509  0.0492  0.7855
11261TIP3    H155198   2.716   0.320   4.884  0.5746  0.5049  0.9227
11261TIP3    H255199   2.801   0.290   5.006 -1.3159 -2.7374  1.5672
11262TIP3   OH255200   5.657   3.872   5.858 -0.1678 -0.0609 -0.5896
11262TIP3    H155201   5.597   3.845   5.928  0.5504  0.0121  0.0737
11262TIP3    H255202   5.728   3.808   5.861  0.3526  0.5007 -0.6065
11263TIP3   OH255203   5.136   6.448   2.165  0.6705 -0.4881 -0.1542
11263TIP3    H155204   5.042   6.467   2.167  0.6500 -0.2388 -1.8941
11263TIP3    H255205   5.178   6.534   2.159  1.0420 -0.5857  0.8171
11264TIP3   OH255206   0.156   6.265   2.546 -0.1049  0.0385 -0.1382
11264TIP3    H155207   0.165   6.304   2.459 -2.3113  0.0863 -0.4023
11264TIP3    H255208   0.093   6.322   2.591  0.7351 -0.1852  1.3866
11265TIP3   OH255209   5.174   2.491   2.393 -0.4129 -0.3040 -0.4735
11265TIP3    H155210   5.173   2.562   2.457 -1.9904  0.0885 -0.8976
11265TIP3    H255211   5.121   2.523   2.320 -1.3919 -1.9961 -0.5662
11266TIP3   OH255212   4.704   2.229   6.076  0.3436  0.0420  0.3784
11266TIP3    H155213   4.686   2.184   6.158 -0.4107 -0.2004  0.0873
11266TIP3    H255214   4.676   2.319   6.090  2.3959  0.6096  1.1597
11267TIP3   OH255215   0.229   6.818  13.875  0.4410  0.4122  0.6124
11267TIP3    H155216   0.310   6.830  13.825  1.9889 -3.0164  1.9429
11267TIP3    H255217   0.245   6.863  13.958 -0.1858  1.9955 -0.0800
11268TIP3   OH255218   2.191   0.696  12.236  0.5522 -0.1945  0.6864
11268TIP3    H155219   2.238   0.614  12.221  0.6388 -0.0013 -0.1550
11268TIP3    H255220   2.237   0.737  12.309  0.4032 -0.9690  1.2249
11269TIP3   OH255221   0.443   6.605   4.907 -0.3162 -0.0432  0.1073
11269TIP3    H155222   0.471   6.515   4.890 -0.4792 -0.2050  0.6950
11269TIP3    H255223   0.464   6.652   4.826 -0.0319 -0.5602 -0.1226
11270TIP3   OH255224   4.304   6.403   3.769 -0.0097 -0.5135 -0.0317
11270TIP3    H155225   4.246   6.337   3.730  0.1388 -0.4885 -0.2957
11270TIP3    H255226   4.248   6.451   3.830 -0.5033  0.1078 -0.9595
11271TIP3   OH255227   2.906   5.237  16.970  0.2383 -0.3714 -0.3711
11271TIP3    H155228   2.970   5.184  17.018 -0.8671 -2.1713 -0.7757
11271TIP3    H255229   2.845   5.267  17.038  1.3727  1.2349 -0.0059
11272TIP3   OH255230   5.416   3.224  12.889  0.4581  0.6231 -0.3818
11272TIP3    H155231   5.497   3.173  12.880 -0.3421 -0.8399  0.2199
11272TIP3    H255232   5.370   3.210  12.806  0.2646  0.3870 -0.2382
11273TIP3   OH255233   4.669   1.517   2.484  0.1081 -0.4188 -0.1363
11273TIP3    H155234   4.710   1.558   2.408 -1.6133 -0.1097 -0.9546
11273TIP3    H255235   4.704   1.427   2.484 -0.9339 -0.8949 -2.2234
11274TIP3   OH255236   1.924   0.407  14.711  0.6672 -0.8499  0.1515
11274TIP3    H155237   1.962   0.485  14.671 -0.9623  0.0218  0.2220
11274TIP3    H255238   1.995   0.370  14.764  1.1669  1.2315  1.0203
11275TIP3   OH255239   0.675   0.935  14.203  0.1705 -0.8581  0.7165
11275TIP3    H155240   0.665   1.030  14.202 -1.7668 -1.0208 -0.1480
11275TIP3    H255241   0.757   0.920  14.249  0.3653  1.2135  1.1457
11276TIP3   OH255242   4.064   2.704  12.538  0.1087  0.1589 -0.2611
11276TIP3    H155243   3.982   2.675  12.497  0.5694 -0.5093 -0.7381
11276TIP3    H255244   4.131   2.648  12.499  0.4915 -0.9898  1.8834
11277TIP3   OH255245   2.543   6.793  15.965  0.1684 -0.1286  0.2053
11277TIP3    H155246   2.552   6.770  15.872  0.1158  1.2471 -0.1737
11277TIP3    H255247   2.464   6.747  15.993  0.1278 -0.4817 -0.4647
11278TIP3   OH255248   4.349   5.723   4.044  0.3004  0.0473 -0.2550
11278TIP3    H155249   4.301   5.713   4.127  1.2693 -0.2617  0.2902
11278TIP3    H255250   4.420   5.784   4.065  0.0041  0.7136 -1.1204
11279TIP3   OH255251   6.727   2.240   5.194  0.4908  0.1241 -0.0092
11279TIP3    H155252   6.637   2.216   5.218  0.5700 -1.2752 -1.0197
11279TIP3    H255253   6.770   2.254   5.278 -1.0753  2.6091  0.5035
11280TIP3   OH255254   2.533   0.897  11.331 -0.1224 -0.0296 -0.1295
11280TIP3    H155255   2.586   0.963  11.376  0.3290 -1.1185  0.9803
11280TIP3    H255256   2.447   0.904  11.371  0.2322 -0.8760  0.8280
11281TIP3   OH255257   0.616   3.528  12.337 -0.0314  0.1202  0.4284
11281TIP3    H155258   0.527   3.564  12.337 -0.9417 -1.9718  0.5229
11281TIP3    H255259   0.604   3.434  12.321  2.2818 -0.0041 -1.0786
11282TIP3   OH255260   5.021   1.466  15.767 -0.9468 -0.1697 -0.7262
11282TIP3    H155261   5.003   1.372  15.761  0.0165 -0.5097  0.8517
11282TIP3    H255262   5.084   1.483  15.696 -0.1106 -1.0264 -0.2212
11283TIP3   OH255263   2.599   4.974   5.075 -0.3419  0.0137 -0.5077
11283TIP3    H155264   2.685   5.012   5.091  0.1271 -1.6260  1.4002
11283TIP3    H255265   2.600   4.947   4.983  2.8076 -3.4845  0.2976
11284TIP3   OH255266   3.323   0.012   5.314  0.2553 -0.4576 -0.1198
11284TIP3    H155267   3.310  -0.039   5.395  0.4932 -2.8097 -1.4658
11284TIP3    H255268   3.401  -0.026   5.274  0.6531  1.2557 -1.0682
11285TIP3   OH255269   0.255   0.840  13.735  0.2920 -0.1538 -0.0438
11285TIP3    H155270   0.251   0.796  13.650  2.3304 -2.0344  0.7548
11285TIP3    H255271   0.323   0.794  13.783  0.2090  1.8021  2.1154
11286TIP3   OH255272   3.330   0.121   3.979  0.3011 -0.3681 -0.3445
11286TIP3    H155273   3.284   0.059   3.922  0.9525 -0.7613 -0.4602
11286TIP3    H255274   3.410   0.142   3.932 -0.3687  1.3949 -0.7804
11287TIP3   OH255275   2.335   3.945   5.449  0.2219  0.7381  0.0051
11287TIP3    H155276   2.312   4.008   5.517  2.5907  0.6976  0.9456
11287TIP3    H255277   2.421   3.974   5.418  0.7861 -1.2584 -0.4484
11288TIP3   OH255278   5.099   0.190  16.151 -0.2585 -0.0506 -0.5124
11288TIP3    H155279   5.176   0.240  16.125 -0.2973  0.8022  0.8998
11288TIP3    H255280   5.066   0.235  16.229 -2.3117 -0.2636 -1.1799
11289TIP3   OH255281   0.671   1.559   0.066  0.4201  0.0823 -0.1402
11289TIP3    H155282   0.756   1.541   0.106 -0.0956  0.2256  1.0447
11289TIP3    H255283   0.631   1.472   0.057 -0.0109  0.1596  0.9208
11290TIP3   OH255284   1.322   1.532   2.984  0.1304  0.0517  0.1681
11290TIP3    H155285   1.298   1.624   2.976 -0.2848 -0.0124  0.6440
11290TIP3    H255286   1.241   1.488   3.011  0.6136 -0.2668  1.1470
11291TIP3   OH255287   0.845   0.545   4.458  0.0416  0.4420  0.4557
11291TIP3    H155288   0.888   0.619   4.416  2.3091 -1.0082  0.0254
11291TIP3    H255289   0.779   0.516   4.396  0.6263  0.7783 -0.3304
11292TIP3   OH255290   0.203   1.926   2.331  0.2662  0.0074  0.5912
11292TIP3    H155291   0.174   2.014   2.305 -0.4019 -0.5438 -0.5859
11292TIP3    H255292   0.240   1.939   2.418  0.6528  1.5514  0.2343
11293TIP3   OH255293   4.952   3.616  11.369 -0.3454 -0.0341 -0.4749
11293TIP3    H155294   4.985   3.526  11.373  0.2842  0.2209  0.7872
11293TIP3    H255295   5.013   3.662  11.313  0.8688  0.1700  0.9368
11294TIP3   OH255296   3.308   6.482   5.321 -0.2592 -0.2126  0.4340
11294TIP3    H155297   3.325   6.422   5.394 -1.7881  1.5215  2.3246
11294TIP3    H255298   3.231   6.532   5.349  1.4561  3.2702 -0.6249
11295TIP3   OH255299   6.463   2.222  10.440 -0.0338  0.0620 -0.1624
11295TIP3    H155300   6.523   2.263  10.378  1.1631 -1.9255 -0.4081
11295TIP3    H255301   6.509   2.224  10.523 -1.8170  3.1286  0.9135
11296TIP3   OH255302   0.844   3.220  13.697  0.0446 -0.3326 -0.2645
11296TIP3    H155303   0.832   3.310  13.729 -0.0705 -0.6821  0.6988
11296TIP3    H255304   0.799   3.219  13.613 -1.8229 -0.0531  0.6784
11297TIP3   OH255305   2.688   1.785  16.921  0.0861  0.3452 -0.3693
11297TIP3    H155306   2.594   1.788  16.903  0.2166  0.7397 -1.0124
11297TIP3    H255307   2.694   1.777  17.017 -0.6000  0.0090 -0.3503
11298TIP3   OH255308   1.825   5.857  11.332 -0.0804 -1.0613 -0.2135
11298TIP3    H155309   1.829   5.898  11.419  0.3216  0.4175 -0.8935
11298TIP3    H255310   1.916   5.836  11.312 -0.0911 -0.8059 -0.5352
11299TIP3   OH255311   5.781   4.068   5.691  0.2179  0.0024  0.2277
11299TIP3    H155312   5.818   3.993   5.643  1.2842  0.7809 -0.2056
11299TIP3    H255313   5.730   4.028   5.761  1.7417 -1.1448  0.7453
11300TIP3   OH255314   3.958   0.637  15.934  0.0907 -0.0469 -0.0371
11300TIP3    H155315   3.941   0.726  15.902 -2.4218 -0.2927  0.4097
11300TIP3    H255316   3.933   0.640  16.026 -2.1833 -1.7062 -0.5333
11301TIP3   OH255317   4.113   6.092   3.183 -0.3427 -0.4778 -0.1224
11301TIP3    H155318   4.174   6.069   3.113  3.0931  1.5609  1.9111
11301TIP3    H255319   4.031   6.112   3.138  1.0190 -1.3324 -3.2803
11302TIP3   OH255320   0.223   4.984  11.979 -0.2430 -0.3473  1.0508
11302TIP3    H155321   0.158   4.915  11.969  0.1069 -0.6087  0.5594
11302TIP3    H255322   0.183   5.046  12.040 -0.5967 -0.9366  1.4262
11303TIP3   OH255323   3.330   2.068  12.643 -0.2806 -0.6888  0.2026
11303TIP3    H155324   3.256   2.055  12.584  0.7001  1.0176 -1.5312
11303TIP3    H255325   3.400   2.014  12.607  0.3475  0.4101 -0.2735
11304TIP3   OH255326   1.522   4.845  13.971 -0.0690 -0.0994  0.1669
11304TIP3    H155327   1.524   4.877  14.062  3.1384  1.9525 -0.4693
11304TIP3    H255328   1.614   4.839  13.946 -0.6923 -3.9460 -1.9594
11305TIP3   OH255329   3.603   2.046   1.714 -0.4476 -0.1838 -0.5749
11305TIP3    H155330   3.514   2.035   1.745 -0.9481  2.1013 -0.9931
11305TIP3    H255331   3.594   2.088   1.628  0.9936  1.0004 -0.2156
11306TIP3   OH255332   3.175   5.880   5.361 -0.5340 -0.0088 -0.2029
11306TIP3    H155333   3.129   5.936   5.424 -1.7869 -1.7997  0.5545
11306TIP3    H255334   3.134   5.794   5.371  2.1839 -1.4278 -0.3872
11307TIP3   OH255335   6.813   1.158   3.201  1.0963 -0.2333 -0.2070
11307TIP3    H155336   6.852   1.145   3.115  0.7299  0.0289 -0.4168
11307TIP3    H255337   6.720   1.174   3.183  0.7483 -1.4955  0.3145
11308TIP3   OH255338   4.276   1.135  15.423  0.5619  0.4417 -0.6367
11308TIP3    H155339   4.332   1.168  15.493  0.0178 -1.7720  0.9589
11308TIP3    H255340   4.320   1.055  15.393 -1.5933 -1.4196  0.7176
11309TIP3   OH255341   0.184   0.049  15.439  0.1851 -0.2047 -0.4882
11309TIP3    H155342   0.218   0.097  15.515  0.5287 -1.2152  0.0230
11309TIP3    H255343   0.089   0.064  15.442  0.3229  0.7317 -0.5615
11310TIP3   OH255344   2.554   4.717  13.693  0.2225  0.5075 -0.2518
11310TIP3    H155345   2.576   4.648  13.756  0.9838  2.0639  1.2697
11310TIP3    H255346   2.627   4.715  13.631  0.0857 -0.2296 -0.4071
11311TIP3   OH255347   1.988   5.376   2.711 -0.3973  0.4004 -0.3731
11311TIP3    H155348   1.913   5.425   2.744 -0.6501 -0.4199  0.3062
11311TIP3    H255349   1.957   5.337   2.628 -0.6510  0.2579 -0.2125
11312TIP3   OH255350   2.481   3.090  12.562 -0.6063  0.3641 -0.1496
11312TIP3    H155351   2.525   3.017  12.607  2.0227  1.6606 -0.4218
11312TIP3    H255352   2.446   3.144  12.632  0.6056  0.6808  0.2315
11313TIP3   OH255353   2.856   5.083  11.553 -0.2822 -0.4106  0.4173
11313TIP3    H155354   2.907   5.107  11.476  1.3049  0.4652  1.6821
11313TIP3    H255355   2.769   5.063  11.519  0.2246  0.4719 -1.5239
11314TIP3   OH255356   4.454   3.791  14.062  0.1294  0.2987 -0.1602
11314TIP3    H155357   4.391   3.774  14.132  1.4672  1.5752  1.4232
11314TIP3    H255358   4.419   3.868  14.017  0.7988  1.3997  1.1165
11315TIP3   OH255359   5.558   6.418  16.300 -0.4719 -0.0246 -0.3053
11315TIP3    H155360   5.539   6.430  16.207 -1.4348 -2.3709 -0.4803
11315TIP3    H255361   5.644   6.459  16.312 -0.6504  0.9708 -2.0306
11316TIP3   OH255362   4.327   6.697   3.470 -0.3624 -0.0772 -0.3370
11316TIP3    H155363   4.267   6.749   3.417  0.0674 -0.3650 -1.1283
11316TIP3    H255364   4.301   6.714   3.560 -0.5589  1.1166 -0.5966
11317TIP3   OH255365   5.552   4.587  13.508  0.0447  0.2905 -0.1793
11317TIP3    H155366   5.557   4.566  13.415 -0.0222  0.0132 -0.1216
11317TIP3    H255367   5.631   4.637  13.526 -0.5157  1.3631 -0.6428
11318TIP3   OH255368   6.271   5.672  14.738  0.0353  0.0514 -0.3341
11318TIP3    H155369   6.269   5.660  14.833  1.1798  0.2032 -0.2700
11318TIP3    H255370   6.200   5.733  14.720  0.6732  1.1171  0.6090
11319TIP3   OH255371   1.907   1.288   4.988 -0.6408 -0.2121 -0.1750
11319TIP3    H155372   1.935   1.201   4.958 -1.0123 -0.0485 -1.0382
11319TIP3    H255373   1.908   1.342   4.909 -0.4942  0.5540  0.3384
11320TIP3   OH255374   2.038   6.288   5.715  0.3992 -0.5732 -0.2421
11320TIP3    H155375   1.955   6.327   5.742 -0.0132 -0.6003 -1.4129
11320TIP3    H255376   2.104   6.338   5.762 -0.2614 -0.4550  0.5996
11321TIP3   OH255377   0.134   5.769   0.095  0.2524  0.1752 -0.0015
11321TIP3    H155378   0.091   5.849   0.065 -0.3849 -0.6281 -1.3154
11321TIP3    H255379   0.176   5.794   0.178 -0.7921  1.5889  0.1446
11322TIP3   OH255380   2.572   2.265   2.386 -0.1563  0.4020  0.3520
11322TIP3    H155381   2.485   2.282   2.352  0.3640  1.8269 -0.3548
11322TIP3    H255382   2.590   2.338   2.445  0.1998 -0.3814  1.2455
11323TIP3   OH255383   5.153   5.800  13.827  0.1367 -0.2235  0.0425
11323TIP3    H155384   5.069   5.761  13.851 -0.1381  0.8602  0.8992
11323TIP3    H255385   5.144   5.820  13.734 -0.3703 -0.5758  0.0110
11324TIP3   OH255386   0.425   2.220  12.225  0.5203  0.2974 -0.2565
11324TIP3    H155387   0.352   2.158  12.227  0.3462  0.5126  0.2427
11324TIP3    H255388   0.485   2.189  12.294  0.2978  0.8365  0.1912
11325TIP3   OH255389   0.473   0.434  16.805  0.3603  0.0572  0.2621
11325TIP3    H155390   0.423   0.395  16.876  2.4186 -1.4030  1.0049
11325TIP3    H255391   0.445   0.386  16.727 -0.3733  0.1987  0.4333
11326TIP3   OH255392   0.131   3.286  12.384 -0.3183 -0.3437  0.0786
11326TIP3    H155393   0.073   3.316  12.454 -0.3343 -0.3904  0.0858
11326TIP3    H255394   0.072   3.247  12.319 -0.5240  1.7266 -1.0322
11327TIP3   OH255395   0.346   1.489  14.805 -0.4791 -0.4308 -0.0641
11327TIP3    H155396   0.431   1.453  14.832  0.2066  0.5857 -0.7897
11327TIP3    H255397   0.354   1.500  14.710 -0.8017  1.1997  0.0622
11328TIP3   OH255398   4.022   6.241   5.171  0.6865  0.1869  0.2733
11328TIP3    H155399   4.026   6.296   5.249  2.4248  0.9919 -0.3165
11328TIP3    H255400   4.079   6.285   5.108  2.8981 -2.7181  0.0449
11329TIP3   OH255401   0.320   0.259  16.973 -0.2534  0.3238  0.2286
11329TIP3    H155402   0.356   0.278  17.059 -0.6731  0.6086  0.3457
11329TIP3    H255403   0.344   0.168  16.956  0.8402  0.6101  0.1416
11330TIP3   OH255404   2.168   5.206  13.262  0.3657  0.1207  0.0475
11330TIP3    H155405   2.120   5.283  13.232 -0.7655  0.3029  2.1192
11330TIP3    H255406   2.258   5.221  13.234  0.0021  1.7800 -0.3237
11331TIP3   OH255407   1.560   0.677   5.921 -0.0163  0.4435 -0.3243
11331TIP3    H155408   1.560   0.585   5.947  3.8202  0.6398  1.0276
11331TIP3    H255409   1.491   0.717   5.974 -0.0703 -1.2224  0.9257
11332TIP3   OH255410   2.587   2.218  15.801  0.3503  0.2181 -0.9084
11332TIP3    H155411   2.666   2.183  15.761  0.2118 -0.5863 -0.5069
11332TIP3    H255412   2.518   2.203  15.737  0.2878 -0.2852 -0.7301
11333TIP3   OH255413   2.767   5.534  14.532 -0.3841  0.2692 -0.4751
11333TIP3    H155414   2.683   5.524  14.577 -0.7053  0.4070 -1.0390
11333TIP3    H255415   2.746   5.583  14.452  0.2280  0.2848 -0.6309
11334TIP3   OH255416   1.682   0.385  14.568  0.2966  0.9969 -0.2442
11334TIP3    H155417   1.650   0.447  14.502  1.9332 -0.4587 -2.5812
11334TIP3    H255418   1.766   0.420  14.596  0.7264  0.4123 -0.7729
11335TIP3   OH255419   4.252   2.730   3.769  0.0378  0.0591  0.0783
11335TIP3    H155420   4.341   2.759   3.784  0.0844 -0.1335  0.1710
11335TIP3    H255421   4.220   2.702   3.855  0.9756 -2.9514 -0.4465
11336TIP3   OH255422   0.182   2.757  14.203 -0.0429  0.1416 -0.4137
11336TIP3    H155423   0.235   2.678  14.190 -1.3378 -0.7096 -0.6594
11336TIP3    H255424   0.247   2.828  14.210  1.1745 -0.9796  0.2835
11337TIP3   OH255425   0.243   2.822   1.975  0.0606 -0.8495 -0.5503
11337TIP3    H155426   0.288   2.740   1.956  0.9684 -0.7768  1.0272
11337TIP3    H255427   0.188   2.839   1.899  2.3666 -1.1840 -2.4143
11338TIP3   OH255428   0.556   4.208   3.013  0.0766  0.0902  0.1089
11338TIP3    H155429   0.481   4.149   3.022 -0.3608  0.7326  0.8254
11338TIP3    H255430   0.516   4.294   3.000  0.6882  0.4628  0.6543
11339TIP3   OH255431   5.407   1.058  16.200 -0.7528  0.2760  0.2766
11339TIP3    H155432   5.364   1.074  16.283 -0.0832 -1.5903  1.0355
11339TIP3    H255433   5.338   1.025  16.142 -1.0659  0.8496  0.3219
11340TIP3   OH255434   4.208   1.297   2.000  0.4581 -0.2205 -0.0537
11340TIP3    H155435   4.162   1.276   1.919 -3.0889  0.3501  1.5976
11340TIP3    H255436   4.229   1.390   1.992 -1.2682  0.2335  0.1902
11341TIP3   OH255437   4.356   2.173  14.780  0.0683 -0.4504 -0.0447
11341TIP3    H155438   4.362   2.086  14.820  0.6829 -0.4452 -0.1204
11341TIP3    H255439   4.420   2.171  14.709  0.0796  0.0632 -0.0513
11342TIP3   OH255440   6.435   1.979   4.704  0.0917  0.1736 -0.2227
11342TIP3    H155441   6.389   2.018   4.630 -0.0682 -2.2596 -1.5128
11342TIP3    H255442   6.365   1.942   4.759  0.3218 -0.3187 -0.2558
11343TIP3   OH255443   6.433   4.904  12.151 -0.3615 -0.1562  0.4421
11343TIP3    H155444   6.455   4.993  12.124  0.4608 -0.6943 -0.7218
11343TIP3    H255445   6.507   4.877  12.206  0.7817 -1.0895 -1.4753
11344TIP3   OH255446   0.750   1.053  10.771 -0.7304  0.3063 -0.1007
11344TIP3    H155447   0.718   0.965  10.751 -1.2513  0.2555  0.9125
11344TIP3    H255448   0.703   1.109  10.709  1.0899 -0.2908 -2.1593
11345TIP3   OH255449   0.185   4.640   1.960  0.5500  0.3233 -0.3214
11345TIP3    H155450   0.272   4.675   1.944  0.5388  0.1974 -0.6621
11345TIP3    H255451   0.145   4.635   1.874 -0.2851  1.6401 -0.0355
11346TIP3   OH255452   5.705   5.303   4.214 -0.3085 -1.1238 -0.4654
11346TIP3    H155453   5.632   5.302   4.151 -1.2734  2.6646  0.2980
11346TIP3    H255454   5.666   5.339   4.294  2.2366  0.5023  0.1351
11347TIP3   OH255455   5.722   3.455   4.144 -0.4232 -0.3271 -0.1438
11347TIP3    H155456   5.632   3.461   4.113 -0.4367  1.6285  0.1389
11347TIP3    H255457   5.716   3.404   4.225 -1.4809  0.8256  0.5383
11348TIP3   OH255458   3.586   1.331   4.010  0.4631  0.1678  0.6388
11348TIP3    H155459   3.518   1.273   4.044  0.1932  0.6761  0.9805
11348TIP3    H255460   3.545   1.375   3.936  0.8401 -0.4582  0.0434
11349TIP3   OH255461   6.577   2.726   2.407 -0.8899  0.0710  0.0513
11349TIP3    H155462   6.625   2.643   2.406 -0.2800  0.4010  0.5632
11349TIP3    H255463   6.646   2.793   2.415 -1.4508  0.5258  1.4329
11350TIP3   OH255464   1.389   5.543   5.279  0.4616  0.2985 -0.0828
11350TIP3    H155465   1.460   5.531   5.216 -0.8689 -1.3131 -1.4002
11350TIP3    H255466   1.332   5.467   5.265 -0.3987  0.3724  2.4487
11351TIP3   OH255467   1.691   5.548  16.117 -0.3370 -0.5412  0.3174
11351TIP3    H155468   1.615   5.583  16.069 -0.0017 -1.8683 -1.2844
11351TIP3    H255469   1.762   5.609  16.098 -0.8140  0.3428  1.2801
11352TIP3   OH255470   3.380   3.478  15.720  0.4054 -0.1395 -0.0758
11352TIP3    H155471   3.345   3.524  15.644 -0.2374 -0.4295  0.0377
11352TIP3    H255472   3.367   3.385  15.701 -1.4894 -0.1923  1.1499
11353TIP3   OH255473   4.069   6.161   1.385  0.0446 -0.2311 -0.6645
11353TIP3    H155474   4.003   6.091   1.381  0.2229 -0.4390 -0.1373
11353TIP3    H255475   4.019   6.241   1.399 -0.0057 -0.7133  2.7590
11354TIP3   OH255476   2.853   3.087   6.277 -0.1752 -0.2246 -0.1727
11354TIP3    H155477   2.879   3.180   6.272 -2.6663  0.5129 -0.7084
11354TIP3    H255478   2.778   3.080   6.218  0.5702 -2.8623 -0.9403
11355TIP3   OH255479   0.925   6.796   1.266 -0.1352  0.7531 -0.2545
11355TIP3    H155480   0.949   6.864   1.329  0.6000 -0.3195  0.6733
11355TIP3    H255481   0.989   6.726   1.281 -2.1189 -1.0397  0.2937
11356TIP3   OH255482   6.718   2.278   2.136  0.8814 -0.2979  0.5572
11356TIP3    H155483   6.681   2.250   2.052 -0.5097 -1.5154  1.5221
11356TIP3    H255484   6.776   2.351   2.113  1.0787 -1.0271 -1.5295
11357TIP3   OH255485   2.062   4.668  15.766  0.1966  0.2241  0.4223
11357TIP3    H155486   2.036   4.625  15.848 -0.0162  0.2136  0.3505
11357TIP3    H255487   1.979   4.690  15.724  0.2820 -1.0643 -0.4767
11358TIP3   OH255488   5.116   1.697  14.615 -0.0536 -0.2531 -0.0853
11358TIP3    H155489   5.035   1.748  14.615  0.1077  0.1451 -2.4224
11358TIP3    H255490   5.117   1.654  14.530  0.9727 -2.3291  0.9181
11359TIP3   OH255491   2.282   5.352  15.886 -0.1012  0.2644  0.8785
11359TIP3    H155492   2.293   5.446  15.895 -2.4651  0.4663  2.5702
11359TIP3    H255493   2.362   5.314  15.924  1.4084  1.5032 -0.8688
11360TIP3   OH255494   2.407   6.405  13.538 -0.3231 -0.1043 -0.2885
11360TIP3    H155495   2.447   6.420  13.624  0.6502 -1.0559 -0.5559
11360TIP3    H255496   2.481   6.382  13.481 -1.0483 -0.1792 -1.2161
11361TIP3   OH255497   0.726   6.624   1.134 -0.3065  0.4501  0.0821
11361TIP3    H155498   0.804   6.679   1.142 -0.7891  1.4508 -1.4728
11361TIP3    H255499   0.700   6.634   1.042 -2.3741  0.3094  0.6090
11362TIP3   OH255500   2.924   3.258   4.005 -0.0143 -0.0341 -0.0785
11362TIP3    H155501   2.884   3.293   3.925 -1.6070 -0.9134  0.2906
11362TIP3    H255502   3.017   3.251   3.984 -0.2938  0.4338 -1.6002
11363TIP3   OH255503   4.129   1.245   3.965 -0.7815  0.0892  0.2300
11363TIP3    H155504   4.111   1.151   3.969 -1.0907  0.1327 -0.0247
11363TIP3    H255505   4.048   1.286   3.996 -0.3983  0.2628  1.0342
11364TIP3   OH255506   0.966   4.502  15.945  0.3743  0.3381 -0.8982
11364TIP3    H155507   1.021   4.444  15.892  1.0823 -0.1981  0.3675
11364TIP3    H255508   0.968   4.586  15.900  0.9256 -0.1034 -1.7226
11365TIP3   OH255509   5.610   5.763  10.790  0.6215 -0.2043 -0.3292
11365TIP3    H155510   5.606   5.768  10.694  1.4845 -0.7705 -0.4089
11365TIP3    H255511   5.690   5.810  10.813  1.2669 -1.3930 -0.0297
11366TIP3   OH255512   1.217   2.111  14.362  0.1366  0.8517  0.9684
11366TIP3    H155513   1.154   2.107  14.290  0.4651 -1.3986  0.7183
11366TIP3    H255514   1.303   2.115  14.319  0.4044 -1.6786  1.1080
11367TIP3   OH255515   5.816   4.000   0.901  0.1508 -0.5390  0.2279
11367TIP3    H155516   5.739   4.054   0.884  1.0708 -0.0565 -3.2778
11367TIP3    H255517   5.790   3.912   0.875  0.0967 -0.8501  1.3137
11368TIP3   OH255518   4.968   3.469  17.072  0.2708 -0.6800  0.3806
11368TIP3    H155519   5.004   3.387  17.038  1.5519 -0.4196  1.0266
11368TIP3    H255520   5.034   3.535  17.051 -0.2682 -0.0045  0.7653
11369TIP3   OH255521   2.560   3.105  11.809  0.2349 -0.2978 -0.7163
11369TIP3    H155522   2.649   3.077  11.784  0.9475  0.0080  1.3078
11369TIP3    H255523   2.566   3.124  11.902 -1.8918  0.1271 -0.6156
11370TIP3   OH255524   4.781   3.179  15.924 -0.5915  0.4062  0.1604
11370TIP3    H155525   4.742   3.236  15.990 -0.7820 -0.7626  1.0862
11370TIP3    H255526   4.745   3.211  15.841 -0.2498  1.9771  0.5714
11371TIP3   OH255527   6.785   6.763  14.728  0.3866 -0.7565  0.2213
11371TIP3    H155528   6.881   6.757  14.728  0.6035  1.6858 -0.2389
11371TIP3    H255529   6.767   6.850  14.692 -2.0268 -1.2358  0.1471
11372TIP3   OH255530   0.600   4.603  15.276  0.0663  0.2128  0.0372
11372TIP3    H155531   0.543   4.654  15.333  1.2216  1.7020 -0.0681
11372TIP3    H255532   0.589   4.642  15.189  1.4713  0.7910  0.0828
11373TIP3   OH255533   3.916   5.388  13.493 -0.0491 -0.4258  0.0925
11373TIP3    H155534   3.869   5.427  13.567  1.1948 -0.8833  1.1762
11373TIP3    H255535   3.891   5.441  13.418  1.5418  2.5207  1.4722
11374TIP3   OH255536   5.836   0.479   5.715 -0.1148 -0.0990  0.0839
11374TIP3    H155537   5.819   0.479   5.809 -0.7679 -2.7701  0.0480
11374TIP3    H255538   5.753   0.451   5.675  0.8244 -1.4263 -1.0594
11375TIP3   OH255539   3.293   6.426   2.091  0.0159  0.2818  0.0937
11375TIP3    H155540   3.386   6.423   2.071  0.5458 -2.3141  2.2881
11375TIP3    H255541   3.278   6.514   2.125  1.6641  0.7174 -0.2160
11376TIP3   OH255542   3.472   5.519  16.955  0.0935  0.3909 -0.0298
11376TIP3    H155543   3.431   5.435  16.974  2.7785 -0.9865  0.2696
11376TIP3    H255544   3.551   5.519  17.010 -0.1367  3.4362  0.4703
11377TIP3   OH255545   3.209   1.789   3.562  0.0813  0.2277  0.0075
11377TIP3    H155546   3.123   1.750   3.575  0.5040 -0.8887 -0.4750
11377TIP3    H255547   3.191   1.883   3.549 -1.1043 -0.0721 -0.6231
11378TIP3   OH255548   4.959   5.506  16.446 -0.1213  0.3169 -0.1963
11378TIP3    H155549   4.984   5.594  16.419  0.7551 -0.4357 -2.0316
11378TIP3    H255550   4.944   5.459  16.364  0.1116 -1.4260  0.7087
11379TIP3   OH255551   5.287   0.188   6.601  0.1227  0.0303 -0.4720
11379TIP3    H155552   5.245   0.107   6.629 -3.2386  0.5647 -3.4162
11379TIP3    H255553   5.329   0.166   6.518  1.1143  0.8647 -0.2207
11380TIP3   OH255554   1.224   6.356   1.643 -0.0305 -0.1307 -0.3150
11380TIP3    H155555   1.170   6.435   1.652 -0.6306 -0.5178 -0.3994
11380TIP3    H255556   1.205   6.325   1.555  0.4730 -0.1798 -0.4079
11381TIP3   OH255557   4.121   2.154   4.866 -0.6407 -0.7145  0.2449
11381TIP3    H155558   4.200   2.168   4.919  0.6297  0.3453 -1.7947
11381TIP3    H255559   4.128   2.064   4.836  0.1062 -0.4795 -0.3362
11382TIP3   OH255560   0.267   1.958  11.079 -0.5223 -0.0556 -0.2282
11382TIP3    H155561   0.175   1.941  11.059 -0.2092  0.0192 -1.8788
11382TIP3    H255562   0.294   1.884  11.134 -1.3370 -0.5226 -0.4434
11383TIP3   OH255563   0.525   1.205  13.515  0.4313  0.2915 -0.2354
11383TIP3    H155564   0.443   1.219  13.562  0.0839 -1.8903 -0.1025
11383TIP3    H255565   0.592   1.247  13.570 -0.2531 -0.2612  1.0521
11384TIP3   OH255566   3.317   0.570  11.923  1.1212 -0.5269  0.0380
11384TIP3    H155567   3.252   0.622  11.972  1.1253 -0.4988  0.0135
11384TIP3    H255568   3.265   0.523  11.858  1.1632 -0.2709 -0.1802
11385TIP3   OH255569   1.315   1.859  14.039  0.8137  0.0281 -0.1898
11385TIP3    H155570   1.381   1.881  14.104  2.6826 -1.9415 -1.3369
11385TIP3    H255571   1.231   1.874  14.084  2.0175  0.3378  2.0610
11386TIP3   OH255572   0.948   3.374   1.065 -0.2794 -0.1669 -0.4510
11386TIP3    H155573   0.991   3.427   0.998 -1.4142  1.0850 -0.2074
11386TIP3    H255574   0.922   3.294   1.019 -0.2715  0.3084 -1.2933
11387TIP3   OH255575   4.971   1.890  16.955 -0.2941  0.2913  0.3244
11387TIP3    H155576   4.993   1.977  16.989 -0.3923  0.5534 -0.2634
11387TIP3    H255577   5.022   1.882  16.874 -1.7401  0.6033 -0.6565
11388TIP3   OH255578   4.305   6.740   1.082  0.0572 -0.1213 -0.0953
11388TIP3    H155579   4.247   6.792   1.138 -0.3485 -0.4037 -0.2476
11388TIP3    H255580   4.325   6.662   1.134 -1.5992 -1.1479 -0.9266
11389TIP3   OH255581   4.502   6.194   5.233 -0.3850  0.0835 -0.3136
11389TIP3    H155582   4.441   6.265   5.215  0.1165  0.6524  0.1502
11389TIP3    H255583   4.528   6.208   5.325  0.4068 -0.1566 -0.4902
11390TIP3   OH255584   3.467   4.577   5.651  0.1249 -0.3611 -0.2047
11390TIP3    H155585   3.397   4.534   5.700 -1.1359  0.9148 -0.7993
11390TIP3    H255586   3.492   4.514   5.584  0.2160 -1.2009  0.6028
11391TIP3   OH255587   3.125   1.746  15.948 -0.0160  0.2429 -0.5401
11391TIP3    H155588   3.170   1.733  15.864  0.6152 -0.4734 -0.0987
11391TIP3    H255589   3.047   1.691  15.942  0.2019 -0.0710 -0.5280
11392TIP3   OH255590   5.129   1.661   0.362  0.2449 -0.9585  0.3987
11392TIP3    H155591   5.161   1.645   0.451  0.5724  1.2348  0.7332
11392TIP3    H255592   5.041   1.695   0.374 -0.0505 -1.5105 -0.1855
11393TIP3   OH255593   4.077   4.339   4.280 -0.4311  0.3081 -0.6909
11393TIP3    H155594   4.094   4.345   4.374 -2.2309  0.1779 -0.3215
11393TIP3    H255595   4.157   4.370   4.239  0.5813 -0.1259  0.8820
11394TIP3   OH255596   2.250   2.327   2.669  0.4530 -0.4638  0.0862
11394TIP3    H155597   2.317   2.346   2.734  2.2470 -1.3893 -1.3984
11394TIP3    H255598   2.250   2.404   2.611 -0.8259  0.1655  0.8873
11395TIP3   OH255599   4.184   5.582   5.184 -0.0247 -0.0621 -0.0737
11395TIP3    H155600   4.131   5.635   5.244 -1.0509 -1.3394  0.1836
11395TIP3    H255601   4.272   5.581   5.224  0.0383  1.4753 -0.1263
11396TIP3   OH255602   5.174   4.596  10.554  0.6192  0.7222  0.4043
11396TIP3    H155603   5.230   4.519  10.560 -1.0936 -0.6377 -0.2149
11396TIP3    H255604   5.145   4.597  10.463 -0.4742  1.2905  0.7418
11397TIP3   OH255605   2.751   0.673  16.211  0.5524 -0.0561 -0.6334
11397TIP3    H155606   2.685   0.605  16.225 -1.1745  1.7283  0.4826
11397TIP3    H255607   2.831   0.625  16.191 -1.1743 -2.3184 -2.6867
11398TIP3   OH255608   3.810   2.492   1.706  0.7424  0.5385 -0.7365
11398TIP3    H155609   3.824   2.586   1.717 -0.0799  0.6670 -0.7902
11398TIP3    H255610   3.717   2.483   1.685  1.0605 -0.1694 -1.9765
11399TIP3   OH255611   0.488   0.402  15.701 -0.0655  0.4058 -0.4915
11399TIP3    H155612   0.468   0.424  15.610  1.4804  0.1185 -0.9184
11399TIP3    H255613   0.571   0.446  15.719  0.9183 -1.5415 -0.0283
11400TIP3   OH255614   0.685   5.260   1.816 -0.0553  0.4947 -0.3905
11400TIP3    H155615   0.696   5.176   1.861 -0.7714  1.2072  1.2079
11400TIP3    H255616   0.770   5.302   1.823  0.3232 -0.1033 -1.2471
11401TIP3   OH255617   5.176   6.777  12.636 -0.1785 -0.3543  0.7895
11401TIP3    H155618   5.096   6.748  12.678 -0.6314 -1.5043 -0.7755
11401TIP3    H255619   5.219   6.833  12.701 -2.5651  0.8765  1.4337
11402TIP3   OH255620   6.283   1.970   2.968  0.2358 -0.4399  0.0263
11402TIP3    H155621   6.319   1.904   3.028 -0.1593  0.6641  1.5321
11402TIP3    H255622   6.213   1.925   2.921  1.6211 -1.7904 -0.8276
11403TIP3   OH255623   1.610   2.216  15.368  0.6746  0.0215 -0.5442
11403TIP3    H155624   1.654   2.208  15.283  1.6903  2.6048 -0.3663
11403TIP3    H255625   1.638   2.139  15.418  0.8170 -1.0470 -2.2064
11404TIP3   OH255626   5.461   6.675   1.593 -0.1373  0.1621 -0.3406
11404TIP3    H155627   5.456   6.614   1.519  1.9197 -2.0348  1.1892
11404TIP3    H255628   5.371   6.681   1.626 -0.4688 -1.7256 -0.8072
11405TIP3   OH255629   6.344   0.476   5.679 -0.7136 -0.0393  0.1572
11405TIP3    H155630   6.333   0.400   5.736 -0.4906 -0.3380 -0.1924
11405TIP3    H255631   6.410   0.529   5.723  0.9886 -1.2474 -0.7784
11406TIP3   OH255632   0.739   0.479  15.674  0.1898  0.0204 -0.0132
11406TIP3    H155633   0.830   0.455  15.656 -0.0755 -0.9031 -0.1920
11406TIP3    H255634   0.745   0.563  15.720  1.0698  0.5300 -1.0183
11407TIP3   OH255635   2.275   4.950  16.299  0.1748  0.0998 -0.2469
11407TIP3    H155636   2.313   4.962  16.212 -1.3618  0.8320 -0.8524
11407TIP3    H255637   2.181   4.964  16.287 -0.3260 -1.5807  1.1928
11408TIP3   OH255638   5.431   5.753  15.882 -0.6601  0.3532 -0.6933
11408TIP3    H155639   5.479   5.732  15.802 -0.3699  2.0258 -1.0010
11408TIP3    H255640   5.499   5.773  15.946 -0.9066 -0.4543 -0.1597
11409TIP3   OH255641   2.046   4.865  13.728 -0.1803 -0.2606  0.1407
11409TIP3    H155642   2.048   4.938  13.667 -0.9305  1.1611  1.7355
11409TIP3    H255643   2.104   4.890  13.800 -1.3578 -0.6526  1.2856
11410TIP3   OH255644   3.796   0.319  13.067  0.4176 -0.1040 -0.1372
11410TIP3    H155645   3.855   0.292  12.997 -0.7442 -0.6159 -0.9437
11410TIP3    H255646   3.834   0.401  13.099  1.0585  0.0566 -1.2505
11411TIP3   OH255647   5.842   2.360   1.285  0.3557  0.0886 -0.0437
11411TIP3    H155648   5.826   2.289   1.347  0.9059 -0.1870 -0.2128
11411TIP3    H255649   5.768   2.420   1.298 -0.1822 -0.5751  0.0020
11412TIP3   OH255650   3.237   5.027  15.402 -0.6339 -0.2238 -0.0351
11412TIP3    H155651   3.162   5.072  15.365  0.4909  0.8286 -1.1279
11412TIP3    H255652   3.209   5.001  15.490 -1.4521  2.4496  0.5929
11413TIP3   OH255653   5.468   3.203  13.619 -0.2608 -0.4798  0.1999
11413TIP3    H155654   5.373   3.198  13.623 -0.2123 -0.8922  2.2587
11413TIP3    H255655   5.486   3.283  13.569 -1.6993  0.1001  0.5622
11414TIP3   OH255656   6.606   0.529   1.398  0.0435 -0.1809  0.0084
11414TIP3    H155657   6.519   0.500   1.370 -0.7156  1.7476  0.1707
11414TIP3    H255658   6.630   0.597   1.334 -0.1708  1.8076  1.8959
11415TIP3   OH255659   1.412   4.793  13.528  0.0364 -0.0334  0.4023
11415TIP3    H155660   1.451   4.880  13.520  0.3094 -0.0722  1.2492
11415TIP3    H255661   1.362   4.796  13.609 -1.5429 -0.0672 -0.5295
11416TIP3   OH255662   2.924   2.141  13.080  0.4216 -0.3034 -0.3783
11416TIP3    H155663   2.840   2.112  13.116  0.1372 -1.1394 -1.6695
11416TIP3    H255664   2.984   2.137  13.155 -0.4249 -0.7949  0.2987
11417TIP3   OH255665   1.903   6.717  16.187 -0.2434 -0.0676 -0.8420
11417TIP3    H155666   1.965   6.760  16.246 -0.3741 -1.1886  0.1569
11417TIP3    H255667   1.903   6.771  16.108  1.1673  0.5578 -0.4386
11418TIP3   OH255668   2.010   2.488   4.743 -0.4047  0.7174  0.2055
11418TIP3    H155669   2.075   2.467   4.675  1.0065  0.2196  1.6448
11418TIP3    H255670   2.002   2.583   4.740  0.0935  0.7487 -0.2695
11419TIP3   OH255671   2.947   4.707   5.750  0.2720  0.0790  0.3110
11419TIP3    H155672   3.042   4.720   5.757  0.3086  0.3968 -0.7450
11419TIP3    H255673   2.917   4.708   5.841  0.9106  2.8350  0.5800
11420TIP3   OH255674   6.051   0.981  12.111  0.1961 -0.4665 -0.0289
11420TIP3    H155675   6.111   1.056  12.115 -1.1526  0.8274 -2.0638
11420TIP3    H255676   6.062   0.937  12.195  3.9858 -0.3395 -0.2893
11421TIP3   OH255677   4.188   2.077   3.539  0.0177 -0.1298  0.0089
11421TIP3    H155678   4.228   1.999   3.501  0.3173  0.0841 -0.1161
11421TIP3    H255679   4.261   2.133   3.562 -0.1166 -0.5079  1.4785
11422TIP3   OH255680   1.082   1.326  13.805 -0.0682 -0.1282 -0.1970
11422TIP3    H155681   1.116   1.402  13.757 -0.8609 -0.0464 -0.6495
11422TIP3    H255682   1.033   1.365  13.878  1.3944 -0.2544  0.8971
11423TIP3   OH255683   2.573   1.504  10.551 -0.1361  0.0722  0.4428
11423TIP3    H155684   2.551   1.410  10.547 -0.9625  0.1961  1.5528
11423TIP3    H255685   2.512   1.545  10.490  0.8260 -0.2019 -0.7191
11424TIP3   OH255686   3.479   1.954  16.862  0.3245 -0.7346  1.1393
11424TIP3    H155687   3.497   1.873  16.815 -1.7607 -0.2362 -0.6644
11424TIP3    H255688   3.545   2.015  16.829 -0.0310 -0.8767  0.1339
11425TIP3   OH255689   1.262   0.623   5.782  0.0722  0.3547  0.7000
11425TIP3    H155690   1.221   0.695   5.829 -0.1017 -1.8530  4.3315
11425TIP3    H255691   1.339   0.662   5.741 -1.0824  2.9443  0.8053
11426TIP3   OH255692   5.547   0.698   3.137  0.2651  0.2679  0.3075
11426TIP3    H155693   5.639   0.723   3.138 -0.1635  1.9702  0.7509
11426TIP3    H255694   5.510   0.739   3.215 -0.6579 -1.3227  0.7487
11427TIP3   OH255695   1.074   6.230  12.645  0.4592 -0.3889  0.6859
11427TIP3    H155696   1.016   6.233  12.721 -3.4583  1.0008 -2.0026
11427TIP3    H255697   1.089   6.322  12.623 -0.1035 -0.7154 -1.2422
11428TIP3   OH255698   2.130   6.531  11.199 -0.9672  0.4230 -0.2949
11428TIP3    H155699   2.060   6.536  11.264  1.0968  1.9784  2.0239
11428TIP3    H255700   2.139   6.438  11.180 -1.9643 -0.0370  1.2918
11429TIP3   OH255701   1.498   1.436   6.249 -0.3545 -0.2197  0.1684
11429TIP3    H155702   1.468   1.523   6.224  0.6425 -0.0767 -0.5612
11429TIP3    H255703   1.445   1.413   6.325 -0.4524  1.1301  0.5190
11430TIP3   OH255704   3.847   0.696   1.854 -0.5388  0.6749 -0.0001
11430TIP3    H155705   3.815   0.613   1.891 -1.9888  0.5455 -1.4193
11430TIP3    H255706   3.923   0.671   1.801 -0.3576  0.4031  0.3831
11431TIP3   OH255707   2.405   6.249   6.053  0.2759  0.1067 -0.4390
11431TIP3    H155708   2.470   6.289   6.110 -0.0435  0.6876 -0.4710
11431TIP3    H255709   2.325   6.299   6.070 -0.1548 -0.5865 -0.4095
11432TIP3   OH255710   6.565   5.205   1.579 -0.1636  0.1720  0.1967
11432TIP3    H155711   6.570   5.288   1.531 -3.1588  0.4286  0.0946
11432TIP3    H255712   6.590   5.228   1.668 -0.1010  1.0088 -0.0248
11433TIP3   OH255713   3.855   5.782  14.081  0.0804 -0.1432 -0.1374
11433TIP3    H155714   3.809   5.819  14.005 -0.6829 -0.3220  0.2391
11433TIP3    H255715   3.888   5.859  14.128  0.7167 -0.0348 -0.7380
11434TIP3   OH255716   0.493   1.989   1.093 -0.3253  0.5039  0.2026
11434TIP3    H155717   0.482   2.072   1.047  0.2871  1.5099  1.8181
11434TIP3    H255718   0.406   1.950   1.093 -1.1789  2.2716  1.4526
11435TIP3   OH255719   5.402   1.263   3.252  0.3030 -0.1733 -0.2530
11435TIP3    H155720   5.415   1.173   3.223 -1.5818 -0.1230 -1.4435
11435TIP3    H255721   5.362   1.307   3.177  1.5273  1.7779  0.1685
11436TIP3   OH255722   2.918   3.524   0.171  0.1032  0.8329 -0.2987
11436TIP3    H155723   2.914   3.459   0.241 -0.6897  1.6345  0.4225
11436TIP3    H255724   3.009   3.552   0.169  0.3945 -0.0863 -0.4379
11437TIP3   OH255725   0.860   5.961  13.013 -0.2186 -0.4993  0.5603
11437TIP3    H155726   0.879   5.917  13.096 -2.7123 -1.5298  0.6667
11437TIP3    H255727   0.872   5.893  12.947  1.3018  0.1943  0.0819
11438TIP3   OH255728   4.646   6.426   1.203 -0.0257 -0.0346  0.2504
11438TIP3    H155729   4.667   6.474   1.283  2.0910 -0.0978 -0.1982
11438TIP3    H255730   4.611   6.492   1.143 -0.5281  0.2335  0.8375
11439TIP3   OH255731   6.446   2.638   6.362  0.5016 -0.1695 -0.2067
11439TIP3    H155732   6.540   2.620   6.364  0.7024  0.8777  0.6166
11439TIP3    H255733   6.434   2.713   6.420 -0.5950  0.8090 -1.5985
11440TIP3   OH255734   1.061   4.186   2.986 -0.0394  0.1189 -0.2504
11440TIP3    H155735   1.100   4.207   3.071 -1.1328  0.9630  0.0741
11440TIP3    H255736   0.980   4.141   3.007 -0.1321 -0.0015 -0.8542
11441TIP3   OH255737   0.462   6.569  12.994  0.6008 -0.1545 -0.1139
11441TIP3    H155738   0.372   6.538  12.989  0.5309  0.0092  0.0906
11441TIP3    H255739   0.476   6.617  12.912  0.6354 -0.5252 -0.3268
11442TIP3   OH255740   1.463   1.739   6.148  0.7083  0.6033  0.0849
11442TIP3    H155741   1.549   1.732   6.106  0.7211  2.1406 -0.1794
11442TIP3    H255742   1.479   1.793   6.225  0.2375 -0.3183  0.8524
11443TIP3   OH255743   2.267   3.600   5.556  0.0958 -0.5490  0.1791
11443TIP3    H155744   2.284   3.678   5.504 -2.8679 -1.0899 -1.9366
11443TIP3    H255745   2.340   3.542   5.537  0.7594  0.5545 -0.7723
11444TIP3   OH255746   0.276   5.212  14.742  0.0923 -0.0627  0.1162
11444TIP3    H155747   0.370   5.202  14.759  0.2359  0.9855  0.0169
11444TIP3    H255748   0.272   5.262  14.660 -0.5379  0.4922  0.4756
11445TIP3   OH255749   6.400   1.518  15.101 -0.0782 -0.1978 -0.1971
11445TIP3    H155750   6.399   1.599  15.050  0.7636  0.7050  1.1213
11445TIP3    H255751   6.491   1.488  15.096 -0.5532 -1.5308 -1.3233
11446TIP3   OH255752   4.040   6.218   3.955  0.3698 -0.6136 -0.1388
11446TIP3    H155753   4.124   6.197   3.996 -0.7077 -0.1816  2.5146
11446TIP3    H255754   3.983   6.144   3.976 -0.4027 -0.0960 -0.3387
11447TIP3   OH255755   4.164   1.832   5.252 -0.6692  0.4700  0.0413
11447TIP3    H155756   4.232   1.773   5.284 -1.3600  0.0998  0.8654
11447TIP3    H255757   4.177   1.835   5.158  0.6840  0.6567  0.2176
11448TIP3   OH255758   3.141   6.772   3.775 -0.3984  0.3573  0.2482
11448TIP3    H155759   3.086   6.718   3.831 -0.0142 -0.0111  0.2712
11448TIP3    H255760   3.098   6.770   3.689 -0.8386  0.7034  0.4577
11449TIP3   OH255761   0.410   5.662   3.037 -0.0889 -0.2073 -0.1674
11449TIP3    H155762   0.379   5.696   2.953  0.4197  0.8917  0.0616
11449TIP3    H255763   0.419   5.568   3.024 -3.1694 -0.5792 -0.3544
11450TIP3   OH255764   3.988   2.798   4.078  0.6325  0.0469 -0.4481
11450TIP3    H155765   3.901   2.778   4.113  0.5828  1.1453  0.1075
11450TIP3    H255766   3.993   2.748   3.997 -0.6606  0.2264 -0.6694
11451TIP3   OH255767   3.877   4.041  10.996 -0.3852  0.2131 -0.3432
11451TIP3    H155768   3.892   4.036  10.902  1.3079  0.4902 -0.1254
11451TIP3    H255769   3.936   4.110  11.026 -1.2296  0.4348  0.8669
11452TIP3   OH255770   1.403   3.828   0.471  0.0139 -0.5018 -0.0200
11452TIP3    H155771   1.475   3.767   0.489 -1.1268 -1.7048  0.6206
11452TIP3    H255772   1.353   3.787   0.401 -0.8488 -0.3930  0.5099
11453TIP3   OH255773   2.445   5.872  12.308 -0.3199 -0.1962 -0.2869
11453TIP3    H155774   2.426   5.781  12.333 -2.2695 -0.0769 -1.0796
11453TIP3    H255775   2.445   5.870  12.212  1.9215  0.2531 -0.3312
11454TIP3   OH255776   6.168   3.503   5.694  0.4548 -0.4083  0.4055
11454TIP3    H155777   6.118   3.541   5.766  1.3857  1.1637  0.2838
11454TIP3    H255778   6.102   3.468   5.634 -0.4092 -0.0597  1.1367
11455TIP3   OH255779   0.138   3.428   0.246 -0.7155  0.1651 -0.4987
11455TIP3    H155780   0.147   3.470   0.161 -0.8847  1.2455  0.0054
11455TIP3    H255781   0.099   3.495   0.302 -0.4529 -0.4764  0.4736
11456TIP3   OH255782   1.950   5.079   2.912 -0.1594 -0.0157 -0.4083
11456TIP3    H155783   1.990   5.009   2.861 -0.8189  0.1067 -1.1084
11456TIP3    H255784   1.924   5.144   2.847 -1.3656 -0.0276  0.0321
11457TIP3   OH255785   5.522   2.730   2.810 -0.6462 -0.5894  0.1304
11457TIP3    H155786   5.483   2.759   2.728 -0.9752  2.1304  1.1124
11457TIP3    H255787   5.504   2.637   2.815 -2.7874 -0.3410 -1.7269
11458TIP3   OH255788   2.828   3.099  17.050 -0.4057 -0.0121  0.0215
11458TIP3    H155789   2.782   3.140  17.123  2.0487  0.6116  1.3293
11458TIP3    H255790   2.836   3.168  16.984  0.2529  0.4663  0.5798
11459TIP3   OH255791   4.313   1.591   3.116  0.2872 -0.1024  0.1382
11459TIP3    H155792   4.322   1.683   3.140  1.8048 -0.6855  1.9990
11459TIP3    H255793   4.395   1.569   3.072 -0.6770 -0.2178 -1.6822
11460TIP3   OH255794   3.603   4.183  14.593  0.2900  0.1002 -0.2184
11460TIP3    H155795   3.578   4.143  14.675  0.9313 -1.1816 -0.6203
11460TIP3    H255796   3.692   4.152  14.577  1.6247  3.1859  0.3608
11461TIP3   OH255797   5.269   2.536  15.944  0.3799 -0.3012  0.0640
11461TIP3    H155798   5.282   2.441  15.943 -2.5934 -0.9106  2.6385
11461TIP3    H255799   5.322   2.566  16.019  1.7857  0.2538 -1.0972
11462TIP3   OH255800   1.320   2.704   1.260  0.2081  0.1841 -0.4423
11462TIP3    H155801   1.275   2.657   1.190 -2.4083  1.9355 -0.0934
11462TIP3    H255802   1.309   2.649   1.337  0.1028 -0.1699 -0.7075
11463TIP3   OH255803   6.358   5.159  14.376 -0.4835  0.2638  0.1575
11463TIP3    H155804   6.395   5.075  14.349 -0.8559  0.4647 -1.0021
11463TIP3    H255805   6.423   5.193  14.438  0.0598 -0.5110  0.0410
11464TIP3   OH255806   0.569   0.835   2.655  0.5380  0.3284  0.0993
11464TIP3    H155807   0.637   0.801   2.596 -0.1345  1.7041 -1.5698
11464TIP3    H255808   0.488   0.828   2.604  0.0494  2.3373  0.4971
11465TIP3   OH255809   3.358   6.648  16.262  0.0639 -0.4346 -0.2458
11465TIP3    H155810   3.292   6.687  16.319  0.9329 -0.0091  0.4975
11465TIP3    H255811   3.315   6.570  16.225 -1.1406  0.3258 -0.4929
11466TIP3   OH255812   6.469   4.662   3.762  0.6334 -0.3600  0.2771
11466TIP3    H155813   6.389   4.679   3.711  1.4514  0.6036 -0.7381
11466TIP3    H255814   6.540   4.682   3.701  1.6688 -1.9775  0.9022
11467TIP3   OH255815   3.982   5.190  10.869 -0.3022  0.2470  0.0961
11467TIP3    H155816   3.920   5.117  10.863  1.3580 -1.2121 -0.1100
11467TIP3    H255817   4.007   5.208  10.779 -1.2704  1.6530  0.0677
11468TIP3   OH255818   1.530   0.778   3.395  0.0656 -0.5680  0.3180
11468TIP3    H155819   1.588   0.809   3.465  1.1000 -0.0493 -0.7372
11468TIP3    H255820   1.492   0.858   3.359 -1.2107 -0.8926  0.8848
11469TIP3   OH255821   4.001   4.598  10.917  0.3536  0.5264 -0.4415
11469TIP3    H155822   3.988   4.576  10.825 -1.0354 -0.5688  0.0035
11469TIP3    H255823   3.927   4.655  10.939  0.7844  0.9408 -0.0349
11470TIP3   OH255824   3.082   3.778   0.260  0.3108  0.4705  0.0707
11470TIP3    H155825   3.127   3.695   0.274 -1.7614 -0.6720  0.1911
11470TIP3    H255826   3.133   3.821   0.190  1.7720 -0.5729  0.4462
11471TIP3   OH255827   6.635   1.561  13.487 -0.1048  0.1148 -0.2177
11471TIP3    H155828   6.700   1.491  13.489 -1.0969 -0.9484 -1.9488
11471TIP3    H255829   6.686   1.641  13.483  1.0758 -0.5592  0.5996
11472TIP3   OH255830   4.611   5.741  11.972 -0.0124  0.1759  0.4462
11472TIP3    H155831   4.592   5.658  12.017  2.4234 -0.6677  0.0346
11472TIP3    H255832   4.536   5.754  11.914 -0.4375 -1.7742  0.4820
11473TIP3   OH255833   6.601   2.460   0.029 -0.3813 -0.4559 -0.0111
11473TIP3    H155834   6.569   2.537   0.075 -2.8474 -2.0653  1.1759
11473TIP3    H255835   6.581   2.476  -0.063 -1.1208  0.1951  0.2600
11474TIP3   OH255836   0.916   5.328   3.462 -0.2734  0.1265 -0.2696
11474TIP3    H155837   0.847   5.359   3.404 -0.4854  1.1079  0.4868
11474TIP3    H255838   0.894   5.365   3.548  1.3966  0.7849 -0.0891
11475TIP3   OH255839   5.806   4.177  12.355 -0.0857  0.1042 -1.0066
11475TIP3    H155840   5.782   4.257  12.309  1.9477  0.9308 -0.7398
11475TIP3    H255841   5.837   4.117  12.287 -0.1479  0.1274 -1.0539
11476TIP3   OH255842   2.847   2.158   3.599  0.0308  0.3103 -0.0776
11476TIP3    H155843   2.774   2.099   3.583  0.3100  0.4934 -2.4193
11476TIP3    H255844   2.924   2.102   3.595  0.1215  0.3946  0.5438
11477TIP3   OH255845   2.548   0.840   5.330 -0.4550  0.7054  0.4084
11477TIP3    H155846   2.552   0.918   5.274  0.1339 -0.6319 -1.4994
11477TIP3    H255847   2.485   0.863   5.399 -1.1468  2.4477 -0.7496
11478TIP3   OH255848   2.473   4.787  16.695  0.7023 -0.1080  0.1877
11478TIP3    H155849   2.481   4.695  16.671  0.9803 -0.4031  1.3632
11478TIP3    H255850   2.513   4.793  16.782 -2.4689  0.3845  1.7698
11479TIP3   OH255851   6.724   5.494   1.657  0.0070  0.4022  0.2378
11479TIP3    H155852   6.700   5.557   1.589 -0.0452 -1.9517 -2.0973
11479TIP3    H255853   6.807   5.457   1.627  0.3508 -0.2090  1.8508
11480TIP3   OH255854   0.824   0.092  14.324  0.2536  0.2457 -0.9783
11480TIP3    H155855   0.892   0.154  14.353 -0.8432  1.1681 -0.3122
11480TIP3    H255856   0.843   0.012  14.373  0.6854  0.5913 -0.5650
11481TIP3   OH255857   3.791   4.945   5.790  0.1691  0.5293 -0.2514
11481TIP3    H155858   3.822   4.892   5.863  1.7407 -0.2086 -1.4119
11481TIP3    H255859   3.789   5.035   5.825  1.1375  0.2317  0.6149
11482TIP3   OH255860   5.882   3.802   5.002 -0.2602  0.6956  0.5689
11482TIP3    H155861   5.953   3.772   4.945  0.3570  3.3650 -0.2005
11482TIP3    H255862   5.904   3.767   5.088  0.6831 -0.5257 -0.1371
11483TIP3   OH255863   4.283   4.204  16.767 -0.2230 -0.4342 -0.0169
11483TIP3    H155864   4.353   4.153  16.809 -0.5969 -0.5697  0.4453
11483TIP3    H255865   4.258   4.269  16.832  0.9273  1.0135 -0.9512
11484TIP3   OH255866   4.136   4.775  14.470 -0.7623 -0.1965  0.0788
11484TIP3    H155867   4.045   4.769  14.499 -0.8760 -1.6814 -0.5432
11484TIP3    H255868   4.140   4.858  14.422 -1.3987  0.6284  1.3842
11485TIP3   OH255869   1.903   0.947   1.820 -1.1287 -0.2787  0.0902
11485TIP3    H155870   1.876   0.859   1.845 -1.5675  0.1995  1.4203
11485TIP3    H255871   1.970   0.971   1.885 -0.5560  0.1324 -0.6391
11486TIP3   OH255872   0.127   0.135   1.807  0.0182 -0.4231  0.3733
11486TIP3    H155873   0.160   0.199   1.870  0.9790 -1.2780  0.7664
11486TIP3    H255874   0.096   0.062   1.861  2.8585 -2.1462 -0.0715
11487TIP3   OH255875   1.125   4.455  17.058 -0.0361  0.7279 -0.1765
11487TIP3    H155876   1.065   4.505  17.112  2.1525  2.2727  0.9741
11487TIP3    H255877   1.207   4.505  17.060  1.4833 -1.5460 -1.1623
11488TIP3   OH255878   0.594   6.438  15.964 -0.5736  0.3739 -0.1306
11488TIP3    H155879   0.652   6.436  16.041  0.3240  1.4133 -0.7554
11488TIP3    H255880   0.530   6.506  15.984 -0.3823  0.5952 -0.2594
11489TIP3   OH255881   0.957   5.410   0.233 -0.2967 -0.1423 -0.0220
11489TIP3    H155882   1.020   5.339   0.229 -1.4760 -1.2744  0.6879
11489TIP3    H255883   0.983   5.462   0.310  0.2575 -0.0926 -0.2395
11490TIP3   OH255884   4.927   1.930   6.455 -0.0021  0.4325 -0.2303
11490TIP3    H155885   4.913   2.023   6.437 -1.2980  0.1800 -0.6468
11490TIP3    H255886   4.988   1.929   6.528  1.4483  1.5675 -1.3613
11491TIP3   OH255887   4.271   3.481  13.626 -0.2139 -0.4033  0.1146
11491TIP3    H155888   4.295   3.461  13.716  0.5929 -0.2668 -0.0580
11491TIP3    H255889   4.351   3.466  13.576  0.1359  2.0703 -0.1927
11492TIP3   OH255890   1.272   2.327  16.443 -0.3390  0.2376  0.1902
11492TIP3    H155891   1.273   2.327  16.538 -0.0088 -0.2290  0.1912
11492TIP3    H255892   1.273   2.419  16.419  2.1987  0.3995  0.6400
11493TIP3   OH255893   1.467   1.010  14.919  0.8451  0.0857  0.7146
11493TIP3    H155894   1.415   1.047  14.848  0.2617  1.0095  1.5832
11493TIP3    H255895   1.552   0.991  14.880  0.1390 -0.6038 -0.5168
11494TIP3   OH255896   4.338   3.376  12.101 -0.5585 -0.0758 -0.5483
11494TIP3    H155897   4.312   3.400  12.012 -2.2913 -1.0598 -0.3491
11494TIP3    H255898   4.257   3.349  12.144  0.1553  0.8045  1.4972
11495TIP3   OH255899   6.783   4.776  13.946 -0.4283  0.3573 -0.0101
11495TIP3    H155900   6.688   4.770  13.948 -0.4694  1.1165  0.9534
11495TIP3    H255901   6.812   4.686  13.932 -1.2593 -0.2006  1.6470
11496TIP3   OH255902   5.932   5.393  11.414 -0.3601  0.0379 -0.0755
11496TIP3    H155903   5.871   5.337  11.366  0.8942 -0.7661 -0.7728
11496TIP3    H255904   5.946   5.468  11.357 -2.5166  1.4670  1.1162
11497TIP3   OH255905   5.074   3.835  16.270 -0.2788 -0.1154 -0.5691
11497TIP3    H155906   5.066   3.803  16.360  0.9331  0.2260 -0.3237
11497TIP3    H255907   4.999   3.796  16.224 -0.4879 -0.9083  0.4045
11498TIP3   OH255908   5.403   3.720   1.796 -0.0574 -0.1928  0.4361
11498TIP3    H155909   5.405   3.811   1.766 -1.4449  0.0903  1.1415
11498TIP3    H255910   5.436   3.670   1.721  0.2364  0.8344 -0.1492
11499TIP3   OH255911   6.731   1.722   2.015  0.0154 -0.2321  0.2169
11499TIP3    H155912   6.753   1.714   2.108 -0.8061 -1.9619  0.2977
11499TIP3    H255913   6.816   1.721   1.970  0.4923  1.8908  0.9871
11500TIP3   OH255914   4.433   4.370  15.512  0.1344  0.3000  0.4820
11500TIP3    H155915   4.418   4.357  15.605  1.3720 -1.6813  0.4653
11500TIP3    H255916   4.443   4.282  15.476 -0.4937  0.9975 -1.5786
11501TIP3   OH255917   5.463   6.164  11.788  0.0341  0.5601 -0.0942
11501TIP3    H155918   5.454   6.196  11.878  1.4046  0.2868  0.1674
11501TIP3    H255919   5.374   6.168  11.752 -0.1227  3.3607  0.3438
11502TIP3   OH255920   0.200   6.251   2.993 -0.3240  0.0287  0.3687
11502TIP3    H155921   0.250   6.260   2.912 -1.5635 -1.7313 -0.6713
11502TIP3    H255922   0.176   6.159   2.996 -1.1058  0.2490  2.2825
11503TIP3   OH255923   0.054   3.025  11.773  0.5308 -0.2912 -0.4291
11503TIP3    H155924   0.094   3.095  11.825  0.6777  0.0113 -0.9318
11503TIP3    H255925   0.044   3.064  11.686  1.2119 -1.0986 -0.8891
11504TIP3   OH255926   4.026   2.981   2.176 -0.0150  0.2961 -0.4726
11504TIP3    H155927   4.029   3.077   2.181  2.8823  0.3346 -0.8343
11504TIP3    H255928   4.077   2.952   2.252 -1.3621 -1.0065 -0.0380
11505TIP3   OH255929   1.705   1.499  12.883 -0.0729 -0.3415 -0.4059
11505TIP3    H155930   1.768   1.488  12.812 -0.1356 -0.0194 -0.5156
11505TIP3    H255931   1.627   1.452  12.854  0.3336 -1.2837  0.0125
11506TIP3   OH255932   5.376   5.377   2.634 -0.5076  0.6726 -0.8247
11506TIP3    H155933   5.289   5.414   2.648 -0.4454  1.9658 -3.3658
11506TIP3    H255934   5.367   5.319   2.558  0.6798  0.1669 -0.6161
11507TIP3   OH255935   4.688   6.101   2.006  0.3213  0.5718  0.5414
11507TIP3    H155936   4.696   6.172   2.069 -0.0199  0.3572  0.8347
11507TIP3    H255937   4.763   6.111   1.948  0.5848  0.8324  0.9235
11508TIP3   OH255938   4.587   3.794   3.032 -0.1547  0.0888  0.8010
11508TIP3    H155939   4.663   3.751   2.993  0.2061  0.3265  1.2353
11508TIP3    H255940   4.614   3.886   3.043 -0.5841  0.2246  0.7451
11509TIP3   OH255941   6.023   1.934  12.406  0.1575  0.2309 -0.0888
11509TIP3    H155942   6.002   1.989  12.481 -0.1228 -2.6490  2.1254
11509TIP3    H255943   5.942   1.931  12.354 -0.5491  0.1338  0.9914
11510TIP3   OH255944   4.401   1.463   1.069 -0.4859  0.2051 -0.1554
11510TIP3    H155945   4.356   1.379   1.062 -0.4855  0.1514  0.4452
11510TIP3    H255946   4.391   1.503   0.982  0.1431 -0.7277 -0.6650
11511TIP3   OH255947   0.791   1.185   6.052  0.8403  0.0418  0.0726
11511TIP3    H155948   0.857   1.158   6.116  1.2997 -1.2484 -0.9242
11511TIP3    H255949   0.840   1.237   5.988  0.7168 -0.1624 -0.1872
11512TIP3   OH255950   4.309   5.460  12.547 -0.3692 -0.2263  0.4968
11512TIP3    H155951   4.288   5.516  12.473 -1.2080 -0.1405  0.7890
11512TIP3    H255952   4.328   5.521  12.619  1.6949 -0.2801  0.0590
11513TIP3   OH255953   0.205   1.277   3.316  0.0637 -0.0788 -0.0558
11513TIP3    H155954   0.141   1.233   3.260 -0.2646 -0.6202  0.7419
11513TIP3    H255955   0.281   1.288   3.259 -1.2123  1.9257 -1.4807
11514TIP3   OH255956   5.809   3.360   1.805  0.2401  0.3406 -0.3007
11514TIP3    H155957   5.884   3.406   1.842 -0.5311  1.3172  0.0875
11514TIP3    H255958   5.734   3.415   1.826 -0.7054 -1.0394  0.0694
11515TIP3   OH255959   0.023   5.853  11.607  0.0802 -0.0215 -0.2557
11515TIP3    H155960   0.096   5.819  11.659  0.6518 -0.9637 -1.6084
11515TIP3    H255961   0.019   5.794  11.532 -1.4192  0.6529 -0.7253
11516TIP3   OH255962   6.238   4.161   3.022  0.0368 -0.5755 -0.3559
11516TIP3    H155963   6.209   4.128   2.936  0.0172 -0.3964 -0.4187
11516TIP3    H255964   6.302   4.097   3.052 -1.3621 -1.7044  0.3756
11517TIP3   OH255965   4.598   5.097   4.242 -0.1966  0.2042 -0.1881
11517TIP3    H155966   4.578   5.013   4.282 -2.1488  0.6747 -0.0740
11517TIP3    H255967   4.605   5.079   4.148  1.1449 -0.3429 -0.0107
11518TIP3   OH255968   0.943   1.700   2.048  0.1102  0.0291 -0.0485
11518TIP3    H155969   0.862   1.684   1.999 -0.8800 -0.7989  1.7416
11518TIP3    H255970   0.966   1.615   2.085  1.2435  0.4663  0.3008
11519TIP3   OH255971   6.140   0.131   0.030 -0.2533  0.0489 -0.2940
11519TIP3    H155972   6.137   0.185   0.108 -2.0569  0.5984 -0.7143
11519TIP3    H255973   6.197   0.179  -0.030  1.8259 -0.7684  0.8864
11520TIP3   OH255974   0.069   1.452   2.126 -0.0337 -0.7241 -0.0190
11520TIP3    H155975   0.068   1.375   2.183 -1.5318  0.2709  1.4010
11520TIP3    H255976   0.096   1.523   2.184 -2.5624  0.4991 -0.2003
11521TIP3   OH255977   1.040   2.027   4.085  0.5024 -0.2670  0.1204
11521TIP3    H155978   0.991   2.109   4.082 -0.3698 -0.6657  2.0720
11521TIP3    H255979   1.125   2.051   4.123 -0.7137 -0.5709  3.3920
11522TIP3   OH255980   4.551   5.456   2.316 -0.0098  0.2230  0.8060
11522TIP3    H155981   4.559   5.493   2.403  0.3081  0.1466  0.8106
11522TIP3    H255982   4.631   5.482   2.271  0.5642 -1.0676  1.0433
11523TIP3   OH255983   6.222   3.610  16.549  0.4981  0.2086 -0.2122
11523TIP3    H155984   6.287   3.540  16.548  0.3970  0.1127 -1.1972
11523TIP3    H255985   6.140   3.568  16.524  0.5105  0.7213 -1.1775
11524TIP3   OH255986   5.959   6.279  15.405 -0.1912  0.5821  0.7689
11524TIP3    H155987   6.000   6.335  15.340 -0.9619  1.4707  1.0394
11524TIP3    H255988   5.953   6.333  15.484  0.8217 -0.5026  1.6355
11525TIP3   OH255989   2.086   5.523  14.946 -0.2896 -0.7605 -0.5448
11525TIP3    H155990   2.093   5.606  14.899 -0.7937 -0.2371  0.2726
11525TIP3    H255991   1.996   5.521  14.979  0.2909 -0.6847  1.1361
11526TIP3   OH255992   4.703   6.110   1.422 -0.1841 -0.1481  0.1105
11526TIP3    H155993   4.787   6.132   1.462  0.3895  1.2850 -1.7453
11526TIP3    H255994   4.654   6.193   1.422 -1.3941 -0.8286  0.6497
11527TIP3   OH255995   4.325   4.184   3.604 -0.5558 -0.4118  0.6002
11527TIP3    H155996   4.407   4.213   3.564 -0.2466  0.4372  1.8169
11527TIP3    H255997   4.292   4.261   3.651 -1.1055 -1.2705  1.6661
11528TIP3   OH255998   4.592   2.295  13.640  0.5540 -0.3808  0.4271
11528TIP3    H155999   4.680   2.257  13.638  2.4409  3.4454  1.4062
11528TIP3    H256000   4.568   2.295  13.732 -1.5186 -3.2272  0.0079
11529TIP3   OH256001   0.857   1.284   2.486 -0.0551  0.1585  0.7782
11529TIP3    H156002   0.875   1.279   2.580  1.2369  0.1063  0.5542
11529TIP3    H256003   0.912   1.356   2.455 -0.0050 -0.2206 -0.0348
11530TIP3   OH256004   4.979   3.557   0.278  0.2583 -0.2023 -0.4789
11530TIP3    H156005   4.910   3.502   0.317  0.2749 -0.0422 -0.2236
11530TIP3    H256006   4.970   3.543   0.184 -1.3450  1.2415 -0.5900
11531TIP3   OH256007   4.602   5.789  16.469 -0.1546 -0.1480 -0.2440
11531TIP3    H156008   4.534   5.722  16.472 -1.5777  1.2661  0.2572
11531TIP3    H256009   4.661   5.759  16.400 -1.5289 -1.1839 -1.0259
11532TIP3   OH256010   1.443   2.302  13.012 -0.5691  0.7634  0.1170
11532TIP3    H156011   1.386   2.316  12.937 -1.3338  1.8885  0.8994
11532TIP3    H256012   1.398   2.236  13.065  0.6199 -1.0720 -1.0412
11533TIP3   OH256013   5.571   0.085  13.593  0.0426 -0.4852 -0.0164
11533TIP3    H156014   5.595   0.104  13.684  0.4177  0.4059 -0.2896
11533TIP3    H256015   5.476   0.080  13.593  0.0589 -0.8023  0.4858
11534TIP3   OH256016   4.088   2.907   1.679 -0.3160  0.2981  0.4753
11534TIP3    H156017   4.147   2.979   1.659  0.6761 -0.7027 -0.3296
11534TIP3    H256018   4.138   2.850   1.738 -0.9237  0.0419  0.7614
11535TIP3   OH256019   3.048   5.525  13.639  0.0118 -0.5257 -0.9609
11535TIP3    H156020   3.127   5.527  13.692  1.1376  0.0433 -2.5763
11535TIP3    H256021   3.001   5.604  13.664 -0.2793 -1.0750  0.3054
11536TIP3   OH256022   2.609   0.238  13.421 -0.1630  0.4284  0.3929
11536TIP3    H156023   2.521   0.270  13.404  0.1747  1.7666  1.0262
11536TIP3    H256024   2.640   0.292  13.494  1.7944  1.1732 -0.9118
11537TIP3   OH256025   3.502   6.704   3.374  0.5434  0.0887 -0.2321
11537TIP3    H156026   3.596   6.716   3.387  0.2570 -0.1151  2.8219
11537TIP3    H256027   3.463   6.728   3.458 -1.9412 -1.8420 -0.6937
11538TIP3   OH256028   1.527   0.293   3.065  0.2562 -0.2791 -0.2191
11538TIP3    H156029   1.528   0.346   3.144  0.5708  0.0420 -0.4341
11538TIP3    H256030   1.480   0.214   3.089 -0.9930  0.4618 -0.1189
11539TIP3   OH256031   3.087   6.544   2.618 -0.6890  0.7758 -0.4275
11539TIP3    H156032   3.060   6.550   2.526  0.4527  1.3012 -0.7526
11539TIP3    H256033   3.178   6.513   2.614 -0.7279  0.4972  0.5443
11540TIP3   OH256034   1.116   1.585  13.146 -0.6928 -0.1485  0.1880
11540TIP3    H156035   1.132   1.535  13.066 -0.0679 -0.2369  0.3627
11540TIP3    H256036   1.198   1.580  13.194 -0.1823  2.0624 -0.3367
11541TIP3   OH256037   0.989   6.408   4.768 -0.3450 -0.1680  0.0512
11541TIP3    H156038   0.949   6.336   4.719 -1.4764  0.9217 -0.6744
11541TIP3    H256039   0.967   6.390   4.859  0.3725 -1.3338  0.0190
11542TIP3   OH256040   3.926   4.131   2.549 -0.1314  0.2643  0.0476
11542TIP3    H156041   3.965   4.210   2.513  1.4240  0.2539  1.5750
11542TIP3    H256042   3.947   4.062   2.485  0.5938  0.6470 -0.1351
11543TIP3   OH256043   2.596   5.335  13.747  0.6087  0.5063 -0.4469
11543TIP3    H156044   2.597   5.420  13.792  0.9435  1.0619 -1.4833
11543TIP3    H256045   2.683   5.299  13.763  0.9657  1.0154 -1.2260
11544TIP3   OH256046   0.031   0.728  13.041  0.5074 -0.6692 -0.1844
11544TIP3    H156047   0.112   0.776  13.057 -1.1129  1.6566  1.7256
11544TIP3    H256048  -0.014   0.727  13.125 -1.8542 -1.0903 -1.3635
11545TIP3   OH256049   4.891   3.456  15.757 -0.3193  0.0396 -0.2989
11545TIP3    H156050   4.814   3.405  15.733 -0.6295 -0.5645  1.7767
11545TIP3    H256051   4.867   3.546  15.738 -0.8228 -0.3061 -1.3919
11546TIP3   OH256052   2.537   6.534   1.338 -0.0731  0.3267 -0.1498
11546TIP3    H156053   2.537   6.466   1.405 -1.9969  0.5333  0.1279
11546TIP3    H256054   2.627   6.536   1.306 -0.2878 -3.9585 -1.7888
11547TIP3   OH256055   3.383   5.968  15.773  0.7953 -0.2899 -0.3837
11547TIP3    H156056   3.403   5.900  15.708 -1.1214 -1.2600 -0.0218
11547TIP3    H256057   3.369   5.919  15.854 -1.5563  0.3931 -0.3218
11548TIP3   OH256058   2.637   0.378  13.706 -0.6286 -0.4008  0.3692
11548TIP3    H156059   2.562   0.390  13.765 -1.6453 -2.0133 -0.5334
11548TIP3    H256060   2.656   0.284  13.710  0.6418 -0.1962 -0.2958
11549TIP3   OH256061   0.292   4.341   6.057 -0.2153 -0.6879  0.4981
11549TIP3    H156062   0.335   4.417   6.019 -0.2851 -0.2119  1.3393
11549TIP3    H256063   0.274   4.367   6.147 -3.0087 -0.5609 -0.0330
11550TIP3   OH256064   4.209   6.411  16.450  0.3392  0.3174 -0.4666
11550TIP3    H156065   4.137   6.445  16.397 -1.2212 -0.1556  1.2731
11550TIP3    H256066   4.170   6.391  16.534  2.3619 -0.7043  0.2944
11551TIP3   OH256067   6.403   0.825   6.293  0.1429  0.0471  0.4346
11551TIP3    H156068   6.363   0.909   6.316 -1.3013 -0.5029  0.0460
11551TIP3    H256069   6.407   0.777   6.376  1.1654  0.5512  0.6965
11552TIP3   OH256070   6.747   5.622   2.954  0.3875  0.1223  0.6349
11552TIP3    H156071   6.664   5.658   2.925  0.7372  0.8318  0.4814
11552TIP3    H256072   6.733   5.603   3.047 -0.1429 -0.3816  0.4568
11553TIP3   OH256073   0.358   1.958   1.845 -0.9042 -0.1697  0.1436
11553TIP3    H156074   0.439   1.945   1.895 -1.1006  0.6175  0.6860
11553TIP3    H256075   0.388   1.981   1.757 -0.5224  0.2735  0.3814
11554TIP3   OH256076   3.961   2.529   0.631 -0.6041  0.0328 -0.3965
11554TIP3    H156077   3.954   2.524   0.536 -0.0403  2.1356 -0.6177
11554TIP3    H256078   4.046   2.490   0.651 -0.0407  0.9104 -0.9652
11555TIP3   OH256079   4.220   3.619  11.803  0.1683 -0.3737 -0.3373
11555TIP3    H156080   4.204   3.644  11.894  1.6026  1.9050 -0.6493
11555TIP3    H256081   4.228   3.524  11.806 -0.7856 -0.4523  1.7372
11556TIP3   OH256082   4.539   3.393   1.998 -0.3026  0.1212 -0.0512
11556TIP3    H156083   4.630   3.419   2.014 -0.8499  1.2436  1.5488
11556TIP3    H256084   4.526   3.409   1.904  1.5525 -1.5359 -0.6534
11557TIP3   OH256085   3.685   2.079   3.110  0.0132 -0.4997 -0.0478
11557TIP3    H156086   3.647   2.107   3.194 -0.6175  1.9299 -1.0626
11557TIP3    H256087   3.758   2.139   3.096 -0.2507 -0.4899 -1.5144
11558TIP3   OH256088   5.864   0.961   0.398 -0.4997  0.0375  0.3149
11558TIP3    H156089   5.916   1.041   0.397 -1.9364  1.1544  3.1496
11558TIP3    H256090   5.800   0.972   0.327  0.7336  0.3178 -0.7855
11559TIP3   OH256091   4.229   4.154   4.872 -0.3617  0.0667  0.4964
11559TIP3    H156092   4.320   4.164   4.901 -0.6924  0.4082  1.4628
11559TIP3    H256093   4.236   4.120   4.783  0.7370  1.5078 -0.0027
11560TIP3   OH256094   5.978   2.663   2.336 -0.3335 -0.2330 -0.1408
11560TIP3    H156095   6.012   2.741   2.293 -2.4700  1.3209  0.7892
11560TIP3    H256096   6.012   2.590   2.285  1.9651  1.2576 -0.8843
11561TIP3   OH256097   4.772   6.282  13.830 -0.8107 -0.7699  0.5036
11561TIP3    H156098   4.839   6.309  13.893  1.2037  0.0614 -1.8227
11561TIP3    H256099   4.705   6.350  13.835  0.0076  0.0299  0.7682
11562TIP3   OH256100   5.806   1.298   5.968 -0.4437  0.1057 -0.2731
11562TIP3    H156101   5.850   1.241   5.905  0.5349 -0.4831  0.8931
11562TIP3    H256102   5.794   1.381   5.922  0.8150 -0.1088 -1.0331
11563TIP3   OH256103   5.752   5.054  12.838 -0.0588 -0.2617  0.2497
11563TIP3    H156104   5.667   5.091  12.815  1.3017  1.1867 -3.0861
11563TIP3    H256105   5.739   4.960  12.836 -1.3563 -0.0897 -1.4861
11564TIP3   OH256106   6.568   5.043   1.945 -0.4922 -0.6570  0.1172
11564TIP3    H156107   6.646   4.992   1.969 -0.0769  0.2889  0.8351
11564TIP3    H256108   6.602   5.129   1.919 -1.3177 -0.1020  0.8123
11565TIP3   OH256109   1.688   0.469   0.576  0.2437  0.2249  0.4801
11565TIP3    H156110   1.638   0.393   0.604  1.0246 -0.7989 -0.7821
11565TIP3    H256111   1.776   0.454   0.609  0.2364  0.9584  0.8583
11566TIP3   OH256112   2.228   2.803   1.123 -1.0482  0.2452 -0.4770
11566TIP3    H156113   2.210   2.892   1.156 -1.1695  0.3084 -0.7132
11566TIP3    H256114   2.209   2.746   1.197 -1.0033  0.4138 -0.3339
11567TIP3   OH256115   0.034   0.860  14.093 -0.5725  0.4903 -0.1637
11567TIP3    H156116   0.093   0.786  14.105  0.4152  1.3684  0.5727
11567TIP3    H256117   0.053   0.893  14.006  1.2355  1.7628  0.6610
11568TIP3   OH256118   3.165   3.097  12.996  0.1339  0.0491  0.2035
11568TIP3    H156119   3.093   3.139  12.949 -0.2430  1.0502  1.6011
11568TIP3    H256120   3.242   3.151  12.975  0.1394 -0.0169  0.0538
11569TIP3   OH256121   6.524   1.360   5.601 -0.0940 -0.0968  0.4573
11569TIP3    H156122   6.516   1.286   5.662 -4.2392 -0.4714 -0.2054
11569TIP3    H256123   6.518   1.438   5.656 -0.5405 -0.3719  0.8061
11570TIP3   OH256124   3.886   6.566   0.322 -0.6362 -0.3584 -0.0782
11570TIP3    H156125   3.862   6.659   0.322 -0.4242 -0.2978  0.8484
11570TIP3    H256126   3.942   6.555   0.399  0.4234 -0.9852 -0.9196
11571TIP3   OH256127   6.412   2.433   3.669 -0.2832 -0.5276  1.0338
11571TIP3    H156128   6.497   2.453   3.629 -0.2857  1.3891  1.9035
11571TIP3    H256129   6.350   2.488   3.622 -0.7555 -0.5289  1.6511
11572TIP3   OH256130   3.464   0.074  12.054  0.1526  0.1221 -0.7560
11572TIP3    H156131   3.543   0.120  12.084 -1.1433  1.8261  0.2468
11572TIP3    H256132   3.409   0.143  12.017 -2.1605 -0.4278  1.3750
11573TIP3   OH256133   4.930   6.407  13.258 -0.0090 -0.1121 -0.0307
11573TIP3    H156134   4.982   6.330  13.284  2.3932  1.1868 -0.7502
11573TIP3    H256135   4.905   6.389  13.168 -1.4426 -1.0277  0.5159
11574TIP3   OH256136   1.941   6.658   5.687 -0.6198 -0.1549  0.0083
11574TIP3    H156137   1.917   6.658   5.780 -1.9496 -2.5055 -0.2682
11574TIP3    H256138   1.867   6.700   5.643 -0.7701 -0.5779 -0.1445
11575TIP3   OH256139   3.833   3.929   3.553  0.3502  0.1738  0.1765
11575TIP3    H156140   3.914   3.940   3.503  0.4593 -0.6472  0.1684
11575TIP3    H256141   3.856   3.870   3.625 -1.0585 -3.2959 -1.9359
11576TIP3   OH256142   6.186   5.977  16.521 -0.1661 -0.4200  0.1118
11576TIP3    H156143   6.137   5.912  16.571  0.8508 -0.1061  1.5826
11576TIP3    H256144   6.275   5.971  16.556  0.1827  1.0011 -0.4913
11577TIP3   OH256145   5.478   1.189   5.915  0.0743 -0.3392  0.4325
11577TIP3    H156146   5.445   1.185   6.004  1.0621 -0.4696  0.8032
11577TIP3    H256147   5.571   1.210   5.924  0.4607 -1.5299 -0.5076
11578TIP3   OH256148   5.315   2.572  14.615  0.0429  0.0654 -0.4536
11578TIP3    H156149   5.249   2.530  14.671 -0.3976  1.2764 -0.0115
11578TIP3    H256150   5.372   2.619  14.677 -0.0813  0.9176 -0.9656
11579TIP3   OH256151   5.602   5.843   4.414 -0.5468  0.1901  0.5197
11579TIP3    H156152   5.588   5.763   4.362 -1.2250  0.3733  0.4124
11579TIP3    H256153   5.672   5.819   4.475  1.5033  0.4800 -1.5618
11580TIP3   OH256154   2.592   2.208   5.313 -0.1799  0.3198  0.0594
11580TIP3    H156155   2.556   2.243   5.395 -1.4438  0.1835 -0.4187
11580TIP3    H256156   2.516   2.178   5.264  0.5288  0.6291 -1.2849
11581TIP3   OH256157   4.876   2.241   3.889  0.5666 -0.0563 -0.3023
11581TIP3    H156158   4.813   2.179   3.927 -0.1743 -0.3490 -1.9289
11581TIP3    H256159   4.959   2.193   3.889  0.0233 -1.0747 -1.4499
11582TIP3   OH256160   3.855   1.209  12.805  0.2442  0.2963 -0.0985
11582TIP3    H156161   3.839   1.134  12.747 -0.5270  0.9866 -0.7888
11582TIP3    H256162   3.936   1.248  12.773 -0.6949  1.2693 -1.3767
11583TIP3   OH256163   4.992   1.951   3.710 -0.4577  0.2811 -0.4897
11583TIP3    H156164   4.948   1.867   3.701 -0.2030 -0.0177  0.9274
11583TIP3    H256165   5.084   1.930   3.725 -0.5918  0.7414  1.1536
11584TIP3   OH256166   3.842   6.587  15.364 -0.0830 -0.1213  0.0653
11584TIP3    H156167   3.746   6.586  15.366 -0.0892 -1.5627  0.0421
11584TIP3    H256168   3.865   6.674  15.396 -1.3833 -0.0685  0.9705
11585TIP3   OH256169   6.449   0.363  13.678  0.2809  0.4327 -0.0793
11585TIP3    H156170   6.450   0.395  13.768 -0.0430  2.0801 -0.6222
11585TIP3    H256171   6.538   0.378  13.647  0.0262  1.2299 -0.4597
11586TIP3   OH256172   2.668   3.250  12.072 -0.1544  0.3850  0.6311
11586TIP3    H156173   2.636   3.331  12.033 -0.6473  0.0023  0.2190
11586TIP3    H256174   2.615   3.240  12.152 -0.3615  0.2798  0.4831
11587TIP3   OH256175   5.463   5.288   4.094 -0.2438  0.3078 -0.2823
11587TIP3    H156176   5.412   5.319   4.019 -0.1440 -0.3048 -0.6129
11587TIP3    H256177   5.405   5.226   4.138 -0.3156  0.6913  0.1748
11588TIP3   OH256178   0.730   2.957  11.654  0.7379  0.2882  0.2787
11588TIP3    H156179   0.796   2.956  11.723  0.9250  2.1794  0.1925
11588TIP3    H256180   0.668   3.025  11.681 -1.2384 -1.4473  0.3662
11589TIP3   OH256181   1.707   3.747  12.553 -0.3505  0.2114  0.1571
11589TIP3    H156182   1.726   3.734  12.646 -0.7637 -1.6253  0.0228
11589TIP3    H256183   1.649   3.823  12.550  0.5608  0.9847  1.2737
11590TIP3   OH256184   0.358   5.970  15.983  0.1656  0.0305  0.2169
11590TIP3    H156185   0.313   5.997  16.063  0.7635 -0.6338  0.8016
11590TIP3    H256186   0.354   5.874  15.985  0.7791 -0.0103 -0.1911
11591TIP3   OH256187   5.015   2.501   1.805 -0.6985 -0.6080  0.2366
11591TIP3    H156188   4.987   2.547   1.885  2.3529  0.8688  0.6013
11591TIP3    H256189   4.956   2.534   1.737 -1.0497  0.9370  1.2264
11592TIP3   OH256190   2.130   0.494   3.615 -0.0676 -0.4169 -0.1310
11592TIP3    H156191   2.221   0.467   3.631  0.3831  1.8859  1.6483
11592TIP3    H256192   2.123   0.580   3.656 -3.7185 -1.4677  1.8791
11593TIP3   OH256193   6.222   1.416  16.441  0.1632  0.1716  0.3881
11593TIP3    H156194   6.290   1.478  16.469 -0.0205 -0.7628  3.2925
11593TIP3    H256195   6.268   1.333  16.429 -0.2340 -0.2010  1.2732
11594TIP3   OH256196   0.874   5.506   6.343 -0.4045 -1.0752  0.2250
11594TIP3    H156197   0.836   5.487   6.429 -0.7005 -0.2632  0.2850
11594TIP3    H256198   0.807   5.556   6.297  0.5792  0.4358  0.3515
11595TIP3   OH256199   4.106   6.065  13.959 -0.2611 -0.0605 -0.0905
11595TIP3    H156200   4.102   6.051  13.864 -2.4978  0.0049 -0.0784
11595TIP3    H256201   4.164   5.996  13.991 -0.0649 -0.5562 -1.4321
11596TIP3   OH256202   4.870   0.886  14.389  0.2236  0.0586  0.3680
11596TIP3    H156203   4.776   0.883  14.407  0.1850 -0.0432  0.1588
11596TIP3    H256204   4.911   0.901  14.474 -0.0288  0.9473  0.3404
11597TIP3   OH256205   6.700   3.400  14.866 -0.2686  0.1344 -0.1144
11597TIP3    H156206   6.771   3.435  14.811 -0.1904  0.9089  0.4598
11597TIP3    H256207   6.673   3.474  14.920 -1.1060 -0.3198  0.1100
11598TIP3   OH256208   6.806   2.791   4.499  0.6849  0.0284  0.1631
11598TIP3    H156209   6.713   2.806   4.515  0.3148 -2.0960  0.2768
11598TIP3    H256210   6.850   2.828   4.575  0.1468  2.5727 -0.6502
11599TIP3   OH256211   5.272   2.863  11.726  0.0321 -0.0307 -0.0976
11599TIP3    H156212   5.182   2.832  11.722  0.2305 -0.5065 -1.2092
11599TIP3    H256213   5.304   2.856  11.636  1.2039  0.0586  0.2949
11600TIP3   OH256214   2.426   4.230  11.633 -0.2849 -0.0745  0.4438
11600TIP3    H156215   2.387   4.317  11.635  0.7852  0.4214  0.2200
11600TIP3    H256216   2.511   4.243  11.592  0.6537 -0.9174  2.0306
11601TIP3   OH256217   4.654   3.305   2.338 -0.0918 -0.0732  0.0442
11601TIP3    H156218   4.737   3.323   2.381 -1.1059  1.0318  1.6621
11601TIP3    H256219   4.628   3.390   2.302 -1.1778 -0.0665  0.8049
11602TIP3   OH256220   4.823   4.427  10.487  0.4337 -0.1086  0.5477
11602TIP3    H156221   4.899   4.385  10.447  0.8383  2.0569 -1.1628
11602TIP3    H256222   4.765   4.446  10.413  0.1565  2.0189  1.2461
11603TIP3   OH256223   2.432   6.300  11.261  0.0303  0.5348 -0.0481
11603TIP3    H156224   2.370   6.266  11.197 -1.0343  2.0090  0.1325
11603TIP3    H256225   2.472   6.375  11.217  1.3517 -0.1049  0.0227
11604TIP3   OH256226   1.993   5.882  12.261  0.0372 -0.5904  0.0705
11604TIP3    H156227   1.910   5.921  12.287  1.5262  2.8227  0.1404
11604TIP3    H256228   2.036   5.861  12.344  0.8695  1.4878  0.2174
11605TIP3   OH256229   6.362   5.622   2.223 -0.5101 -0.1127  0.4363
11605TIP3    H156230   6.314   5.699   2.254 -3.6777 -1.9510  0.4557
11605TIP3    H256231   6.374   5.638   2.129  1.2790  1.5050  0.8684
11606TIP3   OH256232   5.973   3.955  15.695  0.1926  0.1436 -0.3095
11606TIP3    H156233   5.918   3.925  15.622  0.4704  0.0876 -0.5000
11606TIP3    H256234   6.048   3.997  15.652 -1.2325  3.1471 -0.0836
11607TIP3   OH256235   2.860   0.192   3.227  0.6925  0.3799  0.1313
11607TIP3    H156236   2.768   0.187   3.201  1.0357  1.0741 -1.3464
11607TIP3    H256237   2.863   0.151   3.313 -0.7915 -0.7184 -0.3001
11608TIP3   OH256238   4.453   3.313   2.953 -0.1648 -0.3087  0.5019
11608TIP3    H156239   4.497   3.385   2.908  0.0857 -0.0971  1.0711
11608TIP3    H256240   4.494   3.234   2.919  0.1545 -0.1431  0.4985
11609TIP3   OH256241   1.667   3.273  11.863  0.5320 -0.1964 -0.0045
11609TIP3    H156242   1.744   3.330  11.872 -0.1725  0.9822 -1.0879
11609TIP3    H256243   1.691   3.212  11.793  1.1852 -1.1005  0.9736
11610TIP3   OH256244   1.972   0.366  16.538 -0.0346 -0.0479  1.0629
11610TIP3    H156245   2.017   0.350  16.455 -1.6875  0.1257  0.0908
11610TIP3    H256246   1.968   0.280  16.580  0.2363 -0.2566  0.6722
11611TIP3   OH256247   6.463   4.278  16.441 -0.7088  0.4653 -0.3407
11611TIP3    H156248   6.489   4.186  16.445 -1.8972  0.1139 -0.4813
11611TIP3    H256249   6.375   4.281  16.478 -0.6561  1.5639 -0.2536
11612TIP3   OH256250   6.001   3.173   1.721  0.4664 -0.2517  0.6432
11612TIP3    H156251   5.946   3.249   1.741 -0.6653 -1.4033  2.1731
11612TIP3    H256252   5.961   3.133   1.644 -0.6478 -0.8426  1.4952
11613TIP3   OH256253   0.803   2.978   2.637 -0.0534 -0.3269  0.3911
11613TIP3    H156254   0.821   2.951   2.547 -0.8879 -1.4271  0.5172
11613TIP3    H256255   0.735   3.045   2.629  0.2679 -0.0225  0.1837
11614TIP3   OH256256   2.561   2.593  13.069 -0.3773 -0.5082 -0.0166
11614TIP3    H156257   2.585   2.652  13.140 -2.3204 -1.0980  1.1883
11614TIP3    H256258   2.609   2.513  13.088  0.0142 -0.2822 -0.0373
11615TIP3   OH256259   3.553   2.068  10.781  0.1307  0.1606 -0.0692
11615TIP3    H156260   3.614   2.009  10.736  0.4905  0.5050 -0.0316
11615TIP3    H256261   3.590   2.155  10.769 -1.5829  0.7031 -2.1050
11616TIP3   OH256262   0.494   3.095  12.458  0.3516  0.2619 -0.3165
11616TIP3    H156263   0.403   3.080  12.486 -0.3066  0.9071 -1.9575
11616TIP3    H256264   0.541   3.114  12.539 -1.0155  0.0650  0.5621
11617TIP3   OH256265   4.094   2.415  15.576  0.0954  0.0049  0.2573
11617TIP3    H156266   4.097   2.434  15.482  0.7377 -0.4260  0.1859
11617TIP3    H256267   4.164   2.468  15.614 -0.8306  0.9750  0.6456
11618TIP3   OH256268   1.535   1.515  10.809  0.2278  0.1623  0.1666
11618TIP3    H156269   1.488   1.593  10.840  1.8152  0.7248  1.2564
11618TIP3    H256270   1.625   1.544  10.797  0.5896 -1.2091 -0.6465
11619TIP3   OH256271   1.345   4.272  15.836  0.0288  0.0649  0.2623
11619TIP3    H156272   1.379   4.336  15.898  0.3174  0.8223 -0.6455
11619TIP3    H256273   1.254   4.257  15.863  0.1544  0.3866  0.8546
11620TIP3   OH256274   6.018   6.584   4.805  0.0833 -0.6671 -0.0262
11620TIP3    H156275   6.064   6.516   4.756 -0.0625 -1.1772  0.5374
11620TIP3    H256276   5.950   6.537   4.854 -0.2011 -0.0811  0.1526
11621TIP3   OH256277   5.657   1.787  16.402  0.5576 -0.2138  0.3369
11621TIP3    H156278   5.706   1.869  16.395  1.4047 -0.7387  0.0029
11621TIP3    H256279   5.724   1.720  16.416 -0.2127 -0.6661  2.2727
11622TIP3   OH256280   1.773   0.708  14.899  0.3898 -0.3215  0.3407
11622TIP3    H156281   1.692   0.695  14.948 -0.1170  0.5679 -0.2242
11622TIP3    H256282   1.820   0.626  14.908  0.2052 -0.2736  2.0839
11623TIP3   OH256283   2.618   0.868  16.329 -0.0820 -0.2783 -0.1585
11623TIP3    H156284   2.573   0.843  16.410  1.2951 -1.2303  0.3648
11623TIP3    H256285   2.669   0.790  16.305 -0.9058 -0.2260 -2.2914
11624TIP3   OH256286   1.752   0.715   5.741 -0.4034 -0.1984  0.2217
11624TIP3    H156287   1.816   0.780   5.768  1.6250 -1.6154 -0.9017
11624TIP3    H256288   1.682   0.721   5.807  1.0149  1.2098  1.6820
11625TIP3   OH256289   3.805   0.440   1.927 -0.2140 -0.3531 -0.4995
11625TIP3    H156290   3.852   0.366   1.966  1.0582 -0.3471 -1.9373
11625TIP3    H256291   3.733   0.399   1.879  1.0878 -0.8039 -2.1567
11626TIP3   OH256292   4.358   4.615   5.174 -0.5105 -0.5698 -0.2055
11626TIP3    H156293   4.392   4.685   5.117  0.2718 -0.1651  0.7176
11626TIP3    H256294   4.375   4.535   5.125 -1.0347 -0.1539 -1.1010
11627TIP3   OH256295   4.928   2.182  13.972  0.0104  0.6270 -0.0602
11627TIP3    H156296   5.007   2.143  14.012 -0.0866 -0.0178 -0.4809
11627TIP3    H256297   4.857   2.155  14.030 -0.2068 -0.7756 -0.9200
11628TIP3   OH256298   3.182   5.530  10.522  0.1690 -0.4832  0.4368
11628TIP3    H156299   3.226   5.595  10.468  0.5172 -0.0009  1.2919
11628TIP3    H256300   3.093   5.525  10.486 -0.3404  1.5612  1.2540
11629TIP3   OH256301   1.638   1.997  13.919  0.3781 -0.2838 -0.3772
11629TIP3    H156302   1.591   2.035  13.844 -0.0868 -2.3662 -1.2190
11629TIP3    H256303   1.681   2.071  13.960  0.2321  1.0271 -2.4190
11630TIP3   OH256304   3.502   1.333   4.303 -0.4890  0.3629  0.1814
11630TIP3    H156305   3.451   1.373   4.234 -2.3915 -1.4688  0.4244
11630TIP3    H256306   3.558   1.269   4.258 -0.0733  0.7584  0.1325
11631TIP3   OH256307   1.402   0.482   1.795 -0.2127  0.4020  0.0716
11631TIP3    H156308   1.334   0.549   1.786 -1.2777 -0.4888  1.0769
11631TIP3    H256309   1.401   0.459   1.888  0.4406 -0.6782 -0.1729
11632TIP3   OH256310   3.799   4.329   5.140  0.0794  0.1514 -0.1715
11632TIP3    H156311   3.885   4.303   5.106  0.0249  0.6383 -0.7095
11632TIP3    H256312   3.775   4.406   5.088 -0.2252  0.6378  0.6698
11633TIP3   OH256313   4.981   2.380  12.726 -0.1552 -0.8360 -0.1774
11633TIP3    H156314   4.952   2.292  12.746  0.4324 -1.1256 -0.5766
11633TIP3    H256315   5.019   2.412  12.808  0.4295 -1.2798 -0.2696
11634TIP3   OH256316   3.376   4.376   1.721 -0.0308  0.9392 -0.1248
11634TIP3    H156317   3.293   4.421   1.703  0.2275  0.9372 -1.4291
11634TIP3    H256318   3.417   4.366   1.635  0.1459 -1.3551  0.1543
11635TIP3   OH256319   2.639   2.142  10.564 -0.6180  0.2753 -0.1834
11635TIP3    H156320   2.641   2.127  10.659  0.2036  1.1776 -0.0452
11635TIP3    H256321   2.604   2.061  10.528 -0.3882 -0.3030  0.8537
11636TIP3   OH256322   5.550   5.240   0.861  0.0046 -0.1004  0.0574
11636TIP3    H156323   5.641   5.250   0.890 -0.2863 -1.8893  1.7203
11636TIP3    H256324   5.501   5.225   0.941 -1.8756  1.2865 -0.7654
11637TIP3   OH256325   4.198   4.224  15.245  0.1115 -0.3428 -0.3422
11637TIP3    H156326   4.294   4.231  15.248  0.0612  1.0080  2.8716
11637TIP3    H256327   4.172   4.281  15.173  1.6921 -0.7295 -1.2789
11638TIP3   OH256328   1.603   6.030  13.524  0.2815 -0.0014  0.1572
11638TIP3    H156329   1.692   5.996  13.515  0.3313  0.1395  0.1099
11638TIP3    H256330   1.549   5.966  13.477  0.7082  1.4633 -2.4996
11639TIP3   OH256331   0.991   0.383   1.599 -0.1840 -0.0809 -0.4786
11639TIP3    H156332   1.061   0.428   1.646  1.4683 -3.0583  0.2084
11639TIP3    H256333   0.923   0.370   1.665 -0.8495  1.5798 -0.7797
11640TIP3   OH256334   0.083   4.584  11.164  0.7994 -0.2696 -0.0403
11640TIP3    H156335   0.141   4.543  11.101  1.6819 -1.3357  1.4164
11640TIP3    H256336   0.077   4.675  11.135  2.3691 -0.3830 -0.8087
11641TIP3   OH256337   3.950   3.725   5.575 -0.2640 -0.2780  0.2577
11641TIP3    H156338   3.949   3.711   5.480 -0.2951  0.6208  0.1147
11641TIP3    H256339   3.989   3.645   5.611 -1.1401 -1.0450 -0.4350
11642TIP3   OH256340   3.537   6.122   6.246  0.3059 -0.1811  0.1079
11642TIP3    H156341   3.482   6.114   6.168 -0.9232 -1.2767  1.0350
11642TIP3    H256342   3.570   6.033   6.260  0.1102 -0.0984  1.1197
11643TIP3   OH256343   6.142   2.965   2.833 -0.1152 -0.6699 -0.2855
11643TIP3    H156344   6.093   2.955   2.751 -0.5530  0.1062 -0.1310
11643TIP3    H256345   6.083   2.933   2.901  0.2160 -1.2353 -0.2582
11644TIP3   OH256346   1.251   5.415  11.447  0.0666  0.2673  0.1841
11644TIP3    H156347   1.250   5.344  11.384 -1.0200  2.3734 -2.3572
11644TIP3    H256348   1.305   5.483  11.406 -0.2071  1.5265  1.7798
11645TIP3   OH256349   1.590   5.368  14.779 -0.7004  0.1392  0.1462
11645TIP3    H156350   1.680   5.355  14.748  0.0606  1.5125  1.6099
11645TIP3    H256351   1.535   5.345  14.705  0.9400  1.3281 -1.5355
11646TIP3   OH256352   3.219   6.664   0.907 -0.3537 -0.3814  0.7104
11646TIP3    H156353   3.233   6.606   0.833  1.4969  0.9786 -0.0942
11646TIP3    H256354   3.248   6.750   0.876 -1.1238  0.5830  2.4851
11647TIP3   OH256355   1.061   2.518  12.635 -0.5108  0.4264  0.0226
11647TIP3    H156356   0.970   2.514  12.604 -0.8786  0.1466  1.0762
11647TIP3    H256357   1.078   2.611  12.647 -0.9890  0.4396  0.6937
11648TIP3   OH256358   2.824   1.017  16.416 -0.2330  0.0955 -0.3038
11648TIP3    H156359   2.758   0.962  16.372  0.4677 -0.6135 -0.5094
11648TIP3    H256360   2.776   1.062  16.485 -1.0755  0.1352 -0.8933
11649TIP3   OH256361   6.812   6.573   1.424 -0.3232 -0.3304 -0.3175
11649TIP3    H156362   6.851   6.661   1.418 -0.9264  0.1223  1.4861
11649TIP3    H256363   6.886   6.516   1.443 -0.3187  0.4155  2.3460
11650TIP3   OH256364   5.536   3.460  13.007 -0.0186 -0.3899  0.1792
11650TIP3    H156365   5.629   3.451  12.986 -0.2643 -0.1726 -1.0760
11650TIP3    H256366   5.498   3.374  12.987 -0.2647 -0.1695 -0.3206
11651TIP3   OH256367   4.654   2.444  17.036  0.1111 -0.0835  0.0132
11651TIP3    H156368   4.591   2.378  17.009 -2.5052  1.7821  1.1736
11651TIP3    H256369   4.639   2.455  17.130  2.0708  0.5882  0.3082
11652TIP3   OH256370   3.085   4.767  11.733  0.3283 -0.0952 -0.0373
11652TIP3    H156371   2.998   4.769  11.693 -0.5585  0.6735  1.8087
11652TIP3    H256372   3.074   4.713  11.811  1.6878 -0.5202 -0.1222
11653TIP3   OH256373   2.722   2.964  14.232  0.2511  0.3216 -0.3853
11653TIP3    H156374   2.757   3.033  14.175 -0.2781  1.1060  0.2061
11653TIP3    H256375   2.699   3.010  14.313  0.1735 -0.6156  0.1316
11654TIP3   OH256376   1.852   5.640   5.396 -0.4104  0.4904 -0.1945
11654TIP3    H156377   1.806   5.640   5.312  0.6884 -1.1714 -0.8436
11654TIP3    H256378   1.915   5.712   5.388  0.2836 -0.2026 -1.1717
11655TIP3   OH256379   3.342   4.085   1.663 -0.3865  0.3241 -0.2998
11655TIP3    H156380   3.279   4.156   1.670 -1.3168 -0.4165 -0.8532
11655TIP3    H256381   3.404   4.100   1.734 -0.7896  1.4596 -0.1734
11656TIP3   OH256382   4.107   3.958  14.535  0.2842  0.3975  0.1816
11656TIP3    H156383   4.185   3.960  14.479 -1.3749 -2.4558 -2.5710
11656TIP3    H256384   4.135   3.909  14.613  1.0629 -1.5966 -1.2559
11657TIP3   OH256385   0.331   4.087  15.365  0.0075  1.1164 -0.6950
11657TIP3    H156386   0.319   4.053  15.453  1.1534 -0.2738 -1.0468
11657TIP3    H256387   0.404   4.148  15.372  1.7773 -0.8450 -1.0741
11658TIP3   OH256388   4.192   3.485   1.300  0.5063 -0.5116  0.5690
11658TIP3    H156389   4.233   3.571   1.289  1.5600 -0.8063  2.0139
11658TIP3    H256390   4.141   3.474   1.220 -0.4632  1.8879  0.7536
11659TIP3   OH256391   2.393   2.506   4.918 -0.0884  0.3824 -0.3803
11659TIP3    H156392   2.356   2.581   4.964  1.1892  0.4256  0.6107
11659TIP3    H256393   2.409   2.539   4.829 -1.1612  0.7391 -0.4625
11660TIP3   OH256394   6.588   0.968  12.954  0.0231 -0.1559  0.3801
11660TIP3    H156395   6.681   0.952  12.941  0.2370  0.3942  1.1848
11660TIP3    H256396   6.580   1.063  12.963 -0.6921 -0.1474 -0.2097
11661TIP3   OH256397   2.376   3.230  10.876  0.7526  0.2585  0.8274
11661TIP3    H156398   2.420   3.257  10.957  0.7282  0.0002  0.9267
11661TIP3    H256399   2.400   3.138  10.865  1.2138  0.4454  0.2356
11662TIP3   OH256400   0.433   4.072  14.312 -0.0453 -0.3004 -0.2835
11662TIP3    H156401   0.450   3.980  14.292  0.2170 -0.3716  0.2447
11662TIP3    H256402   0.338   4.080  14.308 -0.0139 -0.3045 -1.5451
11663TIP3   OH256403   3.791   2.203   0.881 -0.2025 -0.5025  0.0330
11663TIP3    H156404   3.880   2.212   0.917  0.4605 -2.3662 -1.0430
11663TIP3    H256405   3.735   2.194   0.958  0.4554  1.0794  0.7433
11664TIP3   OH256406   1.750   5.262  10.892 -0.2148  0.6494  0.2369
11664TIP3    H156407   1.696   5.201  10.942  2.5206 -0.4972  2.0371
11664TIP3    H256408   1.800   5.206  10.832 -0.1093  1.5419 -0.5350
11665TIP3   OH256409   0.306   4.052  15.647  0.3560  0.9219  0.1672
11665TIP3    H156410   0.226   3.999  15.648  0.7731  0.2730  0.5376
11665TIP3    H256411   0.276   4.142  15.642 -0.3760  0.6487 -0.6145
11666TIP3   OH256412   0.469   5.647  13.462  0.2710 -0.4142  0.1517
11666TIP3    H156413   0.512   5.719  13.417 -0.8120 -0.4244 -0.9587
11666TIP3    H256414   0.538   5.606  13.514  0.9888  1.1887  0.5248
11667TIP3   OH256415   1.162   5.288  12.031 -0.3416  0.4896  0.5196
11667TIP3    H156416   1.135   5.237  12.107 -0.6575  1.5569  1.1474
11667TIP3    H256417   1.248   5.324  12.055  0.7000 -1.1272 -0.6069
11668TIP3   OH256418   5.753   6.706   3.394 -0.2720 -0.0863  0.0033
11668TIP3    H156419   5.767   6.635   3.331  2.2084 -0.0857  0.4875
11668TIP3    H256420   5.747   6.785   3.340 -2.6009 -0.5171 -0.4996
11669TIP3   OH256421   0.029   2.565  15.035  0.8138 -0.3078  0.6296
11669TIP3    H156422   0.038   2.470  15.047  1.8738 -0.6621 -2.1674
11669TIP3    H256423   0.112   2.601  15.067  0.6958 -0.3943  1.0387
11670TIP3   OH256424   2.139   2.092   0.586  0.0235 -0.0797 -0.2118
11670TIP3    H156425   2.212   2.143   0.551 -1.5325  2.2691 -0.2547
11670TIP3    H256426   2.082   2.078   0.511 -0.2636 -0.6161  0.1049
11671TIP3   OH256427   2.725   5.641  12.878 -0.8086  0.3959  0.2648
11671TIP3    H156428   2.696   5.588  12.805 -3.9395  2.3950 -0.1251
11671TIP3    H256429   2.741   5.578  12.948  0.6512 -1.4131 -1.5849
11672TIP3   OH256430   5.408   2.252   1.383  0.6567 -0.5987 -0.5500
11672TIP3    H156431   5.367   2.330   1.421  0.1300  0.1494 -2.5137
11672TIP3    H256432   5.344   2.221   1.318  1.1786 -2.2480 -0.3151
11673TIP3   OH256433   5.035   1.206   3.629 -0.5108 -0.2258 -0.7326
11673TIP3    H156434   5.015   1.113   3.637 -2.0403  0.2961  3.8657
11673TIP3    H256435   5.131   1.210   3.627 -0.3612 -1.8596  1.0288
11674TIP3   OH256436   3.216   5.803  13.049 -0.1771 -0.1890 -0.5598
11674TIP3    H156437   3.150   5.867  13.076  0.3352  0.2804 -0.3802
11674TIP3    H256438   3.286   5.814  13.114 -0.4769 -1.5960  0.0283
11675TIP3   OH256439   4.973   1.733   0.909  0.5808 -0.0069 -0.1988
11675TIP3    H156440   5.049   1.685   0.942  0.7305  0.1913 -0.2467
11675TIP3    H256441   5.011   1.799   0.851  0.3830  0.1929 -0.1016
11676TIP3   OH256442   1.014   5.251   1.765 -0.1795  0.0253  0.0361
11676TIP3    H156443   1.095   5.223   1.724 -1.5572 -0.9872 -2.1984
11676TIP3    H256444   0.983   5.175   1.814  0.3850  0.5537  1.2701
11677TIP3   OH256445   2.790   6.563   4.382 -0.2287  0.6437  0.3645
11677TIP3    H156446   2.752   6.641   4.423 -1.7114 -0.6227  1.5294
11677TIP3    H256447   2.748   6.489   4.428 -0.7664 -0.8595 -2.3346
11678TIP3   OH256448   6.328   6.238   3.046  0.2836  0.3464  0.3569
11678TIP3    H156449   6.394   6.255   2.979 -0.6371 -0.3466 -0.7616
11678TIP3    H256450   6.317   6.322   3.091  0.3824  1.0299 -0.8560
11679TIP3   OH256451   3.422   4.150   2.152  0.0329 -0.1142  0.8451
11679TIP3    H156452   3.366   4.185   2.083 -0.5669  0.6889  1.7113
11679TIP3    H256453   3.427   4.221   2.217 -2.3171 -2.0064  3.3280
11680TIP3   OH256454   6.088   3.204  12.847  0.2563 -0.4378  0.5908
11680TIP3    H156455   6.035   3.283  12.856 -1.1512 -1.4024  1.1804
11680TIP3    H256456   6.118   3.205  12.756 -1.4165 -0.2172 -0.0012
11681TIP3   OH256457   1.415   3.757   4.297 -1.0003  0.2189  0.5296
11681TIP3    H156458   1.336   3.737   4.246 -0.2206 -1.3049 -0.1469
11681TIP3    H256459   1.387   3.746   4.388 -1.3489 -1.3155  0.2674
11682TIP3   OH256460   1.262   3.412   0.978 -0.4253  0.2007  0.3959
11682TIP3    H156461   1.186   3.367   1.015 -1.1402  0.1907 -1.0062
11682TIP3    H256462   1.318   3.430   1.053 -0.1782 -2.8203  1.0787
11683TIP3   OH256463   2.938   2.658  14.554 -0.3064  0.5864  0.0618
11683TIP3    H156464   2.920   2.749  14.580  0.9257  0.8302  0.1386
11683TIP3    H256465   2.928   2.659  14.459  0.3532  0.9800 -0.0137
11684TIP3   OH256466   6.658   6.750   3.975 -0.1435  0.3255  0.0311
11684TIP3    H156467   6.743   6.717   4.004 -0.5796 -0.3003  0.6241
11684TIP3    H256468   6.612   6.772   4.056  0.4321  3.3174 -0.2994
11685TIP3   OH256469   4.142   1.543   2.579  0.2509  1.1396  0.3581
11685TIP3    H156470   4.161   1.577   2.492  0.9612  1.4052  0.6124
11685TIP3    H256471   4.050   1.515   2.574  0.8652 -0.9066 -1.1371
11686TIP3   OH256472   3.161   0.621  16.338 -0.4458 -0.1414  0.8489
11686TIP3    H156473   3.131   0.553  16.278  0.8970 -0.5280  0.5931
11686TIP3    H256474   3.176   0.697  16.281  1.9420 -0.8401  0.4395
11687TIP3   OH256475   5.253   6.450   2.448  0.1035  0.0711  0.3751
11687TIP3    H156476   5.203   6.376   2.482 -2.3736  1.3544 -0.2421
11687TIP3    H256477   5.219   6.463   2.360  0.4661  1.9311  0.4682
11688TIP3   OH256478   0.492   1.249   1.083  0.1741  0.0890  0.0507
11688TIP3    H156479   0.431   1.215   1.148 -1.4514  0.5867 -1.1320
11688TIP3    H256480   0.459   1.214   1.000  1.1999  0.8182 -0.6866
11689TIP3   OH256481   1.763   5.907  15.293 -0.1240 -0.5976  0.3836
11689TIP3    H156482   1.709   5.874  15.365 -0.7952 -0.2008  0.0690
11689TIP3    H256483   1.771   5.832  15.234 -2.9143  0.1362 -1.0772
11690TIP3   OH256484   6.298   4.179   1.367 -0.0026 -0.0727  0.1305
11690TIP3    H156485   6.255   4.143   1.289  0.4354  0.6612 -0.4618
11690TIP3    H256486   6.234   4.166   1.437 -0.8048  0.1400 -0.5422
11691TIP3   OH256487   2.370   6.009  14.642  0.5345 -0.3839 -0.6918
11691TIP3    H156488   2.284   6.001  14.683  1.3520 -1.5146  0.9663
11691TIP3    H256489   2.394   6.101  14.654 -0.6143  0.0617 -1.6209
11692TIP3   OH256490   1.170   0.891   1.645  0.2966 -0.7631 -0.3560
11692TIP3    H156491   1.229   0.941   1.702 -0.2801 -0.6339  0.1318
11692TIP3    H256492   1.091   0.944   1.639 -0.2493 -1.5154  0.0070
11693TIP3   OH256493   5.870   1.297   5.064 -0.0162  0.3828  0.7586
11693TIP3    H156494   5.849   1.260   4.978  1.1034  1.9176 -0.2112
11693TIP3    H256495   5.829   1.237   5.126 -0.0443 -1.2948 -0.8045
11694TIP3   OH256496   2.260   6.584  15.536 -0.7068  0.2846 -0.2425
11694TIP3    H156497   2.236   6.519  15.602 -2.1430 -0.6828 -1.6402
11694TIP3    H256498   2.193   6.652  15.544 -1.6676 -0.4630 -1.4917
11695TIP3   OH256499   0.781   3.568  15.659  0.6180  0.3096  0.0661
11695TIP3    H156500   0.761   3.661  15.647  2.0550  0.5136 -0.9958
11695TIP3    H256501   0.871   3.567  15.690  1.0911 -0.7645 -1.2511
11696TIP3   OH256502   5.328   4.873  13.794  0.1027  0.1579  0.1750
11696TIP3    H156503   5.412   4.918  13.782 -0.3448  1.9013  2.7622
11696TIP3    H256504   5.273   4.936  13.841 -1.6791 -1.9965  1.1900
11697TIP3   OH256505   2.333   0.289  13.436 -0.1184  0.4979 -0.7129
11697TIP3    H156506   2.252   0.316  13.478 -0.2474  0.3391 -0.8601
11697TIP3    H256507   2.363   0.214  13.487 -1.5892 -1.3339 -2.3735
11698TIP3   OH256508   2.219   3.533  11.530 -0.1781 -0.0267 -0.2875
11698TIP3    H156509   2.313   3.539  11.513 -0.2235  1.5150 -0.0487
11698TIP3    H256510   2.209   3.453  11.581  1.0862  0.1634  0.2760
11699TIP3   OH256511   3.134   3.901   1.966 -0.4186  0.3269 -0.7482
11699TIP3    H156512   3.102   3.819   2.002 -1.6963  0.2170 -2.0567
11699TIP3    H256513   3.229   3.891   1.964 -0.5879 -1.3932 -1.4831
11700TIP3   OH256514   0.065   3.457   2.731  0.4175 -0.3973  0.0614
11700TIP3    H156515   0.153   3.482   2.704  0.8404 -0.8933  0.9266
11700TIP3    H256516   0.079   3.382   2.790 -0.3484  1.3018  2.5571
11701TIP3   OH256517   4.797   5.889   5.226  0.3771  0.1581  0.0594
11701TIP3    H156518   4.810   5.939   5.146 -2.0326  0.7222 -0.0597
11701TIP3    H256519   4.757   5.807   5.198 -0.4734  0.3548  0.6635
11702TIP3   OH256520   6.200   3.164   4.573 -0.0486  0.0757 -1.0191
11702TIP3    H156521   6.185   3.255   4.547 -0.2597 -0.1103 -1.5749
11702TIP3    H256522   6.126   3.116   4.535 -1.0181 -0.0622  0.9259
11703TIP3   OH256523   3.018   4.221   1.709 -0.2106 -0.4395  0.3207
11703TIP3    H156524   3.022   4.261   1.622 -1.3047  1.5027  1.0858
11703TIP3    H256525   2.925   4.218   1.730 -0.0129 -1.5399  1.1597
11704TIP3   OH256526   4.527   2.223   2.002 -0.4356  0.2645  0.3278
11704TIP3    H156527   4.567   2.181   1.926  0.9229  2.3148 -0.1878
11704TIP3    H256528   4.485   2.152   2.050  0.1367 -1.3434 -1.4352
11705TIP3   OH256529   1.498   5.200   1.471  0.5875 -0.0824  0.1803
11705TIP3    H156530   1.443   5.187   1.394  1.0730  0.6262 -0.3019
11705TIP3    H256531   1.498   5.295   1.485  2.2017  0.0233 -0.2480
11706TIP3   OH256532   1.079   1.149  16.443 -0.4275 -0.2031 -0.1886
11706TIP3    H156533   1.119   1.067  16.474  1.0596 -0.0265 -1.5271
11706TIP3    H256534   1.007   1.164  16.504 -0.1157 -1.9746  0.7005
11707TIP3   OH256535   1.877   0.434   2.938  0.5024  0.2179 -0.0619
11707TIP3    H156536   1.927   0.504   2.980  0.7105  1.0877 -1.6729
11707TIP3    H256537   1.876   0.458   2.845  0.1331 -1.6645 -0.5816
11708TIP3   OH256538   3.918   3.882  10.622 -0.1969 -0.2260  0.5361
11708TIP3    H156539   3.916   3.796  10.663 -0.1054 -1.3052 -1.5732
11708TIP3    H256540   3.944   3.865  10.532 -1.7497  1.8323 -0.3844
11709TIP3   OH256541   4.851   6.187  11.312 -0.0989  0.0607 -0.3621
11709TIP3    H156542   4.897   6.271  11.315  0.7457 -0.4128  0.1243
11709TIP3    H256543   4.776   6.203  11.255  0.8172  0.7666 -1.3991
11710TIP3   OH256544   2.324   0.353   5.197  0.3681  0.2065  0.1229
11710TIP3    H156545   2.319   0.447   5.182  1.0584  0.2200 -0.0346
11710TIP3    H256546   2.406   0.341   5.245  0.3581 -0.3307  0.0068
11711TIP3   OH256547   6.615   5.669   4.322  0.7693  0.0168  0.0228
11711TIP3    H156548   6.521   5.654   4.329  0.9642 -2.4744 -1.5949
11711TIP3    H256549   6.651   5.636   4.404  0.4182 -1.0748 -0.2524
11712TIP3   OH256550   6.337   5.116  12.886 -0.0280  0.3510 -0.2009
11712TIP3    H156551   6.426   5.137  12.859  0.2812  0.7947  1.1407
11712TIP3    H256552   6.338   5.022  12.901 -0.0559  0.1909 -1.1213
11713TIP3   OH256553   3.266   5.238  13.493  0.1270 -0.3325  0.3890
11713TIP3    H156554   3.271   5.240  13.397 -2.4104  0.5846  0.2212
11713TIP3    H256555   3.193   5.180  13.513  0.1425  0.0753  1.7645
11714TIP3   OH256556   0.615   1.431  15.878  0.1204 -0.6130 -0.9063
11714TIP3    H156557   0.530   1.474  15.865  0.3713  0.6079  1.0969
11714TIP3    H256558   0.606   1.387  15.962  2.0421  1.1719  0.3271
11715TIP3   OH256559   3.882   6.580   4.288 -0.0945 -0.1403 -0.4960
11715TIP3    H156560   3.909   6.524   4.214 -0.6565 -1.0596 -0.0346
11715TIP3    H256561   3.850   6.660   4.247 -1.5802 -1.1230 -1.3782
11716TIP3   OH256562   6.589   6.152   3.949 -0.6114 -0.0465  0.2157
11716TIP3    H156563   6.495   6.136   3.956 -0.3031 -1.2476  2.4010
11716TIP3    H256564   6.603   6.235   3.993 -0.6013 -0.0381  0.1973
11717TIP3   OH256565   5.906   1.980  13.893  0.0066 -0.3176  0.0100
11717TIP3    H156566   5.827   1.940  13.857 -1.3458  0.1441  2.2925
11717TIP3    H256567   5.914   2.063  13.847 -3.4226  1.7006  2.5749
11718TIP3   OH256568   5.743   1.656   3.561  0.3244 -0.1766  0.1033
11718TIP3    H156569   5.720   1.626   3.649 -2.1269  0.9187 -0.0576
11718TIP3    H256570   5.697   1.596   3.502  0.6872  0.0229 -0.3895
11719TIP3   OH256571   0.798   6.378  12.422  0.0667  0.6545  0.3217
11719TIP3    H156572   0.789   6.466  12.459  0.7105  1.0109 -0.3491
11719TIP3    H256573   0.847   6.391  12.340 -0.6441 -0.2133 -0.2574
11720TIP3   OH256574   0.312   3.024   1.096  0.5375 -0.0857 -0.6045
11720TIP3    H156575   0.249   2.953   1.111  0.7612 -0.1146  0.2850
11720TIP3    H256576   0.260   3.094   1.058 -0.0835 -0.0493  0.2727
11721TIP3   OH256577   3.951   3.618  14.413 -0.1795 -0.3154 -0.8745
11721TIP3    H156578   3.894   3.674  14.465  1.5027 -0.1082  0.8831
11721TIP3    H256579   3.893   3.553  14.374 -1.5518 -0.3562  1.1150
11722TIP3   OH256580   6.177   3.983  14.919  0.0845  0.1062 -0.3257
11722TIP3    H156581   6.139   4.042  14.984 -0.8045 -1.5203  0.7009
11722TIP3    H256582   6.159   3.895  14.952 -0.5699 -0.8247 -2.8533
11723TIP3   OH256583   6.750   3.110  13.447  0.2931 -0.0105 -0.1074
11723TIP3    H156584   6.801   3.104  13.528 -0.5192 -0.3769  0.3852
11723TIP3    H256585   6.660   3.123  13.475  0.0965  0.6649 -0.9719
11724TIP3   OH256586   0.269   1.397   1.947  0.1637 -0.1891  0.5248
11724TIP3    H156587   0.325   1.459   1.993 -0.4982  1.8484 -1.2636
11724TIP3    H256588   0.204   1.370   2.012  0.8554  0.4673  1.5199
11725TIP3   OH256589   0.876   0.603  14.264 -0.0917 -0.2866  0.1111
11725TIP3    H156590   0.932   0.588  14.188 -0.8528 -0.7521 -0.3599
11725TIP3    H256591   0.791   0.624  14.227 -0.2583  0.3283  0.8299
11726TIP3   OH256592   0.905   1.563  16.143  0.2738 -0.2162 -0.8608
11726TIP3    H156593   0.987   1.516  16.129  1.0807  0.8454  0.1623
11726TIP3    H256594   0.857   1.507  16.205 -0.4259 -1.5377 -2.5062
11727TIP3   OH256595   0.129   3.823  14.492 -0.3085  0.1286 -0.2583
11727TIP3    H156596   0.072   3.840  14.417 -3.3436  1.0745  2.0690
11727TIP3    H256597   0.137   3.908  14.536  1.0165 -0.4907  0.7688
11728TIP3   OH256598   5.889   3.931  14.099  0.4789 -0.2751 -0.3920
11728TIP3    H156599   5.905   3.953  14.191  1.8786 -0.9327 -0.4542
11728TIP3    H256600   5.945   3.993  14.050 -0.5406  0.3216 -0.8313
11729TIP3   OH256601   6.000   2.276   4.991 -0.5947 -0.3528  0.4139
11729TIP3    H156602   5.942   2.205   5.017  0.2871 -0.6232  1.7760
11729TIP3    H256603   5.964   2.354   5.033 -0.3570 -0.3990  0.7079
11730TIP3   OH256604   6.274   5.866  11.665  0.0241  0.0856 -0.3471
11730TIP3    H156605   6.272   5.953  11.706  0.4752  0.1669 -0.4974
11730TIP3    H256606   6.364   5.837  11.673 -0.1518 -0.4341 -0.1825
11731TIP3   OH256607   2.929   2.367   4.840  0.0437 -0.0663  0.3391
11731TIP3    H156608   2.882   2.451   4.837  1.3408  1.0016  4.1034
11731TIP3    H256609   2.882   2.311   4.778 -2.0110  2.8528 -0.9885
11732TIP3   OH256610   5.373   0.268  13.857 -0.4227  0.3128  0.5167
11732TIP3    H156611   5.311   0.200  13.829 -1.0768  0.8391  0.6540
11732TIP3    H256612   5.328   0.350  13.839  1.7195  0.9143 -3.0697
11733TIP3   OH256613   5.634   4.330   3.967 -0.0399  0.2545  0.1355
11733TIP3    H156614   5.600   4.284   4.044 -0.5528  1.8760  0.9335
11733TIP3    H256615   5.726   4.304   3.963  0.2095  0.7298  1.7965
11734TIP3   OH256616   6.734   0.331  11.998 -0.4001  0.4901 -0.4874
11734TIP3    H156617   6.793   0.322  11.923 -0.0364 -1.9662  0.0068
11734TIP3    H256618   6.649   0.353  11.960  0.5865  3.4948 -1.2589
11735TIP3   OH256619   3.142   5.662  11.827  0.1605 -0.2275 -0.0497
11735TIP3    H156620   3.169   5.725  11.893  1.1482  0.3629 -0.9852
11735TIP3    H256621   3.199   5.680  11.752 -1.6634 -0.1185 -1.4733
11736TIP3   OH256622   0.157   1.824  13.886  0.8776 -0.0205  0.0210
11736TIP3    H156623   0.091   1.808  13.953 -0.9427  1.0050 -1.4313
11736TIP3    H256624   0.194   1.738  13.867 -0.1798 -0.6592  0.7437
11737TIP3   OH256625   3.194   6.481   0.013 -0.3481 -0.1686  0.1000
11737TIP3    H156626   3.212   6.513  -0.076 -2.8562  1.1202 -0.0145
11737TIP3    H256627   3.212   6.387   0.008  0.5080  0.0368 -1.4800
11738TIP3   OH256628   4.856   5.967  14.764 -0.1685 -0.2327 -0.5826
11738TIP3    H156629   4.853   5.905  14.691  0.0880 -1.5778  0.5104
11738TIP3    H256630   4.766   5.995  14.776 -0.5579 -1.6285 -0.0916
11739TIP3   OH256631   2.698   1.477  16.333 -0.6857 -0.0430 -0.0457
11739TIP3    H156632   2.718   1.492  16.426 -1.4524 -1.3257  0.3460
11739TIP3    H256633   2.763   1.412  16.305 -1.2189 -0.5710 -0.0706
11740TIP3   OH256634   5.042   4.887  10.615 -0.6187 -0.4125  0.0953
11740TIP3    H156635   5.064   4.814  10.674  1.3371  0.3464  0.3975
11740TIP3    H256636   5.044   4.848  10.527  0.6082 -0.7267  0.2359
11741TIP3   OH256637   2.409   0.459   3.919  0.1284  0.2522 -0.2232
11741TIP3    H156638   2.409   0.496   3.831  1.0070 -0.9615 -0.7584
11741TIP3    H256639   2.351   0.383   3.913 -0.0545  0.3441  0.3306
11742TIP3   OH256640   5.323   5.703  14.711 -0.5404  0.4280  0.1772
11742TIP3    H156641   5.403   5.675  14.668  0.4813  2.2821  0.7565
11742TIP3    H256642   5.342   5.695  14.805 -0.9666  1.0574  0.3238
11743TIP3   OH256643   3.943   4.823  14.091  0.7365  0.3315 -0.4296
11743TIP3    H156644   4.026   4.792  14.125  0.3145 -0.6250 -0.2343
11743TIP3    H256645   3.889   4.837  14.169  0.4656  0.1928 -0.5894
11744TIP3   OH256646   1.366   3.885  13.210 -0.1889  0.4401 -1.0385
11744TIP3    H156647   1.294   3.930  13.255  0.0718  1.1805 -1.3512
11744TIP3    H256648   1.392   3.816  13.271 -0.6931  0.6114 -0.6118
11745TIP3   OH256649   6.723   3.417  16.609  0.0080 -0.4293 -0.7351
11745TIP3    H156650   6.803   3.408  16.660 -0.2465  0.1834 -0.2245
11745TIP3    H256651   6.753   3.415  16.518  0.9023  2.1523 -0.5769
11746TIP3   OH256652   3.154   6.822  10.883 -0.4287 -0.2517  0.0262
11746TIP3    H156653   3.060   6.838  10.897 -0.4035 -0.4762  0.4900
11746TIP3    H256654   3.181   6.890  10.822 -1.3176 -1.3906 -1.7329
11747TIP3   OH256655   6.033   3.487  16.774 -0.8039 -0.1994  0.6768
11747TIP3    H156656   5.953   3.457  16.732 -0.9338 -2.0181  2.1254
11747TIP3    H256657   6.088   3.409  16.783  0.5015  0.7159  1.0724
11748TIP3   OH256658   5.175   3.879   5.561  0.3183 -0.7928  0.1924
11748TIP3    H156659   5.103   3.884   5.498  0.3908 -0.7131  0.1156
11748TIP3    H256660   5.254   3.886   5.507  0.3631  0.4789  0.4049
11749TIP3   OH256661   4.552   6.481  11.023  0.2643  0.3392  0.2388
11749TIP3    H156662   4.474   6.443  10.984  0.3196  2.2935 -1.9818
11749TIP3    H256663   4.523   6.508  11.111 -1.0741 -0.4143  0.0622
11750TIP3   OH256664   4.387   1.672   1.677 -0.0947 -0.2311 -0.2928
11750TIP3    H156665   4.391   1.641   1.587  0.6864  1.3332 -0.8215
11750TIP3    H256666   4.462   1.630   1.720 -0.5717 -1.1205 -0.2908
11751TIP3   OH256667   2.390   4.480  11.460  0.4237  0.3845  0.7055
11751TIP3    H156668   2.299   4.450  11.460  0.4525  0.2707 -0.1177
11751TIP3    H256669   2.412   4.492  11.367  1.8920 -1.5634  0.7340
11752TIP3   OH256670   6.347   2.254  14.766 -0.1790 -0.1427 -0.4821
11752TIP3    H156671   6.258   2.290  14.771 -0.1062 -0.1566  2.0554
11752TIP3    H256672   6.341   2.185  14.699 -1.9044  0.2890 -0.8265
11753TIP3   OH256673   3.470   2.601  15.745 -0.3470  0.2609  0.3693
11753TIP3    H156674   3.535   2.662  15.781  0.7853  1.2349 -2.9799
11753TIP3    H256675   3.515   2.516  15.744  0.6312  0.7473 -1.0511
11754TIP3   OH256676   4.359   1.326   3.804  0.3529 -0.2841 -0.7016
11754TIP3    H156677   4.270   1.343   3.835  0.5979  0.5688 -0.4229
11754TIP3    H256678   4.367   1.231   3.803 -0.7701 -0.3863 -1.3420
11755TIP3   OH256679   5.599   4.122  16.903  0.0104 -0.0989  0.2480
11755TIP3    H156680   5.636   4.034  16.892  0.9809  0.1939  1.0587
11755TIP3    H256681   5.632   4.171  16.828  0.3440 -0.1453  0.3610
11756TIP3   OH256682   6.374   5.933   1.535 -0.3823 -0.0486  0.0700
11756TIP3    H156683   6.361   6.011   1.482  1.0385 -0.3868 -0.8172
11756TIP3    H256684   6.449   5.952   1.591  0.6287 -1.1209 -0.8759
11757TIP3   OH256685   4.539   6.573   4.756 -0.5396  0.0975  0.1565
11757TIP3    H156686   4.482   6.503   4.727  0.3763 -0.2946 -0.7247
11757TIP3    H256687   4.482   6.630   4.808 -2.6072  1.5139 -3.3406
11758TIP3   OH256688   0.506   4.829   2.587 -0.0321  0.3163  0.1293
11758TIP3    H156689   0.566   4.841   2.660  0.4282  0.0894 -0.2123
11758TIP3    H256690   0.476   4.738   2.594  0.7724 -0.0132 -0.5300
11759TIP3   OH256691   4.223   1.432   4.183 -0.2347  0.1466 -0.2456
11759TIP3    H156692   4.179   1.409   4.102 -0.3112 -1.3308  0.1781
11759TIP3    H256693   4.309   1.462   4.156 -1.2204  2.4914 -1.0426
11760TIP3   OH256694   3.248   2.588  16.898  1.2647 -0.2839  0.2203
11760TIP3    H156695   3.185   2.633  16.842  0.1329  1.5940  2.7957
11760TIP3    H256696   3.313   2.655  16.921  2.2914 -1.2832  0.3203
11761TIP3   OH256697   6.061   4.796   0.195 -0.2006  0.2783  0.4185
11761TIP3    H156698   6.056   4.816   0.288 -0.6992  0.1939  0.4132
11761TIP3    H256699   5.970   4.786   0.168 -0.0912  1.0690 -0.2516
11762TIP3   OH256700   0.687   6.589   4.735  0.2166  0.6674  0.3776
11762TIP3    H156701   0.754   6.610   4.799  1.0183  1.1687 -0.6020
11762TIP3    H256702   0.709   6.642   4.658 -0.9600  0.4020 -0.1656
11763TIP3   OH256703   3.901   3.552  12.979 -0.9248 -0.0934  0.6853
11763TIP3    H156704   3.995   3.557  12.996 -0.9366 -0.6897  0.9480
11763TIP3    H256705   3.885   3.459  12.962 -1.3267  0.1284 -0.1808
11764TIP3   OH256706   5.905   0.670   5.291 -1.0473  0.0868 -0.1177
11764TIP3    H156707   5.921   0.655   5.384  0.5432 -0.0794 -0.4032
11764TIP3    H256708   5.837   0.738   5.289  1.2540  2.6299  1.2258
11765TIP3   OH256709   0.597   4.334  15.583  0.1447 -0.5015 -0.1902
11765TIP3    H156710   0.527   4.358  15.643 -0.7570 -0.6301 -1.1606
11765TIP3    H256711   0.661   4.406  15.590 -1.2943  0.9421 -1.1620
11766TIP3   OH256712   5.029   2.734   0.017  0.3803  0.3809  0.3275
11766TIP3    H156713   5.106   2.709  -0.034 -0.3399 -1.8012  0.2004
11766TIP3    H256714   5.011   2.658   0.071 -1.1541  1.2094  1.0418
11767TIP3   OH256715   1.705   4.287  10.910 -0.1035  0.5976 -0.1146
11767TIP3    H156716   1.679   4.259  10.822 -1.9668 -1.3060  0.9411
11767TIP3    H256717   1.654   4.366  10.926 -0.7428  0.2345 -0.2952
11768TIP3   OH256718   2.564   2.770  14.158  0.6615 -0.4526  0.1695
11768TIP3    H156719   2.603   2.841  14.210 -1.9101 -0.7337  2.7145
11768TIP3    H256720   2.568   2.802  14.067  2.0105  1.7307  0.9247
11769TIP3   OH256721   5.774   3.071  14.336  0.2653  0.5555 -0.2668
11769TIP3    H156722   5.799   3.095  14.246 -0.4116  0.3939 -0.5045
11769TIP3    H256723   5.798   2.979  14.343 -3.1701 -0.6337 -1.6433
11770TIP3   OH256724   3.181   1.604   3.962  0.0662 -1.0012 -0.0230
11770TIP3    H156725   3.145   1.655   4.035 -0.5549 -2.6278  0.8619
11770TIP3    H256726   3.266   1.643   3.945 -1.2141  1.6844 -0.8279
11771TIP3   OH256727   2.168   2.455   5.714 -0.4923  0.5794  0.6649
11771TIP3    H156728   2.113   2.483   5.788 -0.1329 -1.7655  1.9231
11771TIP3    H256729   2.151   2.361   5.706  1.7261  0.2012 -0.2814
11772TIP3   OH256730   4.989   2.125  11.290 -1.0664  0.9603  0.7206
11772TIP3    H156731   5.015   2.042  11.331  1.9915  1.9327  1.0169
11772TIP3    H256732   4.957   2.099  11.203  0.3924 -0.5558  0.5715
11773TIP3   OH256733   1.457   6.653   2.407 -0.5790  0.2098 -0.5759
11773TIP3    H156734   1.508   6.716   2.459 -0.1775  1.2580 -2.1815
11773TIP3    H256735   1.371   6.693   2.399 -1.3694 -1.0135  1.1265
11774TIP3   OH256736   6.775   3.903  15.401 -0.8172  0.2672 -0.1985
11774TIP3    H156737   6.733   3.817  15.408 -0.0410 -0.0944  0.1076
11774TIP3    H256738   6.817   3.902  15.315  0.0232 -0.0540  0.2023
11775TIP3   OH256739   2.562   4.585  12.118  0.1685  0.4613  0.0994
11775TIP3    H156740   2.530   4.503  12.156  1.2968 -0.8214 -1.5810
11775TIP3    H256741   2.486   4.644  12.120 -0.7436 -0.7105  1.0861
11776TIP3   OH256742   0.053   3.582  14.595 -0.2597 -0.2904  0.2432
11776TIP3    H156743   0.098   3.666  14.592  1.3229 -1.1201 -0.4054
11776TIP3    H256744  -0.039   3.603  14.580 -0.2771  1.5676  2.5143
11777TIP3   OH256745   2.836   4.971   1.555 -0.4978  0.2757  0.0355
11777TIP3    H156746   2.781   5.031   1.504 -0.9308 -0.0023  0.1668
11777TIP3    H256747   2.917   5.019   1.570 -0.5423  0.5301 -0.5280
11778TIP3   OH256748   6.511   2.645  12.122 -0.4856 -0.2658 -0.3019
11778TIP3    H156749   6.428   2.675  12.085 -1.1106 -0.8260  0.6138
11778TIP3    H256750   6.534   2.713  12.187 -0.6283 -0.4977 -0.0061
11779TIP3   OH256751   4.600   5.558  14.707  0.0807  0.1224  0.6694
11779TIP3    H156752   4.529   5.516  14.658 -1.0337 -0.4536  2.6821
11779TIP3    H256753   4.555   5.609  14.775  1.5816  0.2179  1.6274
11780TIP3   OH256754   0.694   0.287   0.267 -0.0129 -0.6898 -0.4775
11780TIP3    H156755   0.713   0.355   0.203 -1.2751  0.5687  0.4377
11780TIP3    H256756   0.699   0.331   0.351 -1.6905 -1.5021  0.0939
11781TIP3   OH256757   3.380   3.106  11.371 -0.3354  0.1755 -0.4778
11781TIP3    H156758   3.337   3.098  11.456  0.6448 -0.3304 -0.0220
11781TIP3    H256759   3.325   3.054  11.312 -0.2416 -0.6507  0.1442
11782TIP3   OH256760   5.009   1.790  13.357 -0.1070 -0.0825  0.6939
11782TIP3    H156761   5.063   1.756  13.285  0.1051 -0.1317  0.8760
11782TIP3    H256762   5.013   1.722  13.424 -0.7672 -0.2948  0.5286
11783TIP3   OH256763   3.742   6.320   6.165  0.0294 -0.1841 -0.1274
11783TIP3    H156764   3.677   6.288   6.227 -0.8194 -1.1653 -1.4476
11783TIP3    H256765   3.807   6.249   6.160 -0.2115 -0.3693 -0.7609
11784TIP3   OH256766   5.636   1.845  13.922  0.5053 -0.0052  0.8468
11784TIP3    H156767   5.574   1.782  13.958  2.0387 -2.0781  0.0401
11784TIP3    H256768   5.669   1.893  13.998  0.3746 -1.2124  1.6916
11785TIP3   OH256769   0.143   0.073   2.435  0.1081 -0.8661 -0.0328
11785TIP3    H156770   0.117   0.129   2.361  0.1733 -3.5719 -2.2892
11785TIP3    H256771   0.233   0.048   2.415 -0.8719 -4.1692 -0.8712
11786TIP3   OH256772   5.675   1.067  13.093  0.5609 -0.1747  0.0086
11786TIP3    H156773   5.719   1.060  13.178 -0.0825 -0.4093  0.3402
11786TIP3    H256774   5.592   1.110  13.113  1.2457  1.6073 -0.8417
11787TIP3   OH256775   3.316   0.695   2.363 -0.7626 -0.0236 -0.4976
11787TIP3    H156776   3.281   0.743   2.288  1.0765  1.4595 -0.4657
11787TIP3    H256777   3.263   0.615   2.366 -1.9883  0.6345 -2.3351
11788TIP3   OH256778   5.115   2.509   3.145 -0.0025 -0.6978 -0.2339
11788TIP3    H156779   5.200   2.491   3.105  0.5290  0.6857  0.2156
11788TIP3    H256780   5.117   2.461   3.228  0.8677  0.3356  0.3622
11789TIP3   OH256781   4.812   0.685  10.634 -0.1335 -0.1779  0.4428
11789TIP3    H156782   4.719   0.682  10.612 -0.4806 -0.7757  1.8585
11789TIP3    H256783   4.822   0.621  10.706  1.5746 -0.9532 -0.4184
11790TIP3   OH256784   2.952   6.758   1.780  0.1239 -0.1479 -0.3900
11790TIP3    H156785   3.016   6.722   1.841 -0.2488 -2.4232 -1.2306
11790TIP3    H256786   3.001   6.775   1.700  0.1067  0.2591 -0.3141
11791TIP3   OH256787   5.032   0.631  11.253  0.3204 -0.1198 -0.1552
11791TIP3    H156788   5.057   0.634  11.161 -0.4324  1.6782 -0.3387
11791TIP3    H256789   5.105   0.587  11.296  0.2799 -1.8334 -1.7026
11792TIP3   OH256790   3.097   2.468  11.843 -0.3940 -0.0213 -0.1389
11792TIP3    H156791   3.106   2.396  11.906 -0.5708 -0.3824 -0.5248
11792TIP3    H256792   3.179   2.517  11.852  0.8035 -1.6184 -1.5345
11793TIP3   OH256793   5.506   0.826   2.123  0.2820 -0.5729 -0.4240
11793TIP3    H156794   5.586   0.811   2.071  1.0204 -0.7409  0.7361
11793TIP3    H256795   5.458   0.743   2.115  0.8621 -0.9572 -0.0429
11794TIP3   OH256796   5.176   0.253   1.977  0.0660 -0.2183 -0.3198
11794TIP3    H156797   5.265   0.254   1.940  0.1561  1.1346 -0.1350
11794TIP3    H256798   5.129   0.320   1.927 -0.6527 -0.4314  0.0561
11795TIP3   OH256799   1.135   4.471   2.417 -0.2921 -0.0651 -1.0000
11795TIP3    H156800   1.068   4.469   2.348  0.5141 -0.4903 -1.7928
11795TIP3    H256801   1.088   4.447   2.497 -1.2992  0.6941 -1.3493
11796TIP3   OH256802   2.508   2.543   1.443 -0.4140  0.2670  0.0556
11796TIP3    H156803   2.493   2.450   1.428 -1.3023  0.6367 -1.5308
11796TIP3    H256804   2.526   2.579   1.356  1.5961  1.3109  0.8452
11797TIP3   OH256805   3.257   6.391  10.928  0.5295 -0.3357  0.0475
11797TIP3    H156806   3.176   6.354  10.893  0.6032  0.2313 -0.7447
11797TIP3    H256807   3.327   6.347  10.880  0.6009  1.3771 -1.5188
11798TIP3   OH256808   0.026   1.347  17.034  0.1729  0.2282 -0.4132
11798TIP3    H156809   0.069   1.273  17.077 -0.2779  0.8746  1.2204
11798TIP3    H256810   0.098   1.395  16.992  0.4514 -1.1942 -1.6445
11799TIP3   OH256811   6.312   1.060   2.024 -0.5678 -0.2565 -0.1062
11799TIP3    H156812   6.238   1.104   1.981 -1.9963  0.7179  3.0594
11799TIP3    H256813   6.389   1.108   1.993 -1.5707  0.8471 -0.9880
11800TIP3   OH256814   5.768   1.571   3.103 -0.0495 -1.0331  0.0802
11800TIP3    H156815   5.833   1.571   3.173  2.7610 -0.3736 -2.3020
11800TIP3    H256816   5.705   1.639   3.128  2.2751  1.0015  0.8777
11801TIP3   OH256817   6.450   6.621   5.161 -0.5676  0.1729 -0.6092
11801TIP3    H156818   6.497   6.541   5.185  2.0070  1.2002 -1.9328
11801TIP3    H256819   6.430   6.611   5.068  3.0201  2.3920 -1.8293
11802TIP3   OH256820   6.205   0.228   4.286 -0.1701  0.1498  0.1661
11802TIP3    H156821   6.150   0.196   4.357  0.3828  0.2564  0.6528
11802TIP3    H256822   6.152   0.295   4.242 -2.1068 -2.5739 -2.0262
11803TIP3   OH256823   4.014   0.758   5.660  0.5955 -0.2748  0.8417
11803TIP3    H156824   4.038   0.831   5.603  1.4775 -1.0547  0.1879
11803TIP3    H256825   3.919   0.765   5.668  0.5189  0.2203 -0.2447
11804TIP3   OH256826   4.254   5.974  15.982 -0.1363  0.2440 -0.2485
11804TIP3    H156827   4.334   5.991  16.031  1.2968 -4.2698 -0.5307
11804TIP3    H256828   4.283   5.961  15.892 -1.5924  0.9678 -0.8622
11805TIP3   OH256829   0.089   6.354  15.003  0.1632 -0.5471 -0.5236
11805TIP3    H156830   0.057   6.274  14.963 -0.1066 -1.5062  1.4879
11805TIP3    H256831   0.118   6.327  15.090  1.8432  1.2042 -0.4704
11806TIP3   OH256832   6.311   2.747   3.012  0.5170  0.0862  0.3119
11806TIP3    H156833   6.362   2.828   3.010 -0.1175  0.5306  1.3072
11806TIP3    H256834   6.360   2.686   2.958  0.3948  1.4993 -1.4889
11807TIP3   OH256835   1.688   6.143   1.720 -0.5143  0.4630 -0.4075
11807TIP3    H156836   1.635   6.075   1.678  0.2189  0.1741 -0.8807
11807TIP3    H256837   1.704   6.111   1.809 -0.9699  0.4631 -0.3250
11808TIP3   OH256838   1.601   2.893  11.675 -0.4504 -0.0609 -0.3672
11808TIP3    H156839   1.524   2.899  11.618 -1.6494 -0.5414  1.1134
11808TIP3    H256840   1.636   2.805  11.659 -0.0206  0.2718 -1.2677
11809TIP3   OH256841   6.115   4.023  11.902  0.2597 -0.2068  0.1671
11809TIP3    H156842   6.067   4.034  11.821  0.4090  0.9078  0.2081
11809TIP3    H256843   6.066   3.958  11.952 -1.7509  1.5268  0.5846
11810TIP3   OH256844   1.213   1.188  11.703 -0.8036 -0.0128  0.1343
11810TIP3    H156845   1.282   1.169  11.639  0.4540 -0.9943  1.6932
11810TIP3    H256846   1.260   1.219  11.780 -2.3767  2.4448  0.1880
11811TIP3   OH256847   3.629   2.766  13.530  0.0074  0.1791 -0.0885
11811TIP3    H156848   3.711   2.814  13.538 -0.0041 -0.1254  2.9138
11811TIP3    H256849   3.563   2.833  13.511  0.6294  0.7130 -0.4042
11812TIP3   OH256850   2.617   0.529   2.025 -1.1800  0.0033 -0.2398
11812TIP3    H156851   2.654   0.459   2.078  0.5558  0.9712 -0.1003
11812TIP3    H256852   2.645   0.508   1.935 -2.2321 -0.4475 -0.4774
11813TIP3   OH256853   3.007   4.839  12.177  0.3934  0.5273 -0.0636
11813TIP3    H156854   3.087   4.811  12.134  0.0682  0.3413 -0.5585
11813TIP3    H256855   2.956   4.881  12.108  0.7947  2.1946  0.6214
11814TIP3   OH256856   6.491   5.823   3.684  0.1690  0.5638  0.3437
11814TIP3    H156857   6.398   5.838   3.667 -0.2776 -0.9576  1.2443
11814TIP3    H256858   6.494   5.794   3.775  1.4415 -0.0997  0.1100
11815TIP3   OH256859   0.985   0.141   5.563  0.0843 -0.2817  0.5262
11815TIP3    H156860   0.966   0.135   5.657 -0.5046  1.7061  0.5757
11815TIP3    H256861   0.900   0.140   5.521  0.2866  0.1112  0.1047
11816TIP3   OH256862   3.486   0.731  15.935 -0.2301 -0.0438  0.1929
11816TIP3    H156863   3.467   0.762  16.023  0.3471  1.4264 -0.1753
11816TIP3    H256864   3.572   0.690  15.941 -0.8243 -1.2706  0.5993
11817TIP3   OH256865   3.459   4.261  10.980  0.6067 -0.2597 -0.2522
11817TIP3    H156866   3.530   4.303  10.930  0.8048 -0.0349  0.2152
11817TIP3    H256867   3.390   4.247  10.915  1.2428 -0.8829 -0.8127
11818TIP3   OH256868   3.231   6.756  12.956  0.1770 -0.3449 -0.5475
11818TIP3    H156869   3.186   6.686  12.908 -0.7660 -1.2667  1.5502
11818TIP3    H256870   3.324   6.735  12.947 -0.0680 -1.5981 -0.3711
11819TIP3   OH256871   1.176   6.705   0.577 -0.0044 -0.2325  0.6255
11819TIP3    H156872   1.259   6.704   0.529 -0.9161  0.7233 -1.0815
11819TIP3    H256873   1.121   6.766   0.528 -1.3167  0.0946  2.4219
11820TIP3   OH256874   1.127   1.908   0.548  0.3975 -0.0800 -0.1207
11820TIP3    H156875   1.054   1.892   0.488  1.1292 -0.3187 -0.9750
11820TIP3    H256876   1.184   1.968   0.500  1.9432 -1.7426 -0.4918
11821TIP3   OH256877   6.168   2.767  16.011 -0.1170 -0.1534 -0.2737
11821TIP3    H156878   6.109   2.787  15.938 -0.8434 -0.0866  0.3081
11821TIP3    H256879   6.256   2.771  15.974 -0.3808  1.4041 -0.8014
11822TIP3   OH256880   3.753   1.042  15.537 -0.3834  0.2190  0.0340
11822TIP3    H156881   3.761   1.012  15.446  1.1956 -2.8606  1.0718
11822TIP3    H256882   3.842   1.064  15.563 -0.2099 -2.1667  1.7599
11823TIP3   OH256883   0.695   2.619   5.547 -0.3741  0.1782 -0.2783
11823TIP3    H156884   0.605   2.640   5.570  0.3665  2.1480  1.1097
11823TIP3    H256885   0.696   2.619   5.451 -1.8079  0.1818 -0.3181
11824TIP3   OH256886   4.513   2.144  14.540  0.0055 -0.0670  0.5120
11824TIP3    H156887   4.449   2.075  14.521  1.5446 -1.5980  0.7230
11824TIP3    H256888   4.590   2.121  14.489  0.8083  1.1252  1.1443
11825TIP3   OH256889   6.059   6.039  14.055  0.3090 -0.0014  0.1937
11825TIP3    H156890   6.017   5.958  14.028 -0.0467  0.0638  0.5374
11825TIP3    H256891   6.023   6.057  14.142  0.2990  0.5798  0.0755
11826TIP3   OH256892   2.112   6.248   6.379 -0.2128 -0.2395  0.3778
11826TIP3    H156893   2.196   6.216   6.411 -0.5572 -1.8346 -0.2036
11826TIP3    H256894   2.050   6.179   6.403 -1.2385  0.6146  0.2320
11827TIP3   OH256895   6.157   3.219   5.753 -0.0271  0.6683 -0.2566
11827TIP3    H156896   6.188   3.308   5.735  1.5084  0.5277  1.3607
11827TIP3    H256897   6.236   3.171   5.780 -1.2596 -0.3908  1.7169
11828TIP3   OH256898   6.467   1.532  11.552  0.2987  0.5300  0.0742
11828TIP3    H156899   6.528   1.588  11.598  1.1473 -0.3351  0.0437
11828TIP3    H256900   6.522   1.475  11.498 -0.3971 -1.3095  1.1767
11829TIP3   OH256901   3.738   4.504  11.409  0.4481 -0.2578  0.2224
11829TIP3    H156902   3.796   4.481  11.482  1.6477  3.0471  0.4651
11829TIP3    H256903   3.763   4.593  11.386 -2.6942  0.2797 -1.5888
11830TIP3   OH256904   1.009   3.897   0.047 -0.4536  0.6940  0.5614
11830TIP3    H156905   1.012   3.803   0.066  0.5053  0.4438 -0.7412
11830TIP3    H256906   0.967   3.903  -0.039  1.0638  1.3121 -0.1723
11831TIP3   OH256907   0.596   1.222  16.116 -0.5844 -0.1447 -0.2233
11831TIP3    H156908   0.508   1.193  16.139 -0.4417 -0.5928 -0.2434
11831TIP3    H256909   0.654   1.177  16.178 -0.2438 -0.9798 -1.1239
11832TIP3   OH256910   3.842   3.464  16.716  0.3663  0.2007  0.3883
11832TIP3    H156911   3.766   3.519  16.695  2.6755  3.9253  0.8852
11832TIP3    H256912   3.898   3.470  16.639  1.1050 -0.7221  0.8358
11833TIP3   OH256913   0.263   6.427  15.917 -0.1652 -0.5778  0.2598
11833TIP3    H156914   0.314   6.509  15.914 -0.4817 -0.3460  0.9679
11833TIP3    H256915   0.175   6.453  15.890 -0.1854 -0.7576  0.1524
11834TIP3   OH256916   1.384   5.074   2.230 -0.0435  0.1244 -0.1968
11834TIP3    H156917   1.305   5.029   2.260 -0.8020  1.7573  0.3792
11834TIP3    H256918   1.415   5.021   2.157 -1.9651 -0.3069 -0.7717
11835TIP3   OH256919   3.214   4.568   2.689 -0.1170  0.5550 -0.9255
11835TIP3    H156920   3.194   4.477   2.712  2.9240 -0.5004 -1.8021
11835TIP3    H256921   3.203   4.617   2.770 -1.4694 -0.6383 -0.3398
11836TIP3   OH256922   2.701   3.369   3.407 -0.1351  0.1213 -0.5366
11836TIP3    H156923   2.723   3.412   3.324  1.3974  2.1456  0.8394
11836TIP3    H256924   2.610   3.395   3.423 -0.4507 -0.2904 -1.5354
11837TIP3   OH256925   4.264   3.504  14.073 -0.3488  0.3785  0.1284
11837TIP3    H156926   4.305   3.449  14.006 -0.2412  0.0591  0.4552
11837TIP3    H256927   4.285   3.462  14.156 -2.1559 -0.3473  0.2673
11838TIP3   OH256928   6.090   2.773  12.875  0.2801  0.0850 -0.2227
11838TIP3    H156929   6.102   2.686  12.913  1.7662 -0.3492 -1.5505
11838TIP3    H256930   6.173   2.818  12.893  0.7174  0.1366 -2.1345
11839TIP3   OH256931   3.029   6.559  12.284  0.2431 -0.3698  0.1882
11839TIP3    H156932   3.104   6.592  12.235 -0.1692 -0.0670 -0.2513
11839TIP3    H256933   2.974   6.636  12.298 -1.7720 -1.1006 -2.6800
11840TIP3   OH256934   4.686   6.097   0.342  0.3765  0.2825 -0.1336
11840TIP3    H156935   4.622   6.116   0.273 -1.3959 -0.5723  1.2028
11840TIP3    H256936   4.649   6.137   0.421  0.6701 -1.6000  1.0033
11841TIP3   OH256937   5.020   3.601  13.523  0.0864 -0.3898 -0.0710
11841TIP3    H156938   5.058   3.642  13.445  2.0416 -2.8189 -0.5024
11841TIP3    H256939   5.082   3.618  13.593 -0.5418 -0.1403  0.4352
11842TIP3   OH256940   2.850   2.487  14.794 -0.3909  0.0578  0.5470
11842TIP3    H156941   2.887   2.532  14.718  2.6721  0.6308  2.2574
11842TIP3    H256942   2.796   2.554  14.837  1.1268  0.9928  1.0437
11843TIP3   OH256943   1.985   1.131  11.214 -0.1800  0.5622  0.4356
11843TIP3    H156944   2.078   1.157  11.213 -0.3227  1.2967 -2.3018
11843TIP3    H256945   1.943   1.193  11.273  1.0241  0.3717  1.5282
11844TIP3   OH256946   5.861   5.669  14.689 -0.0810  0.5721  0.4609
11844TIP3    H156947   5.799   5.655  14.760 -0.4533  2.9770  0.6901
11844TIP3    H256948   5.922   5.595  14.695 -0.0816  0.7143  3.2707
11845TIP3   OH256949   4.781   6.037   2.854 -0.1229  0.4614 -0.7285
11845TIP3    H156950   4.694   6.076   2.848  0.0068  0.8157 -0.3346
11845TIP3    H256951   4.823   6.083   2.927  0.2907  0.0918 -0.7317
11846TIP3   OH256952   5.829   1.913   4.071  0.0813  0.1135 -0.3209
11846TIP3    H156953   5.757   1.850   4.072 -0.9700  1.2584  1.1455
11846TIP3    H256954   5.796   1.986   4.018  1.0488 -0.2609 -1.4856
11847TIP3   OH256955   6.019   4.982  12.791 -0.1063  0.0668  0.4845
11847TIP3    H156956   6.063   5.066  12.778  0.7246 -0.6051 -1.2728
11847TIP3    H256957   5.926   5.003  12.788  0.0821  1.0246  0.8804
11848TIP3   OH256958   4.868   4.955   6.548 -0.0419  0.1751  0.3000
11848TIP3    H156959   4.904   4.982   6.632 -0.3644 -0.9700  0.8275
11848TIP3    H256960   4.902   4.866   6.535  0.0570  0.3582 -0.8206
11849TIP3   OH256961   1.573   0.707   4.855  0.4801  0.1993  0.8810
11849TIP3    H156962   1.499   0.654   4.886  3.0103 -4.3929  0.0681
11849TIP3    H256963   1.618   0.733   4.935 -1.6388  2.8584  1.3742
11850TIP3   OH256964   1.322   0.959  11.106 -0.1878  0.1210 -0.2629
11850TIP3    H156965   1.227   0.961  11.117 -0.1979  0.4210 -0.3813
11850TIP3    H256966   1.336   0.985  11.015 -0.0073 -0.2361 -0.3398
11851TIP3   OH256967   6.321   2.550  16.869  0.6314 -0.2966 -0.0348
11851TIP3    H156968   6.402   2.507  16.840  1.2305  0.0094  1.1157
11851TIP3    H256969   6.339   2.644  16.859  0.0791 -0.2519 -0.6338
11852TIP3   OH256970   2.606   6.551  12.402 -0.2123  0.2054 -0.4284
11852TIP3    H156971   2.514   6.579  12.403 -0.9418 -1.9790  0.7088
11852TIP3    H256972   2.644   6.599  12.328 -2.4287  0.7128 -1.3472
11853TIP3   OH256973   1.810   5.498   4.065  0.1413 -1.1288 -0.1351
11853TIP3    H156974   1.894   5.482   4.024  0.5322  0.5371 -0.0798
11853TIP3    H256975   1.822   5.472   4.157  1.2575  0.8627  0.3488
11854TIP3   OH256976   4.182   3.617  13.072 -0.7619 -0.7364 -0.0927
11854TIP3    H156977   4.267   3.595  13.034  0.5878 -0.6845  2.6339
11854TIP3    H256978   4.173   3.711  13.059 -1.0002 -0.9257 -1.4310
11855TIP3   OH256979   0.246   0.447   4.381  0.2529 -0.1618  0.0648
11855TIP3    H156980   0.166   0.394   4.377  0.9165 -1.1494 -1.0049
11855TIP3    H256981   0.222   0.529   4.337  0.2027 -1.0280 -1.6165
11856TIP3   OH256982   2.186   3.567   5.248 -0.5052  0.4496 -0.6665
11856TIP3    H156983   2.212   3.538   5.161 -0.0860 -0.4636 -0.2475
11856TIP3    H256984   2.214   3.659   5.252  0.6465  0.1311 -1.0319
11857TIP3   OH256985   4.797   1.868   4.570  0.0925 -0.1471  0.2134
11857TIP3    H156986   4.805   1.962   4.590  0.3509 -0.3479  1.1248
11857TIP3    H256987   4.718   1.841   4.616  0.0035 -0.3758 -0.0726
11858TIP3   OH256988   5.802   5.551  13.264  0.0141 -0.0784 -0.0562
11858TIP3    H156989   5.793   5.622  13.329 -2.0014 -1.8593  1.7846
11858TIP3    H256990   5.712   5.534  13.235  0.8473  0.7084 -3.5450
11859TIP3   OH256991   3.162   1.616   5.998  0.6344 -1.1011 -0.5631
11859TIP3    H156992   3.140   1.594   6.089  0.3076 -1.8027 -0.8016
11859TIP3    H256993   3.118   1.549   5.946  1.1870 -0.9721 -1.2146
11860TIP3   OH256994   1.655   1.169   6.084 -0.1388 -0.0834  0.0504
11860TIP3    H156995   1.721   1.118   6.036 -0.2510 -0.3842  0.2156
11860TIP3    H256996   1.704   1.212   6.154  0.1546  0.9195 -0.7447
11861TIP3   OH256997   4.204   5.064   0.594 -0.5972  0.1591 -0.1054
11861TIP3    H156998   4.138   5.102   0.536 -0.4876  1.5164  0.6117
11861TIP3    H256999   4.215   5.130   0.664  1.2745 -0.1785 -0.0319
11862TIP3   OH257000   6.685   5.930   0.761 -0.0187  0.0790  0.2241
11862TIP3    H157001   6.751   5.885   0.814  0.3038 -1.8108 -1.6296
11862TIP3    H257002   6.736   5.982   0.698 -0.3334  0.2711  0.1248
11863TIP3   OH257003   6.011   5.112  11.837 -0.3042  0.5171  0.7157
11863TIP3    H157004   5.984   5.122  11.746 -1.1661 -2.1713  0.5635
11863TIP3    H257005   5.974   5.188  11.882 -0.8491  1.3050 -0.9771
11864TIP3   OH257006   2.546   3.267  11.104 -0.0589  0.2455  0.1850
11864TIP3    H157007   2.500   3.192  11.142 -0.8783  0.4347 -0.4288
11864TIP3    H257008   2.561   3.326  11.178 -0.8818  0.2261  0.3696
11865TIP3   OH257009   1.764   4.328  15.208  0.3215  0.8109 -0.0223
11865TIP3    H157010   1.708   4.394  15.247 -1.0382 -0.6615  0.6417
11865TIP3    H257011   1.844   4.330  15.259  0.2737  1.8988  0.0157
11866TIP3   OH257012   5.211   6.299   1.376  0.1083  0.3859  0.5165
11866TIP3    H157013   5.145   6.245   1.332  1.3117 -1.5880  1.0347
11866TIP3    H257014   5.246   6.243   1.445  1.6981  1.6990  0.8357
11867TIP3   OH257015   5.831   4.382  14.538 -0.6361  0.7526 -0.0617
11867TIP3    H157016   5.755   4.438  14.548  0.5423  2.0579  2.3791
11867TIP3    H257017   5.890   4.430  14.479 -0.9826  0.5029 -0.6227
11868TIP3   OH257018   1.873   4.721  15.578  0.0188 -0.5630 -0.4783
11868TIP3    H157019   1.893   4.769  15.497 -1.7906  1.2304  0.0583
11868TIP3    H257020   1.790   4.677  15.559 -2.1795  2.4461  1.2710
11869TIP3   OH257021   6.562   6.545   2.591 -0.7576  0.0733  0.1304
11869TIP3    H157022   6.634   6.536   2.654 -0.0308  1.2335 -0.5085
11869TIP3    H257023   6.605   6.568   2.508 -1.6880 -1.4388 -0.8275
11870TIP3   OH257024   1.258   5.017  16.313 -0.0804  0.1946  0.5261
11870TIP3    H157025   1.283   4.973  16.394 -0.7322 -1.4943 -0.1607
11870TIP3    H257026   1.191   5.080  16.340  0.8518  0.8234  1.5093
11871TIP3   OH257027   4.361   5.918   5.510 -0.4630  0.1350  0.1351
11871TIP3    H157028   4.388   6.009   5.509  1.8405 -0.4679  1.1207
11871TIP3    H257029   4.403   5.881   5.588 -1.2484 -1.8013 -0.2931
11872TIP3   OH257030   1.417   2.169   4.915  0.0390  0.1249  0.3086
11872TIP3    H157031   1.446   2.260   4.914  0.1056  0.1046 -0.3816
11872TIP3    H257032   1.444   2.136   5.000 -1.5223  1.2359  1.3062
11873TIP3   OH257033   1.035   5.740   5.393 -0.4133 -0.3855 -0.3144
11873TIP3    H157034   0.944   5.735   5.422  0.0689 -0.1883  1.3404
11873TIP3    H257035   1.032   5.791   5.312 -1.6620  0.5945  0.3248
11874TIP3   OH257036   6.676   1.028  13.617  0.3305  0.3782  0.3571
11874TIP3    H157037   6.609   1.053  13.680 -0.3509 -1.4511  0.4218
11874TIP3    H257038   6.627   1.007  13.537  0.7424 -1.3359  0.5152
11875TIP3   OH257039   0.554   1.280  11.547 -0.3912  0.1071 -0.2016
11875TIP3    H157040   0.534   1.369  11.520 -1.6361 -0.3088 -0.7617
11875TIP3    H257041   0.563   1.232  11.464  1.4256 -0.0726  0.0700
11876TIP3   OH257042   3.651   1.465  13.924 -0.8823 -0.6397  0.4531
11876TIP3    H157043   3.747   1.464  13.928 -0.8176  1.4189  0.1817
11876TIP3    H257044   3.626   1.377  13.952  1.0291 -0.6655  2.4006
11877TIP3   OH257045   4.687   6.226   1.738  0.2557  0.0414  0.4396
11877TIP3    H157046   4.700   6.312   1.779 -0.7837 -0.7466  2.5116
11877TIP3    H257047   4.611   6.239   1.681  0.9549  0.8174 -0.3672
11878TIP3   OH257048   3.448   5.496   0.655  0.1747 -0.0149 -0.4348
11878TIP3    H157049   3.426   5.408   0.684 -1.2955  0.4007 -0.2345
11878TIP3    H257050   3.389   5.554   0.704  1.3525  1.1265 -0.2852
11879TIP3   OH257051   6.674   5.508   6.320  0.2092  0.1114  0.6013
11879TIP3    H157052   6.721   5.427   6.340  0.3975  0.2250  0.6170
11879TIP3    H257053   6.584   5.479   6.303  0.5500 -0.2603 -0.6890
11880TIP3   OH257054   1.086   0.525  11.632  0.3927  0.1345 -0.0951
11880TIP3    H157055   1.086   0.469  11.710 -0.6097  0.3977  0.1050
11880TIP3    H257056   1.037   0.476  11.567  1.8230 -0.3924 -0.8123
11881TIP3   OH257057   5.794   0.647  11.163  0.2607  0.2610 -0.2903
11881TIP3    H157058   5.804   0.678  11.073 -0.0655  1.1363 -0.0359
11881TIP3    H257059   5.823   0.720  11.217  0.3623 -0.2223  0.3195
11882TIP3   OH257060   3.826   1.502   1.840 -0.1026  0.1273 -0.2327
11882TIP3    H157061   3.769   1.578   1.848  0.5740  0.6748 -0.4506
11882TIP3    H257062   3.829   1.465   1.928  1.5250  1.8350  0.4971
11883TIP3   OH257063   0.141   5.919   2.406 -0.2057  0.2346  0.1560
11883TIP3    H157064   0.070   5.963   2.359 -1.0613 -0.0258  1.1618
11883TIP3    H257065   0.119   5.930   2.498  0.0434 -1.4638  0.4529
11884TIP3   OH257066   3.969   4.454   2.192  0.5675 -0.8123 -0.0765
11884TIP3    H157067   3.879   4.486   2.199  1.5049  2.0171  0.6209
11884TIP3    H257068   3.989   4.460   2.098  1.3340  3.0698  0.1506
11885TIP3   OH257069   1.915   4.266  14.082 -0.6024  0.5186  0.0780
11885TIP3    H157070   1.955   4.218  14.154 -1.2381 -0.0002  0.0923
11885TIP3    H257071   1.953   4.228  14.003 -0.4486  0.5883  0.1197
11886TIP3   OH257072   2.010   1.694  16.412 -0.1028 -0.1030  0.4603
11886TIP3    H157073   2.019   1.747  16.333 -1.4121  0.9290  0.9718
11886TIP3    H257074   1.928   1.647  16.400 -0.2496 -0.0335  1.1509
11887TIP3   OH257075   4.236   0.795   2.448 -0.0538 -0.2219 -0.2542
11887TIP3    H157076   4.201   0.758   2.529 -0.0521 -0.5833 -0.4147
11887TIP3    H257077   4.315   0.842   2.476  0.2584 -0.8154 -0.1158
11888TIP3   OH257078   4.354   4.196   1.287  0.4063 -0.6778 -0.1034
11888TIP3    H157079   4.265   4.219   1.264  0.5594 -0.0435 -0.0729
11888TIP3    H257080   4.375   4.252   1.361  0.4727 -1.5613  0.5681
11889TIP3   OH257081   0.364   5.535   5.101  0.4690  0.5161 -0.1555
11889TIP3    H157082   0.297   5.582   5.150 -0.5164 -0.2343 -0.7534
11889TIP3    H257083   0.339   5.546   5.009  0.0319 -1.4215 -0.3002
11890TIP3   OH257084   5.579   0.314   0.571  0.1522  0.0451 -0.3532
11890TIP3    H157085   5.637   0.390   0.577 -0.3238  0.3912 -0.0359
11890TIP3    H257086   5.607   0.268   0.492  1.9118 -0.6707  0.6253
11891TIP3   OH257087   5.682   3.783   0.833 -0.9327 -0.4837  0.2085
11891TIP3    H157088   5.678   3.789   0.738  2.1241 -0.8604 -0.0575
11891TIP3    H257089   5.637   3.701   0.854 -3.0999  0.4216 -0.6836
11892TIP3   OH257090   3.626   0.814  13.011  0.1365  0.6856  0.1785
11892TIP3    H157091   3.538   0.797  13.044 -0.2779  0.2465 -1.0865
11892TIP3    H257092   3.673   0.851  13.086 -1.3221  1.6303  0.6800
11893TIP3   OH257093   3.882   5.998  14.261  0.0292 -0.6772  0.0572
11893TIP3    H157094   3.801   5.972  14.306 -0.7293 -2.7881 -2.3207
11893TIP3    H257095   3.952   5.958  14.313 -0.6370 -1.0710  0.6789
11894TIP3   OH257096   0.760   5.114   2.866 -0.2301  0.4834 -0.2969
11894TIP3    H157097   0.847   5.129   2.902  0.2585  0.9270 -1.6027
11894TIP3    H257098   0.750   5.180   2.798 -2.4274  1.8115  1.1660
11895TIP3   OH257099   0.678   3.096  12.064  0.1730  0.1818 -0.5192
11895TIP3    H157100   0.719   3.009  12.057  0.1444  0.2108 -1.0393
11895TIP3    H257101   0.718   3.147  11.994 -0.6418  0.2602 -0.9369
11896TIP3   OH257102   0.292   5.380  15.758  0.4475 -0.0627  0.0395
11896TIP3    H157103   0.333   5.460  15.791 -1.2198  1.5078 -1.4622
11896TIP3    H257104   0.297   5.319  15.832 -1.3525  2.5873  2.5990
11897TIP3   OH257105   2.116   0.495  12.847 -0.7380  0.6565 -0.3675
11897TIP3    H157106   2.093   0.574  12.799 -0.2986  0.5206 -0.8088
11897TIP3    H257107   2.034   0.447  12.856 -0.8187  0.6703 -0.9995
11898TIP3   OH257108   5.211   2.153   1.208  0.0279 -0.2485  0.4895
11898TIP3    H157109   5.153   2.082   1.182  1.5708 -0.4340 -2.9901
11898TIP3    H257110   5.166   2.232   1.179  0.9344 -0.3155 -1.2020
11899TIP3   OH257111   2.457   4.773   3.706 -0.0270  0.3228 -0.0739
11899TIP3    H157112   2.470   4.862   3.676  0.0485  0.0812 -0.7833
11899TIP3    H257113   2.364   4.769   3.729 -0.2922  0.2796 -1.1113
11900TIP3   OH257114   2.173   3.742   0.589 -0.7243  0.0807  0.0324
11900TIP3    H157115   2.079   3.733   0.575 -0.8321 -0.4757  1.0086
11900TIP3    H257116   2.189   3.837   0.588 -1.4185  0.2082  0.5608
11901TIP3   OH257117   2.289   3.698   4.028 -0.2011 -0.2533  0.2826
11901TIP3    H157118   2.248   3.611   4.033  0.5029 -0.6549 -0.5953
11901TIP3    H257119   2.378   3.680   4.000  0.2223  0.7027  0.9851
11902TIP3   OH257120   2.167   1.047  15.227 -0.1952 -0.2679 -0.1773
11902TIP3    H157121   2.087   1.009  15.191  0.0385  0.4835 -1.5497
11902TIP3    H257122   2.153   1.142  15.223  0.5718 -0.1371  0.0281
11903TIP3   OH257123   5.570   5.697   2.530 -0.0652  0.4723 -0.6800
11903TIP3    H157124   5.627   5.626   2.559 -0.4707  0.6725  0.6528
11903TIP3    H257125   5.494   5.654   2.492 -0.8488  0.1428  1.1718
11904TIP3   OH257126   0.912   1.301   4.539  0.0447  0.1584  0.3927
11904TIP3    H157127   0.846   1.242   4.503 -0.3364  1.2335 -0.7186
11904TIP3    H257128   0.861   1.372   4.578  0.5163  1.3017 -0.9982
11905TIP3   OH257129   6.757   2.716  13.315  0.5492  0.3248  0.0614
11905TIP3    H157130   6.838   2.666  13.321 -0.2517 -1.1213 -0.4815
11905TIP3    H257131   6.765   2.764  13.233  0.4375 -0.6426 -0.5348
11906TIP3   OH257132   0.051   6.194  15.959 -0.2246  0.7403  0.2175
11906TIP3    H157133   0.102   6.229  16.032 -0.9480  1.3516  0.4431
11906TIP3    H257134   0.033   6.271  15.904 -1.2956  0.6261  0.3903
11907TIP3   OH257135   1.995   2.030  15.093 -0.0377  0.5853  0.2000
11907TIP3    H157136   1.924   2.081  15.054  1.0650  1.7648 -0.3417
11907TIP3    H257137   1.951   1.962  15.144 -1.5438  1.3055 -0.0931
11908TIP3   OH257138   6.650   3.221   0.910 -0.3211 -0.0155  0.1191
11908TIP3    H157139   6.584   3.278   0.948 -0.9560 -0.5422 -0.1767
11908TIP3    H257140   6.724   3.279   0.891  0.0986  0.2407  2.3024
11909TIP3   OH257141   1.307   0.212   4.600 -0.5006 -0.4985  0.0557
11909TIP3    H157142   1.385   0.267   4.607 -0.8853  0.0593  0.0262
11909TIP3    H257143   1.234   0.274   4.603 -0.9496 -1.0361  0.3264
11910TIP3   OH257144   6.213   1.963   2.672 -0.1802  0.2389 -0.0954
11910TIP3    H157145   6.185   1.911   2.597 -0.0545  0.9722 -0.6626
11910TIP3    H257146   6.163   2.044   2.664  0.7486  0.8236 -0.0909
11911TIP3   OH257147   5.519   6.496   1.104 -0.2482  0.2142 -0.4509
11911TIP3    H157148   5.432   6.464   1.080  0.2617 -1.4528 -0.1846
11911TIP3    H257149   5.522   6.491   1.199  0.7584 -1.5450 -0.5356
11912TIP3   OH257150   4.922   4.444  14.022  0.5507  0.6598  0.0359
11912TIP3    H157151   4.874   4.363  14.038 -0.5764  1.5302  1.3222
11912TIP3    H257152   4.930   4.450  13.927 -0.1137 -0.5167 -0.1040
11913TIP3   OH257153   3.394   2.861  16.526  0.2305 -0.4867 -0.7352
11913TIP3    H157154   3.463   2.838  16.464  0.1705 -1.9123 -0.3217
11913TIP3    H257155   3.431   2.841  16.612 -0.6079 -1.1112 -0.4929
11914TIP3   OH257156   6.151   6.159  13.010  0.1068  0.6897 -0.3375
11914TIP3    H157157   6.186   6.131  12.926 -2.1358  0.6430 -1.3163
11914TIP3    H257158   6.063   6.191  12.991 -0.4246  0.8210  1.9737
11915TIP3   OH257159   0.717   4.950   3.097  0.2940  0.0421  0.4077
11915TIP3    H157160   0.728   5.008   3.022  0.6634  2.3191  2.1176
11915TIP3    H257161   0.751   4.866   3.067 -1.1482  0.3712 -2.4989
11916TIP3   OH257162   1.058   3.160  16.478  0.0581  0.1890  0.1231
11916TIP3    H157163   1.055   3.204  16.393 -0.5986  0.9536  0.5216
11916TIP3    H257164   1.135   3.196  16.521 -1.4196  2.3887  1.1485
11917TIP3   OH257165   2.697   6.476   0.842  0.2318 -0.1921 -0.1167
11917TIP3    H157166   2.791   6.493   0.830 -0.0874  0.6919 -1.5539
11917TIP3    H257167   2.658   6.494   0.757 -1.1331 -1.5001  0.1933
11918TIP3   OH257168   1.202   5.311   3.620 -0.1244 -0.0496  0.4297
11918TIP3    H157169   1.280   5.328   3.674  0.4076  0.3681 -0.4478
11918TIP3    H257170   1.133   5.364   3.660  0.1578 -0.0569  0.9378
11919TIP3   OH257171   1.957   6.607  15.655  0.5929 -0.0898 -0.2812
11919TIP3    H157172   1.998   6.537  15.705 -0.1049 -0.9979 -0.9346
11919TIP3    H257173   1.993   6.688  15.692  1.9485 -0.8040  0.0135
11920TIP3   OH257174   1.777   6.099   4.319  0.5524  0.2577 -0.1270
11920TIP3    H157175   1.807   6.152   4.393  0.5116 -0.1515  0.1821
11920TIP3    H257176   1.746   6.018   4.358  2.7387 -0.9689 -0.7585
11921TIP3   OH257177   0.020   4.376  15.476 -0.1042  0.1053 -0.7538
11921TIP3    H157178   0.043   4.469  15.476 -0.0745  0.1136  0.3854
11921TIP3    H257179  -0.019   4.361  15.562 -1.0553 -0.7197 -1.3099
11922TIP3   OH257180   0.424   1.690  10.226  0.2505 -0.3349  0.3747
11922TIP3    H157181   0.383   1.616  10.181  1.3271 -0.9147  0.3135
11922TIP3    H257182   0.473   1.650  10.297  0.6125  0.3542  0.5175
11923TIP3   OH257183   5.960   5.208   2.351 -0.4654 -0.0149 -0.1005
11923TIP3    H157184   5.864   5.209   2.351 -0.5117 -0.8099  1.5375
11923TIP3    H257185   5.983   5.139   2.413  1.1850  0.5265 -0.0646
11924TIP3   OH257186   5.893   3.539  16.178 -0.0649 -0.2831  0.4132
11924TIP3    H157187   5.843   3.473  16.129  1.0352 -0.9218  0.1321
11924TIP3    H257188   5.916   3.496  16.260 -1.4636  0.6115  1.3239
11925TIP3   OH257189   1.688   2.534   5.222  0.2116  0.0626  0.4642
11925TIP3    H157190   1.647   2.575   5.146 -0.4105 -0.1150  0.6974
11925TIP3    H257191   1.707   2.607   5.281  0.9842  0.2375  0.0162
11926TIP3   OH257192   0.938   2.760   4.746  0.1288  0.3500  0.1159
11926TIP3    H157193   0.861   2.788   4.697 -1.0692 -1.6547  0.7439
11926TIP3    H257194   0.948   2.667   4.724  2.1076  0.4362  0.4343
11927TIP3   OH257195   0.183   4.822   3.172  0.1693 -0.4349  0.2176
11927TIP3    H157196   0.253   4.761   3.148  1.0252  0.4864  0.2762
11927TIP3    H257197   0.182   4.886   3.101  0.8580  0.7704  1.2569
11928TIP3   OH257198   0.700   6.650  15.749  0.6635  0.1431  0.4739
11928TIP3    H157199   0.648   6.579  15.787  0.4687  0.3839  0.6584
11928TIP3    H257200   0.671   6.656  15.658  1.1345 -0.4387  0.2743
11929TIP3   OH257201   2.456   5.163  13.150  0.0074 -0.1405 -0.9400
11929TIP3    H157202   2.537   5.141  13.197  0.0735 -0.4640 -1.1965
11929TIP3    H257203   2.486   5.206  13.070 -0.0040 -1.3239 -1.6126
11930TIP3   OH257204   0.037   6.606  13.159 -0.5917 -0.3517 -0.4501
11930TIP3    H157205   0.103   6.629  13.224  0.6137  0.6184 -1.9177
11930TIP3    H257206  -0.019   6.684  13.152 -1.4478 -0.8952  0.2600
11931TIP3   OH257207   0.238   0.208   2.724  0.0688 -0.3647  0.4748
11931TIP3    H157208   0.263   0.131   2.775  0.8421 -1.0497 -0.8753
11931TIP3    H257209   0.214   0.274   2.790  0.2644 -1.4561  1.6778
11932TIP3   OH257210   2.332   2.933  16.680  0.6036  0.1810  0.5130
11932TIP3    H157211   2.315   3.001  16.616  0.0214  1.2203  1.7220
11932TIP3    H257212   2.403   2.967  16.734  0.8405 -0.5183  0.6550
11933TIP3   OH257213   0.583   3.144   2.653 -0.3050  0.0125 -0.1340
11933TIP3    H157214   0.549   3.190   2.730 -0.7475  0.4757 -0.5978
11933TIP3    H257215   0.531   3.064   2.647 -1.9199  1.0976 -1.3087
11934TIP3   OH257216   6.731   2.898   1.776 -0.1734 -0.6218  0.1472
11934TIP3    H157217   6.643   2.889   1.739 -0.0327 -0.2324 -0.2934
11934TIP3    H257218   6.719   2.956   1.852 -0.3014 -0.5924  0.1050
11935TIP3   OH257219   3.390   3.814  11.816 -0.1125 -0.4930  0.2386
11935TIP3    H157220   3.420   3.736  11.770 -1.2696 -0.9628  0.2405
11935TIP3    H257221   3.297   3.821  11.794 -0.0543  0.8239  0.3302
11936TIP3   OH257222   6.430   4.660   4.782  0.5229  0.1169 -0.3719
11936TIP3    H157223   6.432   4.651   4.877 -1.0924  2.7252  0.0178
11936TIP3    H257224   6.521   4.647   4.754  0.8548 -1.7446  1.3344
11937TIP3   OH257225   3.675   4.144  11.154  0.7130  0.1155  0.6795
11937TIP3    H157226   3.764   4.126  11.125  1.0641  2.2780  0.2475
11937TIP3    H257227   3.634   4.190  11.081 -0.5072 -0.1359  1.1779
11938TIP3   OH257228   1.137   3.623  16.141 -0.7081  0.1687 -0.3896
11938TIP3    H157229   1.193   3.700  16.141 -1.5270  0.7816  0.3387
11938TIP3    H257230   1.048   3.658  16.132 -0.9786 -0.7937 -1.8267
11939TIP3   OH257231   2.112   0.285  16.318 -0.1923  0.4695 -0.0959
11939TIP3    H157232   2.200   0.302  16.285  0.0146 -0.5229 -0.0730
11939TIP3    H257233   2.104   0.190  16.319 -1.4962  0.5386 -0.7120
11940TIP3   OH257234   4.632   2.649  14.380 -0.2624 -0.0613 -0.2887
11940TIP3    H157235   4.581   2.706  14.437  0.4069  0.2362  0.0317
11940TIP3    H257236   4.621   2.561  14.417  2.8117  0.4980  2.4325
11941TIP3   OH257237   0.562   5.406  13.008 -0.9641 -0.1590 -0.0116
11941TIP3    H157238   0.565   5.335  12.943 -0.8348  1.7643 -2.2325
11941TIP3    H257239   0.644   5.453  12.997 -1.3961  0.8354  0.8263
11942TIP3   OH257240   0.270   1.378   3.730 -0.1802  0.3829  0.0623
11942TIP3    H157241   0.323   1.403   3.805 -0.9990  3.0662 -0.1451
11942TIP3    H257242   0.307   1.294   3.701  1.4818  0.3088  2.1437
11943TIP3   OH257243   6.307   4.726   1.698  0.3735 -0.2499  0.4797
11943TIP3    H157244   6.392   4.681   1.703  0.0808 -0.9605 -0.5385
11943TIP3    H257245   6.251   4.677   1.758  0.5830 -0.0000  0.8844
11944TIP3   OH257246   6.655   1.086   2.665 -0.0962 -0.0752 -0.2921
11944TIP3    H157247   6.636   1.017   2.601 -1.3087 -1.1562  1.1597
11944TIP3    H257248   6.720   1.048   2.724  1.1682  0.9854 -0.9391
11945TIP3   OH257249   1.273   3.299  14.752 -0.1841 -0.3950 -0.5567
11945TIP3    H157250   1.255   3.217  14.798 -0.7119 -0.1266 -0.2808
11945TIP3    H257251   1.238   3.367  14.810  1.0478  0.0984 -0.3486
11946TIP3   OH257252   4.435   4.637   1.937 -0.0316  0.2625 -0.0196
11946TIP3    H157253   4.375   4.570   1.970  1.7903 -1.0689  0.7555
11946TIP3    H257254   4.449   4.696   2.012  0.4259 -0.0479  0.1478
11947TIP3   OH257255   3.048   5.906   6.576  0.5511 -0.3673 -0.3823
11947TIP3    H157256   3.029   5.998   6.594 -2.1735 -1.1628  1.4344
11947TIP3    H257257   2.998   5.886   6.497 -0.1349 -0.6246  0.1046
11948TIP3   OH257258   5.542   5.376   1.586  0.1062  0.1971 -0.6574
11948TIP3    H157259   5.529   5.294   1.634 -0.7836  0.9153  0.3787
11948TIP3    H257260   5.636   5.380   1.570  0.5595  0.1956  1.5835
11949TIP3   OH257261   1.861   5.510  13.823  0.2304  0.0082  0.2418
11949TIP3    H157262   1.931   5.463  13.869  0.2858 -0.1064  0.0404
11949TIP3    H257263   1.880   5.496  13.731  0.6307  0.9940  0.1685
11950TIP3   OH257264   0.771   2.051   2.807  0.2241 -0.4826 -0.1657
11950TIP3    H157265   0.802   2.024   2.894 -0.1201 -1.2691 -0.2793
11950TIP3    H257266   0.737   1.971   2.768 -2.2600  0.3829  0.0733
11951TIP3   OH257267   3.361   3.697   0.861 -0.5521 -0.1270 -0.4341
11951TIP3    H157268   3.433   3.709   0.924 -0.6503 -0.5644 -0.2332
11951TIP3    H257269   3.295   3.648   0.910 -0.2324 -1.3370 -1.1577
11952TIP3   OH257270   3.077   5.102  14.403  0.0930  0.5173  0.2476
11952TIP3    H157271   3.016   5.114  14.476 -0.6686  0.7460 -0.4132
11952TIP3    H257272   3.052   5.170  14.340  1.1651  0.7379  0.0537
11953TIP3   OH257273   4.000   1.769   5.877 -0.0314  0.0256 -0.1295
11953TIP3    H157274   4.020   1.697   5.817 -2.0840 -1.3968  0.7693
11953TIP3    H257275   4.054   1.753   5.954 -0.3193 -0.4470 -0.0230
11954TIP3   OH257276   1.328   5.256   0.373 -0.3316  0.3519  0.4338
11954TIP3    H157277   1.415   5.218   0.369  0.2645  1.5422  1.2836
11954TIP3    H257278   1.320   5.287   0.464  0.0469  3.9465 -0.5935
11955TIP3   OH257279   2.893   1.111  13.374 -0.1314 -0.0160  0.0551
11955TIP3    H157280   2.804   1.077  13.372 -0.1823 -0.1944  2.4053
11955TIP3    H257281   2.888   1.194  13.325 -1.5356 -0.0980  0.0275
11956TIP3   OH257282   4.150   5.449   5.824  1.0966 -0.8567  0.0392
11956TIP3    H157283   4.217   5.515   5.842  0.9986 -0.8542  0.3951
11956TIP3    H257284   4.082   5.464   5.890  0.0222  0.1251 -1.2467
11957TIP3   OH257285   1.644   1.629  11.334  0.3426 -0.1865  0.3853
11957TIP3    H157286   1.642   1.611  11.240  0.2071 -0.1530  0.3812
11957TIP3    H257287   1.733   1.661  11.351  0.5964 -0.8950  0.4042
11958TIP3   OH257288   5.461   5.988   1.383 -0.1768 -0.1645  0.1228
11958TIP3    H157289   5.424   6.051   1.445 -1.1815 -1.4050  0.8398
11958TIP3    H257290   5.456   5.904   1.428 -1.8642 -1.2882 -1.9614
11959TIP3   OH257291   5.020   5.453   3.656  0.1982  0.3769  0.0474
11959TIP3    H157292   5.046   5.368   3.620 -1.0328  0.4147 -0.9681
11959TIP3    H257293   5.103   5.493   3.683  1.3295  0.6824 -3.4773
11960TIP3   OH257294   1.307   5.736  11.909 -0.2464  0.1957  0.1057
11960TIP3    H157295   1.391   5.690  11.901 -0.3483  0.3063 -2.1311
11960TIP3    H257296   1.262   5.690  11.980  1.2355 -0.6149  0.5702
11961TIP3   OH257297   5.938   2.744   4.413 -0.3866  0.1085 -0.1668
11961TIP3    H157298   5.903   2.691   4.341 -1.6563 -0.1635  0.6201
11961TIP3    H257299   6.019   2.699   4.438 -0.5282 -0.4495 -0.6803
11962TIP3   OH257300   4.724   2.725  11.091  0.0179  0.4047  0.0913
11962TIP3    H157301   4.792   2.771  11.043 -0.4278 -1.2073 -2.2736
11962TIP3    H257302   4.671   2.682  11.023 -1.1905 -1.3253  1.9923
11963TIP3   OH257303   2.128   5.418   5.748  0.5062 -0.3167 -0.3804
11963TIP3    H157304   2.156   5.446   5.661 -2.0469 -0.1584 -1.2380
11963TIP3    H257305   2.169   5.481   5.808  1.4338  0.2367 -1.5554
11964TIP3   OH257306   6.365   5.436   1.005 -0.2125  0.5025 -0.2733
11964TIP3    H157307   6.317   5.493   1.065 -0.7129 -0.0724 -0.1136
11964TIP3    H257308   6.430   5.493   0.965 -1.1823  1.3685 -0.6701
11965TIP3   OH257309   0.030   3.683   0.343  0.1929 -0.3939 -0.4079
11965TIP3    H157310   0.047   3.647   0.430 -1.7764 -1.1087 -0.2562
11965TIP3    H257311  -0.064   3.701   0.342 -0.0066 -1.1612 -2.6536
11966TIP3   OH257312   1.755   0.194   5.653 -0.5898 -0.6744  0.1469
11966TIP3    H157313   1.778   0.223   5.741  0.1416 -1.8227  0.3598
11966TIP3    H257314   1.661   0.209   5.646 -0.2721  1.8086  0.1764
11967TIP3   OH257315   3.353   3.884  15.122 -0.2313  0.3753  0.0922
11967TIP3    H157316   3.343   3.976  15.144  0.0462  0.3849  0.1807
11967TIP3    H257317   3.442   3.877  15.087 -1.0876  0.6360 -2.3600
11968TIP3   OH257318   1.868   4.523   2.499  0.0907  0.2624 -0.6890
11968TIP3    H157319   1.935   4.516   2.432 -0.7018  1.1867 -1.6125
11968TIP3    H257320   1.786   4.498   2.454 -0.2848 -0.2369  0.2420
11969TIP3   OH257321   3.671   3.519  13.132  0.2281 -0.0829 -0.5108
11969TIP3    H157322   3.654   3.611  13.149 -0.1806 -0.3415  0.5305
11969TIP3    H257323   3.764   3.516  13.109  0.3684  0.5179 -0.0390
11970TIP3   OH257324   6.370   1.322   2.532  1.0777 -0.0518  0.5656
11970TIP3    H157325   6.276   1.325   2.552  1.2082  1.4579  1.0452
11970TIP3    H257326   6.389   1.406   2.490  1.5288 -1.7213 -2.9401
11971TIP3   OH257327   6.046   5.000   2.523 -0.1558  0.4377  0.3541
11971TIP3    H157328   6.134   4.990   2.487  0.2489 -1.2612  1.6934
11971TIP3    H257329   5.995   4.929   2.483 -0.3791  0.1748  1.0889
11972TIP3   OH257330   2.372   6.706   1.476  0.0408  0.4524  0.1306
11972TIP3    H157331   2.454   6.678   1.436  0.6244  1.7868  0.3367
11972TIP3    H257332   2.398   6.748   1.558 -0.9520 -0.1498  0.7785
11973TIP3   OH257333   2.133   2.497  13.570 -0.3389 -0.0938  0.3190
11973TIP3    H157334   2.169   2.411  13.593  1.5858  0.7611  0.7047
11973TIP3    H257335   2.145   2.504  13.476  3.7120  1.4085  0.7386
11974TIP3   OH257336   4.113   2.127   5.234 -0.2261 -0.0459  0.2829
11974TIP3    H157337   4.157   2.042   5.245  0.3272  0.1897 -0.0628
11974TIP3    H257338   4.020   2.106   5.233 -0.1045 -0.6086  0.5762
11975TIP3   OH257339   1.847   3.861   3.622  0.1585  0.0871 -0.1409
11975TIP3    H157340   1.892   3.890   3.543  0.1082 -2.4255 -1.1904
11975TIP3    H257341   1.901   3.790   3.656 -0.8935 -0.2522  0.8974
11976TIP3   OH257342   5.284   3.603  11.664 -0.1609 -0.1308  0.0293
11976TIP3    H157343   5.354   3.625  11.603  0.8619 -0.0040  1.2013
11976TIP3    H257344   5.320   3.624  11.751 -2.4774  2.1254  0.5680
11977TIP3   OH257345   6.531   0.774   4.663 -0.5681  0.2618  0.5950
11977TIP3    H157346   6.511   0.820   4.582 -1.3408  1.6043  1.5162
11977TIP3    H257347   6.496   0.830   4.733  0.8605 -0.4106  1.9262
11978TIP3   OH257348   0.841   3.968   1.336 -0.0802 -0.5364 -0.5402
11978TIP3    H157349   0.929   3.972   1.374  0.2219  0.1498 -1.2872
11978TIP3    H257350   0.783   4.001   1.404  0.0791 -2.0758  0.3890
11979TIP3   OH257351   1.193   0.659  13.850 -0.3265 -0.6105  0.2465
11979TIP3    H157352   1.142   0.738  13.833  0.7911  0.1044  0.1298
11979TIP3    H257353   1.210   0.622  13.764 -1.9706 -1.7451  0.3594
11980TIP3   OH257354   5.444   4.975  13.119 -0.2132  0.2769 -0.2827
11980TIP3    H157355   5.531   4.950  13.088  0.3561  1.2869  0.4413
11980TIP3    H257356   5.406   5.026  13.047 -0.9735 -1.6571 -1.3465
11981TIP3   OH257357   2.479   0.938   1.327 -0.5407 -0.2955  0.0654
11981TIP3    H157358   2.436   0.960   1.410  0.5943  0.8695  0.3925
11981TIP3    H257359   2.410   0.946   1.261 -1.2108 -0.1224  0.7719
11982TIP3   OH257360   2.655   1.783  13.665 -0.6817  0.1074  0.3585
11982TIP3    H157361   2.710   1.723  13.614 -0.0861 -0.0753  1.2023
11982TIP3    H257362   2.612   1.837  13.598  0.4367  0.1858 -0.3385
11983TIP3   OH257363   0.615   3.537  15.125 -0.4346 -0.7808 -0.3288
11983TIP3    H157364   0.561   3.591  15.066 -1.4958 -2.0041 -0.5238
11983TIP3    H257365   0.660   3.601  15.180 -2.1686  0.3360 -0.0944
11984TIP3   OH257366   1.839   2.420   4.102 -0.3395  0.0430  0.2831
11984TIP3    H157367   1.888   2.408   4.021  0.9696  0.3309  1.0030
11984TIP3    H257368   1.900   2.463   4.161 -1.4420  0.3251  1.2615
11985TIP3   OH257369   3.255   4.215   0.675 -0.1915  0.1124  0.4588
11985TIP3    H157370   3.166   4.195   0.646 -0.1469  0.4831  0.0482
11985TIP3    H257371   3.303   4.133   0.664 -0.5264 -0.1390  0.8589
11986TIP3   OH257372   2.050   4.105   3.030 -0.4633 -0.1406  0.9931
11986TIP3    H157373   1.991   4.136   2.962  0.9676 -0.2488 -0.3586
11986TIP3    H257374   2.130   4.155   3.016  0.4581 -1.4365  1.4483
11987TIP3   OH257375   5.672   5.695  14.052  0.0986 -0.0835  0.3744
11987TIP3    H157376   5.750   5.721  14.003  0.5945 -0.5630  0.8996
11987TIP3    H257377   5.639   5.776  14.090  1.4827 -0.1282  1.7874
11988TIP3   OH257378   3.164   5.925   5.959  0.0927  0.8407 -0.9289
11988TIP3    H157379   3.124   5.999   5.913  0.0138  2.0058  0.9136
11988TIP3    H257380   3.101   5.901   6.027  1.6197  1.5047  0.8401
11989TIP3   OH257381   1.695   6.573   0.277 -0.1546 -0.3810 -0.1862
11989TIP3    H157382   1.649   6.592   0.195  0.1859  0.1664 -0.2502
11989TIP3    H257383   1.765   6.637   0.281 -0.9303  0.4327  1.1532
11990TIP3   OH257384   5.261   6.016  15.202  0.6587  0.7529 -0.9675
11990TIP3    H157385   5.287   6.032  15.293  2.8156 -0.6859 -1.2724
11990TIP3    H257386   5.278   6.099  15.157 -2.0785  2.0707  0.1809
11991TIP3   OH257387   2.005   3.709   3.815  0.2196 -0.2695 -0.4668
11991TIP3    H157388   1.949   3.640   3.851 -0.4362  0.2133 -0.5296
11991TIP3    H257389   2.045   3.750   3.891  0.4106 -0.5514 -0.4142
11992TIP3   OH257390   1.452   5.471   2.410  0.3751 -0.0231 -0.5617
11992TIP3    H157391   1.401   5.408   2.460  0.3711 -0.0089 -0.5480
11992TIP3    H257392   1.512   5.510   2.473 -0.9664  1.4300 -0.1398
11993TIP3   OH257393   0.349   5.275  13.794  0.1185 -0.7450 -0.3200
11993TIP3    H157394   0.443   5.288  13.808 -0.2483  1.2068  0.7060
11993TIP3    H257395   0.335   5.304  13.703  0.3656 -0.1369 -0.1703
11994TIP3   OH257396   0.527   6.733  12.592 -0.1110  0.1401 -0.4117
11994TIP3    H157397   0.474   6.654  12.603  1.6043 -1.1098 -0.6898
11994TIP3    H257398   0.464   6.801  12.565 -1.6695 -1.0371  0.1337
11995TIP3   OH257399   2.067   4.104   3.772  0.5769  0.0413  0.0162
11995TIP3    H157400   2.003   4.167   3.740  0.7868 -0.0237 -0.5425
11995TIP3    H257401   2.044   4.022   3.729  0.5431 -0.1704  0.4380
11996TIP3   OH257402   3.158   4.362  11.557  0.7765 -0.5511  0.7040
11996TIP3    H157403   3.196   4.289  11.509 -0.1600 -0.3573 -0.3817
11996TIP3    H257404   3.125   4.324  11.638  1.0192 -1.1750  0.5103
11997TIP3   OH257405   1.518   3.117  10.885 -0.3477 -0.4099  0.0052
11997TIP3    H157406   1.483   3.045  10.938  1.2986  0.2823  2.1797
11997TIP3    H257407   1.609   3.092  10.867 -0.6217 -0.2076 -1.8004
11998TIP3   OH257408   0.669   2.009   5.420 -0.1723 -0.3077 -0.1195
11998TIP3    H157409   0.670   1.975   5.509  2.4147  0.8711  0.3745
11998TIP3    H257410   0.652   2.103   5.430 -0.4408 -0.2581 -0.9272
11999TIP3   OH257411   6.471   5.879  10.495  0.3855  0.7414  0.4311
11999TIP3    H157412   6.424   5.961  10.485 -0.1851  0.3861  0.1420
11999TIP3    H257413   6.531   5.876  10.420 -0.5699  0.2624 -0.3379
12000TIP3   OH257414   5.327   3.818   2.263  0.2973 -0.7900 -0.4982
12000TIP3    H157415   5.373   3.876   2.202  1.4738  1.1897  2.1047
12000TIP3    H257416   5.248   3.866   2.288  0.3596 -1.1068  0.3383
12001TIP3   OH257417   2.069   3.062   4.027 -0.0089  0.2008 -0.2814
12001TIP3    H157418   2.111   3.005   3.962 -0.7626 -0.1238 -0.5099
12001TIP3    H257419   1.984   3.020   4.042 -0.6885  1.4036 -0.6462
12002TIP3   OH257420   4.026   1.353  14.850 -0.1492  0.6411  0.0497
12002TIP3    H157421   3.991   1.269  14.880  1.5704 -0.6391 -1.3311
12002TIP3    H257422   3.952   1.413  14.857 -0.9101 -0.4893  2.8724
12003TIP3   OH257423   2.896   3.823   2.629  0.0303  0.0552 -0.7232
12003TIP3    H157424   2.961   3.760   2.599 -0.5052 -1.0014  0.2682
12003TIP3    H257425   2.834   3.772   2.680 -0.0252  1.4735  0.7339
12004TIP3   OH257426   6.429   4.248  14.254 -0.7232  0.0757  0.1262
12004TIP3    H157427   6.519   4.258  14.221 -1.1582 -0.0933 -1.1839
12004TIP3    H257428   6.428   4.160  14.293 -0.4211 -0.1008 -0.2451
12005TIP3   OH257429   4.327   0.674  12.210 -0.1796 -0.1569  0.5406
12005TIP3    H157430   4.402   0.694  12.266  0.6514 -0.6353 -0.3699
12005TIP3    H257431   4.258   0.732  12.241  0.4654  0.0759  1.6028
12006TIP3   OH257432   2.771   5.048   4.315 -0.4616  0.1068  0.3777
12006TIP3    H157433   2.720   5.090   4.384  0.2042  1.5453  0.0369
12006TIP3    H257434   2.745   5.094   4.235  1.4542  1.0167  0.2225
12007TIP3   OH257435   6.302   1.033  13.382 -0.2127  0.1326  0.1822
12007TIP3    H157436   6.273   1.110  13.333  0.6226 -1.0783 -2.3869
12007TIP3    H257437   6.247   0.962  13.351  0.6958 -0.7862  0.5973
12008TIP3   OH257438   1.672   4.842   0.352 -0.0394 -0.2709 -0.2568
12008TIP3    H157439   1.725   4.763   0.340 -0.7993 -1.0372  1.2451
12008TIP3    H257440   1.669   4.855   0.446 -0.1037  1.4611 -0.4694
12009TIP3   OH257441   2.163   3.742  15.251  0.3084 -0.0118  0.5736
12009TIP3    H157442   2.185   3.835  15.253  1.4415 -0.2644  1.9756
12009TIP3    H257443   2.068   3.739  15.265  0.3415  0.9241  1.0701
12010TIP3   OH257444   3.076   3.807  15.084  0.4444  0.4144 -0.2349
12010TIP3    H157445   3.166   3.828  15.105 -0.2526 -0.1418  4.4816
12010TIP3    H257446   3.077   3.713  15.066  0.7952  0.3717  0.0007
12011TIP3   OH257447   2.044   5.188  14.804  0.4073  0.1323 -0.4361
12011TIP3    H157448   1.991   5.117  14.767  0.4178  0.2983 -0.7702
12011TIP3    H257449   2.128   5.181  14.759  0.0784  0.9862 -1.2197
12012TIP3   OH257450   3.060   4.723  13.045  0.0419  0.6874 -0.2981
12012TIP3    H157451   3.014   4.668  12.982 -0.3739 -0.9021  1.2977
12012TIP3    H257452   3.134   4.759  12.996  1.5411 -2.9005 -1.0363
12013TIP3   OH257453   3.533   2.647   5.772  0.3273 -0.0801 -0.3776
12013TIP3    H157454   3.437   2.653   5.778  0.3533  2.2845 -1.1017
12013TIP3    H257455   3.553   2.675   5.682  1.7275  0.5423  0.0995
12014TIP3   OH257456   2.072   1.215  14.835  0.6644  0.1083  0.4104
12014TIP3    H157457   2.009   1.195  14.904 -1.4974 -1.5261 -1.8309
12014TIP3    H257458   2.142   1.151  14.846 -0.3456 -1.0434  0.3219
12015TIP3   OH257459   1.818   3.297  13.501 -0.6358  0.3054  0.0126
12015TIP3    H157460   1.799   3.387  13.526 -0.7005 -0.1872  1.8937
12015TIP3    H257461   1.736   3.265  13.462 -0.1953  1.4297 -1.9497
12016TIP3   OH257462   5.391   1.953   0.312 -0.5095 -0.4935  0.1852
12016TIP3    H157463   5.332   2.027   0.299  0.5416  0.1572 -1.1304
12016TIP3    H257464   5.471   1.977   0.264 -0.3543 -2.7189 -0.7891
12017TIP3   OH257465   0.950   2.883   2.422  0.2685 -0.1155  0.3270
12017TIP3    H157466   0.983   2.796   2.445 -0.8000 -0.8527 -0.7816
12017TIP3    H257467   0.898   2.868   2.343 -0.3530  1.4573  0.4131
12018TIP3   OH257468   3.263   5.268  12.705  0.2152 -1.0494  0.0007
12018TIP3    H157469   3.192   5.309  12.657 -0.8238  0.2176  2.4219
12018TIP3    H257470   3.238   5.175  12.711  0.4633 -1.2877 -1.9078
12019TIP3   OH257471   3.261   1.133  16.771 -1.1048 -0.0539 -0.2018
12019TIP3    H157472   3.174   1.172  16.785 -1.4735 -0.1205 -2.0891
12019TIP3    H257473   3.243   1.053  16.722  0.0509  0.0914 -0.8823
12020TIP3   OH257474   5.919   1.719  10.560 -0.3267 -0.2015 -0.2981
12020TIP3    H157475   5.947   1.792  10.504 -1.2308 -0.4824 -1.1560
12020TIP3    H257476   5.927   1.642  10.504 -0.4261 -0.6118  0.2463
12021TIP3   OH257477   4.680   1.252  16.092  0.0285  0.1377 -0.0071
12021TIP3    H157478   4.698   1.329  16.145  1.0708  0.9581 -1.4928
12021TIP3    H257479   4.765   1.210  16.079  0.0659  0.7173 -2.1040
12022TIP3   OH257480   1.898   0.217   3.201  0.6617  0.3961  0.1828
12022TIP3    H157481   1.967   0.178   3.147 -1.1437 -1.5983 -0.8249
12022TIP3    H257482   1.852   0.276   3.141 -0.8196 -1.1762 -0.2892
12023TIP3   OH257483   2.955   6.760  13.475  0.2625 -0.2341  0.0126
12023TIP3    H157484   3.015   6.686  13.468  0.3732 -0.3467  1.7104
12023TIP3    H257485   2.899   6.738  13.549  0.7541  1.6843  1.0192
12024TIP3   OH257486   3.530   3.423   4.365  1.3791 -0.4220 -0.0178
12024TIP3    H157487   3.621   3.400   4.348  1.8265  0.4526  1.1024
12024TIP3    H257488   3.517   3.408   4.458  0.1783 -1.1628 -0.2807
12025TIP3   OH257489   6.818   0.424   4.760  0.0545  0.2914  0.4090
12025TIP3    H157490   6.849   0.411   4.849  0.8001 -0.4836  0.0533
12025TIP3    H257491   6.746   0.486   4.768  1.6641  2.1643  1.2800
12026TIP3   OH257492   0.727   3.383   5.631  0.4904  0.1900  0.6829
12026TIP3    H157493   0.634   3.366   5.645  0.1690  1.5989  0.3700
12026TIP3    H257494   0.746   3.460   5.683  0.9562  1.2296 -0.9355
12027TIP3   OH257495   2.379   4.179  13.833 -0.2149  0.1251  0.5512
12027TIP3    H157496   2.418   4.266  13.837 -0.2091  0.1098  0.8784
12027TIP3    H257497   2.372   4.152  13.924 -0.6373 -0.0324  0.4725
12028TIP3   OH257498   6.452   3.031  15.201  0.5977  0.0672 -0.1079
12028TIP3    H157499   6.546   3.041  15.192  0.6298 -0.4027 -0.3142
12028TIP3    H257500   6.432   3.069  15.287  1.3078 -1.8856  0.9802
12029TIP3   OH257501   1.967   3.500  16.293 -0.6296  0.1935  0.0606
12029TIP3    H157502   1.902   3.536  16.233  1.0480  1.1541 -1.2799
12029TIP3    H257503   1.959   3.405  16.283 -1.7466  0.2989 -0.1505
12030TIP3   OH257504   6.137   2.387  10.556  0.4032 -0.6742  0.7675
12030TIP3    H157505   6.221   2.343  10.545  0.9891  0.7048 -0.6943
12030TIP3    H257506   6.084   2.356  10.482  0.0981 -0.4839  0.9035
12031TIP3   OH257507   2.271   0.696   5.681  0.5369 -0.0822 -0.1574
12031TIP3    H157508   2.181   0.685   5.652  0.4309 -1.2748  0.5821
12031TIP3    H257509   2.322   0.639   5.623  0.6176 -0.5945  0.4119
12032TIP3   OH257510   0.251   1.357  12.481 -0.0817 -0.0275 -0.2861
12032TIP3    H157511   0.317   1.311  12.533  0.9913  1.0177 -0.6665
12032TIP3    H257512   0.286   1.356  12.392 -0.6342  0.4298 -0.5166
12033TIP3   OH257513   4.885   5.420  13.470 -0.4227 -0.1183  0.2193
12033TIP3    H157514   4.923   5.388  13.552 -1.1319 -1.7208 -0.0431
12033TIP3    H257515   4.817   5.357  13.449  0.4129 -0.3371 -2.1280
12034TIP3   OH257516   4.609   1.647  12.979  0.4422 -0.3257  0.5176
12034TIP3    H157517   4.659   1.571  13.010 -0.7962 -1.4214 -0.0763
12034TIP3    H257518   4.670   1.693  12.921  0.5187 -2.1597 -0.9712
12035TIP3   OH257519   2.600   5.264  11.998 -0.0471  0.3497 -0.0306
12035TIP3    H157520   2.669   5.228  12.054 -0.2212  1.1925  0.7345
12035TIP3    H257521   2.620   5.228  11.911  1.2142  0.3752  0.2200
12036TIP3   OH257522   2.974   4.100  15.708 -0.7662 -0.2447  0.6904
12036TIP3    H157523   3.012   4.090  15.620  0.0584  0.8466  0.9016
12036TIP3    H257524   2.889   4.056  15.702 -1.8343  1.8453 -1.4017
12037TIP3   OH257525   3.274   1.569   1.019 -0.5225  1.0228  0.0968
12037TIP3    H157526   3.279   1.552   0.925  0.3886 -2.5570  0.6630
12037TIP3    H257527   3.180   1.566   1.038 -0.5958 -2.7158 -0.1688
12038TIP3   OH257528   4.069   2.945  15.754  0.1828 -0.1736  0.4038
12038TIP3    H157529   4.108   2.903  15.831 -1.2138 -0.3332  1.0597
12038TIP3    H257530   3.993   2.890  15.732 -0.2339  0.6318 -0.2451
12039TIP3   OH257531   1.447   5.587  15.647 -0.3339 -0.3678 -0.2051
12039TIP3    H157532   1.430   5.672  15.688  0.4776  1.4599 -3.2778
12039TIP3    H257533   1.406   5.594  15.560  1.7112 -2.1842 -1.4203
12040TIP3   OH257534   1.353   3.136  13.575 -0.1887 -0.5461  0.2719
12040TIP3    H157535   1.303   3.186  13.639  0.7172 -0.2812  0.7879
12040TIP3    H257536   1.352   3.047  13.608 -0.9717 -0.6939 -0.1315
12041TIP3   OH257537   1.178   1.535  15.760  0.4588 -0.0402  0.0189
12041TIP3    H157538   1.152   1.621  15.726  2.5527  0.5890 -0.1212
12041TIP3    H257539   1.130   1.526  15.843 -0.9655  0.5495 -0.7000
12042TIP3   OH257540   5.929   6.562  11.690 -0.0328 -0.3449  0.4827
12042TIP3    H157541   5.834   6.570  11.685  0.1659  3.5824 -1.3791
12042TIP3    H257542   5.951   6.595  11.778 -0.3744 -1.2653  0.9165
12043TIP3   OH257543   4.142   2.823   2.399 -0.0268 -0.0122 -0.0710
12043TIP3    H157544   4.054   2.844   2.429  0.1419  1.4110 -0.5064
12043TIP3    H257545   4.168   2.748   2.453 -2.4106 -2.1360 -1.6173
12044TIP3   OH257546   1.503   5.419  11.613  0.5086  0.0772  0.3277
12044TIP3    H157547   1.513   5.325  11.625 -0.4158  0.0011  0.5959
12044TIP3    H257548   1.418   5.429  11.570  0.4766  0.7980  0.5435
12045TIP3   OH257549   3.312   2.136  16.440 -0.0167 -0.2341  0.2132
12045TIP3    H157550   3.218   2.118  16.428 -0.2828  0.1862  1.5417
12045TIP3    H257551   3.324   2.137  16.535  1.8221 -2.7040  0.0805
12046TIP3   OH257552   2.345   0.752   3.910  0.0726  0.2562 -0.0785
12046TIP3    H157553   2.354   0.682   3.975 -2.4496  0.6388  0.7760
12046TIP3    H257554   2.392   0.719   3.834 -0.1571 -1.9240  0.6392
12047TIP3   OH257555   1.347   3.179  11.586  0.0954 -0.3429 -0.6314
12047TIP3    H157556   1.375   3.211  11.672 -2.0057 -0.2688  0.0707
12047TIP3    H257557   1.316   3.257  11.541  0.4109 -0.5201 -1.1665
12048TIP3   OH257558   1.449   6.313   2.177  0.2414 -0.0101 -0.1659
12048TIP3    H157559   1.487   6.266   2.103  0.9143  0.8652 -0.4038
12048TIP3    H257560   1.485   6.270   2.255  1.7230  0.7673 -0.3888
12049TIP3   OH257561   2.791   2.561  12.825 -0.0299  0.3274  0.2238
12049TIP3    H157562   2.775   2.597  12.738  0.1879  1.6849  0.7198
12049TIP3    H257563   2.813   2.637  12.879  3.0729 -0.7988  0.7464
12050TIP3   OH257564   2.436   4.211  16.306 -0.2201  0.7761 -0.0151
12050TIP3    H157565   2.431   4.254  16.391  2.7735 -0.1203  0.7462
12050TIP3    H257566   2.503   4.260  16.258 -2.3403  1.7035 -2.2205
12051TIP3   OH257567   1.803   2.796   4.872  0.0131  0.7386  0.4211
12051TIP3    H157568   1.801   2.884   4.909 -0.0477  0.5343  0.9100
12051TIP3    H257569   1.863   2.803   4.797  2.7354  0.4533  2.4242
12052TIP3   OH257570   4.199   1.312   2.713  0.8633  0.1763 -0.4055
12052TIP3    H157571   4.129   1.295   2.650  1.1028  4.1276 -1.9952
12052TIP3    H257572   4.235   1.396   2.687  4.0280 -0.1059  2.4082
12053TIP3   OH257573   4.844   0.497  16.703  0.3259 -0.4828 -0.1933
12053TIP3    H157574   4.846   0.514  16.798 -1.3059 -1.4901  0.0620
12053TIP3    H257575   4.829   0.403  16.696 -0.2053 -0.3218 -1.4532
12054TIP3   OH257576   1.142   0.523  11.205 -0.3932  0.0207  0.3270
12054TIP3    H157577   1.159   0.451  11.267  0.3143  0.6402  0.8859
12054TIP3    H257578   1.205   0.590  11.230  0.3773  0.0392 -1.5163
12055TIP3   OH257579   3.478   2.566  15.420 -0.3147  0.0083 -0.2509
12055TIP3    H157580   3.497   2.584  15.512  1.5220 -2.5254 -0.0229
12055TIP3    H257581   3.422   2.638  15.393  0.1438  1.5471  2.4799
12056TIP3   OH257582   3.396   0.217  13.386 -0.2008 -0.1958  0.0356
12056TIP3    H157583   3.345   0.172  13.319 -1.4454  0.2535  0.6531
12056TIP3    H257584   3.480   0.234  13.345 -0.3100 -1.5497 -0.7862
12057TIP3   OH257585   1.425   5.195  12.431  0.5777  0.5747 -0.1621
12057TIP3    H157586   1.456   5.112  12.396  1.0567  1.1018 -1.0364
12057TIP3    H257587   1.476   5.209  12.511  0.9214  0.3174 -0.3357
12058TIP3   OH257588   3.666   5.290  11.564  0.5797 -0.2053 -0.3097
12058TIP3    H157589   3.627   5.377  11.567 -0.3960 -0.6194 -0.4624
12058TIP3    H257590   3.652   5.261  11.474  0.9821 -0.4822 -0.2854
12059TIP3   OH257591   4.254   0.537  15.426 -0.2315 -0.4898  0.1977
12059TIP3    H157592   4.210   0.552  15.343 -2.2504  0.8505  1.4019
12059TIP3    H257593   4.278   0.445  15.425 -1.4558 -0.8224 -1.3149
12060TIP3   OH257594   4.249   5.373  15.259 -0.3558  0.0102 -0.1848
12060TIP3    H157595   4.154   5.363  15.256 -0.2062 -1.9225  0.4040
12060TIP3    H257596   4.278   5.351  15.170 -0.4383  0.5162 -0.3404
12061TIP3   OH257597   3.552   0.502  13.107 -0.3472  0.5758 -0.0362
12061TIP3    H157598   3.611   0.427  13.098 -1.1654 -0.0661 -0.1295
12061TIP3    H257599   3.611   0.577  13.113  0.4865 -0.0565 -0.0282
12062TIP3   OH257600   2.556   5.765  16.031 -0.3496 -0.0588 -0.3193
12062TIP3    H157601   2.479   5.811  16.063 -0.0790  0.6891 -0.7273
12062TIP3    H257602   2.586   5.714  16.106  0.4577  1.8918  0.7535
12063TIP3   OH257603   3.679   2.707  14.875  0.4050 -0.5210 -0.1675
12063TIP3    H157604   3.752   2.681  14.931  0.9058 -1.1399 -1.0851
12063TIP3    H257605   3.602   2.665  14.914  0.6328 -0.3588  0.4578
12064TIP3   OH257606   2.888   3.289  14.932  0.6265  0.2617 -0.2243
12064TIP3    H157607   2.875   3.266  14.840 -1.7124  0.2025  0.0390
12064TIP3    H257608   2.842   3.373  14.942 -1.9261 -1.1947  1.4712
12065TIP3   OH257609   0.519   1.419  11.158  0.4688  0.7877  0.4307
12065TIP3    H157610   0.576   1.371  11.097  0.1353  0.5381  0.3115
12065TIP3    H257611   0.475   1.484  11.103 -0.1910  0.2471  0.3089
12066TIP3   OH257612   3.986   0.769  10.797  0.7118 -0.4966  0.0948
12066TIP3    H157613   4.026   0.856  10.794 -0.5763  0.1750  1.4208
12066TIP3    H257614   3.934   0.764  10.717  3.2081 -1.3409 -1.6053
12067TIP3   OH257615   4.171   2.911   0.056 -0.0777  0.1858 -0.4753
12067TIP3    H157616   4.157   2.835  -0.000  1.9091 -0.2986 -0.4033
12067TIP3    H257617   4.151   2.880   0.144  2.1325 -0.7793 -0.2424
12068TIP3   OH257618   0.921   1.181  10.975  0.4164 -0.1858 -0.0499
12068TIP3    H157619   0.847   1.230  11.013  0.0800 -1.6002  1.1915
12068TIP3    H257620   0.883   1.135  10.900  0.3724  0.1702 -0.2518
12069TIP3   OH257621   5.083   2.941   0.183 -0.4846  0.2313 -0.9589
12069TIP3    H157622   5.175   2.932   0.161  0.2065 -0.4504  1.8731
12069TIP3    H257623   5.037   2.883   0.122  1.2387 -1.5035 -0.6704
12070TIP3   OH257624   2.787   4.939  15.721  0.0508 -0.1513 -0.2186
12070TIP3    H157625   2.755   5.009  15.664  2.3015  0.6779 -0.5993
12070TIP3    H257626   2.734   4.947  15.800 -1.8988 -0.1331 -1.4733
12071TIP3   OH257627   2.819   0.019   3.752  0.6829 -0.2311 -0.7038
12071TIP3    H157628   2.793  -0.072   3.767 -1.0482  0.3087 -0.2222
12071TIP3    H257629   2.863   0.046   3.833 -0.2149 -0.1789 -0.2230
12072TIP3   OH257630   4.629   4.940   6.739 -0.2013 -0.2259 -0.1483
12072TIP3    H157631   4.642   5.019   6.793  0.9048  0.5584 -1.4989
12072TIP3    H257632   4.716   4.917   6.708 -0.3909 -2.4927  0.8327
12073TIP3   OH257633   1.313   1.414   1.744  0.2723 -0.3905 -0.4329
12073TIP3    H157634   1.319   1.431   1.838 -0.5490  0.5584 -0.5371
12073TIP3    H257635   1.395   1.369   1.723 -0.1931 -2.0628  1.0228
12074TIP3   OH257636   2.649   0.641  11.334 -0.2276 -0.4395  0.2094
12074TIP3    H157637   2.602   0.724  11.333  0.7974  0.1720 -0.9351
12074TIP3    H257638   2.652   0.616  11.426 -1.6212  0.1504  0.4372
12075TIP3   OH257639   4.151   5.242  11.874  0.1435  0.1498 -0.4837
12075TIP3    H157640   4.178   5.328  11.907 -1.3176 -0.0247  1.3711
12075TIP3    H257641   4.057   5.238  11.893 -0.0301 -1.4567 -1.4960
12076TIP3   OH257642   2.074   3.622   3.221  0.3544  0.0374  0.1790
12076TIP3    H157643   1.997   3.571   3.194  0.1539  0.5384 -0.2028
12076TIP3    H257644   2.128   3.627   3.141  0.3808  0.4125  0.2225
12077TIP3   OH257645   0.404   3.324   0.379 -0.0054 -0.2970 -0.6255
12077TIP3    H157646   0.385   3.348   0.288 -0.2025 -0.5632 -0.6576
12077TIP3    H257647   0.499   3.330   0.386  0.0635 -0.8702 -1.0232
12078TIP3   OH257648   1.012   1.831   1.780 -0.0489  0.5960  0.2905
12078TIP3    H157649   0.995   1.777   1.857  0.1391  0.0072 -0.0702
12078TIP3    H257650   1.107   1.836   1.775 -0.0065  3.3589  1.9463
12079TIP3   OH257651   2.546   3.378   1.400 -0.2367  0.2199 -0.1894
12079TIP3    H157652   2.484   3.443   1.369  0.0997  0.6365  0.0087
12079TIP3    H257653   2.507   3.294   1.375 -0.8591  0.4784 -0.0982
12080TIP3   OH257654   2.773   5.266  14.425  0.2697 -0.4727 -0.3573
12080TIP3    H157655   2.823   5.196  14.467 -1.1938 -1.2145  0.2239
12080TIP3    H257656   2.798   5.346  14.471  1.2437 -0.7569 -0.3879
12081TIP3   OH257657   3.833   5.611   1.281  0.0896 -0.6322 -0.2998
12081TIP3    H157658   3.847   5.601   1.187  1.0466  0.8849 -0.3526
12081TIP3    H257659   3.745   5.648   1.289  0.1604 -0.3908 -0.6331
12082TIP3   OH257660   3.159   5.582   1.603 -0.2778  0.7397  0.4564
12082TIP3    H157661   3.156   5.641   1.528 -0.1275 -0.7709 -0.7764
12082TIP3    H257662   3.251   5.581   1.629 -0.3772  1.4976  0.8892
12083TIP3   OH257663   6.689   5.114   6.188 -0.0451 -0.1517 -0.3434
12083TIP3    H157664   6.673   5.137   6.097  1.6901  2.2011 -0.1385
12083TIP3    H257665   6.608   5.137   6.233  0.0777  1.3831 -0.8774
12084TIP3   OH257666   2.824   1.548  13.206 -0.0292  0.4328 -0.5780
12084TIP3    H157667   2.843   1.618  13.269 -0.9754  0.6921 -0.5706
12084TIP3    H257668   2.770   1.590  13.139 -2.1824 -0.7118  0.3774
12085TIP3   OH257669   0.339   5.188   1.851  0.1007  0.1018  0.2324
12085TIP3    H157670   0.355   5.253   1.919  1.2373  0.6447 -0.5300
12085TIP3    H257671   0.244   5.178   1.849 -0.2518  2.8019 -0.5903
12086TIP3   OH257672   3.384   2.555   4.873 -0.1868 -0.7612  0.1111
12086TIP3    H157673   3.417   2.520   4.956  0.4018  0.5697  0.4537
12086TIP3    H257674   3.462   2.582   4.825 -0.6360  2.7656  1.0758
12087TIP3   OH257675   5.409   3.207   1.357  0.1810  0.4959 -0.7583
12087TIP3    H157676   5.503   3.218   1.370  0.0687  0.8004 -0.1601
12087TIP3    H257677   5.379   3.290   1.320  0.2799  0.0931 -1.7884
12088TIP3   OH257678   2.772   6.121   2.287  0.1789 -0.3012  0.0642
12088TIP3    H157679   2.699   6.095   2.231 -0.0253  0.8650 -0.2193
12088TIP3    H257680   2.848   6.123   2.229  0.5359 -1.7937  0.4134
12089TIP3   OH257681   6.110   0.721   6.301 -0.5312  0.3317  0.1891
12089TIP3    H157682   6.097   0.799   6.355  0.8409 -0.7204  2.1938
12089TIP3    H257683   6.203   0.725   6.275 -1.0340  0.5490 -1.7365
12090TIP3   OH257684   3.279   6.519   0.676 -0.4513  0.4692 -0.6434
12090TIP3    H157685   3.234   6.537   0.594 -1.0795  0.9608 -0.2029
12090TIP3    H257686   3.243   6.435   0.705 -1.4808  1.0897 -0.0491
12091TIP3   OH257687   5.639   5.453  15.566 -0.4515  0.4701  0.0855
12091TIP3    H157688   5.544   5.458  15.563 -0.4731  0.3653  0.5620
12091TIP3    H257689   5.665   5.434  15.476 -0.9677 -0.9669  0.2104
12092TIP3   OH257690   5.682   0.169  12.094  0.7571 -0.0852 -0.5400
12092TIP3    H157691   5.774   0.145  12.080  0.9150  0.6186 -0.7091
12092TIP3    H257692   5.678   0.191  12.187  0.8155  0.1372 -0.5908
12093TIP3   OH257693   5.844   5.808  12.668  0.2313 -0.4024  0.3937
12093TIP3    H157694   5.810   5.765  12.746  0.5175  0.5827  1.0859
12093TIP3    H257695   5.857   5.899  12.695  0.8112 -0.1570 -0.6606
12094TIP3   OH257696   5.749   0.085   4.187 -0.4576  0.0218  0.4129
12094TIP3    H157697   5.809   0.031   4.135 -0.7617 -0.5417  0.6316
12094TIP3    H257698   5.791   0.171   4.192 -0.1992 -0.0527 -0.3566
12095TIP3   OH257699   5.318   0.569   3.342  0.1247 -0.0325  0.6423
12095TIP3    H157700   5.351   0.658   3.334 -1.0238  0.2364 -2.0059
12095TIP3    H257701   5.380   0.515   3.293 -1.8105  0.1184 -2.1552
12096TIP3   OH257702   2.342   6.248   2.445 -0.2686 -0.6247 -0.3027
12096TIP3    H157703   2.355   6.153   2.442  2.2326 -0.4227  1.2951
12096TIP3    H257704   2.274   6.261   2.511  0.4122 -1.2811  0.5571
12097TIP3   OH257705   1.695   0.991   4.348  0.0038  0.4054 -0.6135
12097TIP3    H157706   1.658   1.002   4.261 -0.2299  0.3375 -0.5237
12097TIP3    H257707   1.620   0.967   4.403 -0.4697  3.5005  0.2861
12098TIP3   OH257708   4.076   2.333  16.417 -0.4250  0.1344  0.0163
12098TIP3    H157709   4.116   2.420  16.418 -1.7416  0.7903 -0.9710
12098TIP3    H257710   3.984   2.349  16.440 -1.1078 -0.7415 -1.9355
12099TIP3   OH257711   0.833   0.869   2.057 -0.2083 -0.0311 -0.9676
12099TIP3    H157712   0.774   0.905   1.991 -1.9640  2.9469  1.9205
12099TIP3    H257713   0.894   0.940   2.076  1.7798 -1.6609 -1.0056
12100TIP3   OH257714   4.343   5.970   5.201 -0.5674  0.1086 -0.2016
12100TIP3    H157715   4.362   5.939   5.113  0.6710 -1.2078  0.4896
12100TIP3    H257716   4.407   6.040   5.216 -0.2909 -0.1700 -0.0818
12101TIP3   OH257717   0.060   1.400   1.357 -0.0687 -0.3977 -0.5236
12101TIP3    H157718   0.071   1.321   1.303 -0.4388  1.4524 -3.5273
12101TIP3    H257719  -0.034   1.418   1.354 -0.1731 -0.4458  1.1795
12102TIP3   OH257720   0.449   5.347   0.753 -0.1461  0.1944  0.5797
12102TIP3    H157721   0.545   5.350   0.752 -0.1205 -0.4895  0.5945
12102TIP3    H257722   0.427   5.316   0.841 -0.3783  0.2106  0.5280
12103TIP3   OH257723   4.356   2.399   0.924 -0.5257  0.0733  0.9603
12103TIP3    H157724   4.424   2.335   0.947 -0.5890 -0.1892  0.4192
12103TIP3    H257725   4.362   2.465   0.993 -1.6102 -1.3859  2.5441
12104TIP3   OH257726   4.072   2.847   1.076 -0.6280 -0.3370  0.1471
12104TIP3    H157727   4.086   2.840   1.170  0.1114 -0.8631  0.0015
12104TIP3    H257728   4.081   2.758   1.043 -0.2122 -0.0570 -0.5126
12105TIP3   OH257729   4.903   4.965  10.211 -0.0281 -0.3553  0.4382
12105TIP3    H157730   4.819   5.009  10.200 -0.5517 -0.8950  1.9921
12105TIP3    H257731   4.884   4.891  10.269  1.4808 -0.6183  0.6365
12106TIP3   OH257732   5.376   5.541  15.517 -0.0385  0.1810  0.4749
12106TIP3    H157733   5.380   5.604  15.445  1.8748  0.6548  0.9202
12106TIP3    H257734   5.359   5.457  15.475  1.3161  0.4056 -0.5812
12107TIP3   OH257735   5.686   5.474   5.697  0.4097 -0.2088  0.3810
12107TIP3    H157736   5.759   5.434   5.744  1.5269  1.7592  0.4585
12107TIP3    H257737   5.649   5.536   5.760  0.5152  0.8575 -0.5714
12108TIP3   OH257738   1.208   6.246   1.328  0.0518  0.1498 -0.9697
12108TIP3    H157739   1.165   6.163   1.305 -0.7796  0.7352 -1.6047
12108TIP3    H257740   1.296   6.221   1.355 -0.9081 -1.1697  1.1194
12109TIP3   OH257741   1.910   2.713  11.034  0.3849 -0.5003 -0.5077
12109TIP3    H157742   1.980   2.648  11.042  1.4491  0.4379 -1.8879
12109TIP3    H257743   1.847   2.673  10.973 -0.5761 -1.5383  1.0833
12110TIP3   OH257744   1.134   3.976   1.781  0.0288  0.3881 -0.1721
12110TIP3    H157745   1.218   3.948   1.745  0.3651  0.1923  0.7336
12110TIP3    H257746   1.131   4.070   1.766 -0.2894  0.1768 -1.5901
12111TIP3   OH257747   2.616   4.303   2.136  0.5734 -0.2344  0.7177
12111TIP3    H157748   2.633   4.217   2.175  0.2323  0.1353  1.7032
12111TIP3    H257749   2.681   4.310   2.066 -1.1026 -2.4167 -1.2315
12112TIP3   OH257750   2.233   5.940  12.740 -0.0188 -0.2255 -0.2824
12112TIP3    H157751   2.195   5.992  12.668 -0.1390  0.2950  0.1462
12112TIP3    H257752   2.324   5.927  12.714 -0.2232 -0.6110 -0.8400
12113TIP3   OH257753   6.670   3.426   2.541  0.5854 -0.4640  0.4035
12113TIP3    H157754   6.671   3.511   2.497  1.3156 -0.1701  0.9710
12113TIP3    H257755   6.744   3.430   2.602 -0.3564 -0.9057  1.5910
12114TIP3   OH257756   3.464   3.116  13.139 -0.1105 -0.5304  0.1421
12114TIP3    H157757   3.493   3.131  13.049 -1.2029 -1.0509 -0.3121
12114TIP3    H257758   3.522   3.048  13.172 -0.2726 -0.9660 -0.4649
12115TIP3   OH257759   4.431   0.677  16.465  0.3784 -0.0338 -0.4143
12115TIP3    H157760   4.380   0.671  16.384 -0.2282  0.7499 -0.1128
12115TIP3    H257761   4.514   0.635  16.445  0.5513  0.8717 -1.7015
12116TIP3   OH257762   6.053   0.761   0.070 -0.1217 -0.2054  0.3136
12116TIP3    H157763   5.986   0.830   0.070 -1.3571 -1.3405 -0.4905
12116TIP3    H257764   6.112   0.786  -0.001 -1.6836 -0.9371 -1.3310
12117TIP3   OH257765   2.766   4.833   3.732  0.2697 -0.1870 -0.1859
12117TIP3    H157766   2.756   4.926   3.750  1.7048 -0.1678  0.6402
12117TIP3    H257767   2.720   4.820   3.649 -0.9488  1.0144  0.2661
12118TIP3   OH257768   6.210   1.131  10.318  0.3228 -0.2492  0.2203
12118TIP3    H157769   6.195   1.226  10.315  2.1978  0.1303  1.1998
12118TIP3    H257770   6.251   1.111  10.234  0.3852 -0.0964  0.2136
12119TIP3   OH257771   0.722   3.287   4.770 -0.0868 -0.0884  0.3378
12119TIP3    H157772   0.627   3.289   4.762 -0.2083 -0.3180  1.4886
12119TIP3    H257773   0.751   3.226   4.703 -0.6536  0.7755 -0.7249
12120TIP3   OH257774   4.419   1.301   2.349 -0.2704  0.6057 -0.2303
12120TIP3    H157775   4.333   1.319   2.310 -0.1896  0.4487 -0.4737
12120TIP3    H257776   4.446   1.386   2.385  0.3993  1.1574 -1.9392
12121TIP3   OH257777   0.708   4.463   4.154  0.0380  0.5320  0.0921
12121TIP3    H157778   0.773   4.507   4.210  1.0520 -0.8000  0.0009
12121TIP3    H257779   0.703   4.517   4.076 -0.0043  1.3994  0.6762
12122TIP3   OH257780   1.159   3.715   1.272 -0.1077  0.0486  0.9262
12122TIP3    H157781   1.110   3.773   1.214  1.0786  0.2200  0.0696
12122TIP3    H257782   1.154   3.757   1.358 -0.3124  0.7559  0.5750
12123TIP3   OH257783   0.592   5.330  14.329 -0.1058  0.3874  0.2214
12123TIP3    H157784   0.648   5.388  14.381  0.0174  0.0463  0.4713
12123TIP3    H257785   0.627   5.242  14.345 -0.1693  0.2632 -0.3060
12124TIP3   OH257786   4.036   3.968   6.116  0.2397  0.4826  0.7682
12124TIP3    H157787   4.024   3.876   6.138 -0.2787  0.4971  0.5514
12124TIP3    H257788   4.083   3.967   6.032 -0.1889  0.4121  0.5281
12125TIP3   OH257789   2.187   1.984  12.041 -0.3879  0.8609  0.0088
12125TIP3    H157790   2.147   1.918  11.984  0.5558  1.2111 -1.1036
12125TIP3    H257791   2.157   2.067  12.005 -0.2238  1.0780  0.3741
12126TIP3   OH257792   3.272   2.430   2.267  0.2883 -0.2572 -0.2304
12126TIP3    H157793   3.295   2.409   2.176 -0.1054 -0.6821 -0.2314
12126TIP3    H257794   3.211   2.362   2.293 -0.2243  0.3188  0.0968
12127TIP3   OH257795   4.857   4.961  14.151  0.6083 -0.1328  0.3617
12127TIP3    H157796   4.902   4.890  14.196 -0.0005 -0.1929  0.8979
12127TIP3    H257797   4.796   4.917  14.092 -0.9267 -0.1235  1.8386
12128TIP3   OH257798   0.765   4.821   5.590  0.7166 -0.7073 -0.2322
12128TIP3    H157799   0.821   4.862   5.524  1.3500  1.7556  1.7075
12128TIP3    H257800   0.824   4.802   5.663 -0.1493 -2.4775  0.0591
12129TIP3   OH257801   2.962   3.365   4.544  0.2734 -0.3348  0.3166
12129TIP3    H157802   2.875   3.398   4.569  0.1553  1.0030 -1.6551
12129TIP3    H257803   2.946   3.317   4.462  1.5067  0.7486 -0.5868
12130TIP3   OH257804   3.445   0.168  10.256  0.4701  0.1760 -0.5588
12130TIP3    H157805   3.468   0.259  10.235  1.5380 -0.0448 -0.4089
12130TIP3    H257806   3.411   0.172  10.345 -0.9253  0.6309 -1.0812
12131TIP3   OH257807   4.172   2.248  12.217 -0.3138  0.0771  0.7336
12131TIP3    H157808   4.118   2.259  12.138 -0.5307  0.8767  0.9828
12131TIP3    H257809   4.243   2.190  12.190 -0.9176 -0.4345  0.2117
12132TIP3   OH257810   5.097   2.921  16.455  0.2409 -0.2032 -0.7028
12132TIP3    H157811   5.135   2.931  16.368 -0.6970 -1.8493 -1.3475
12132TIP3    H257812   5.098   3.009  16.492  0.9267  0.4785 -2.2568
12133TIP3   OH257813   3.897   1.585   3.819  0.3314  0.5283 -0.2023
12133TIP3    H157814   3.946   1.612   3.897 -0.6604  0.4279  0.4862
12133TIP3    H257815   3.823   1.646   3.816 -0.6915 -0.6649  0.0498
12134TIP3   OH257816   0.199   4.577  16.277  0.2557 -0.1102  0.5647
12134TIP3    H157817   0.254   4.616  16.209  0.2702  1.1121  1.2436
12134TIP3    H257818   0.261   4.532  16.335  0.0929 -3.0985 -1.3295
12135TIP3   OH257819   5.029   5.940   2.122  0.3498 -0.0703 -0.4792
12135TIP3    H157820   5.035   5.973   2.033  2.4560 -2.3629 -1.3009
12135TIP3    H257821   5.022   5.845   2.112 -0.4711 -0.2997  1.7866
12136TIP3   OH257822   0.983   4.772   0.574 -0.0284 -0.1148  0.0317
12136TIP3    H157823   1.006   4.791   0.483  0.7530  3.0883  0.7918
12136TIP3    H257824   0.909   4.712   0.567 -0.9155  1.1112 -2.7596
12137TIP3   OH257825   6.534   1.247  11.025 -0.1185 -0.1283 -0.1915
12137TIP3    H157826   6.622   1.281  11.034  0.5648 -2.1563  1.8791
12137TIP3    H257827   6.481   1.303  11.083  0.6002 -1.1678  1.5683
12138TIP3   OH257828   1.646   3.693  16.381 -0.0333  0.9614  0.2054
12138TIP3    H157829   1.661   3.768  16.323  2.1949 -0.0859 -0.6976
12138TIP3    H257830   1.616   3.623  16.323  2.6218 -0.2284  0.1091
12139TIP3   OH257831   1.220   5.306   5.249 -0.4619  0.4293 -0.2323
12139TIP3    H157832   1.164   5.236   5.215 -1.7027  1.3880 -0.2275
12139TIP3    H257833   1.268   5.264   5.321 -0.4347 -0.6735 -0.8606
12140TIP3   OH257834   1.321   1.168  13.679  0.7577  0.3630 -0.1467
12140TIP3    H157835   1.311   1.154  13.586 -1.3890  0.4295  0.0388
12140TIP3    H257836   1.272   1.249  13.697 -0.5623 -0.7096  1.3274
12141TIP3   OH257837   4.395   0.911   4.506  0.0163 -0.2983 -0.2653
12141TIP3    H157838   4.444   0.833   4.478  1.6236  0.4461  0.3716
12141TIP3    H257839   4.332   0.926   4.435  0.9703 -1.0576 -1.3047
12142TIP3   OH257840   6.112   0.186   2.490  0.3401 -0.5840  0.1260
12142TIP3    H157841   6.061   0.165   2.569  2.4084 -1.9494  1.1566
12142TIP3    H257842   6.154   0.270   2.511 -1.0941  0.3708 -0.5959
12143TIP3   OH257843   6.525   6.660   1.018 -0.0249  0.9476 -0.0415
12143TIP3    H157844   6.496   6.748   0.994 -0.2559  0.6344 -0.9543
12143TIP3    H257845   6.446   6.606   1.013 -0.0700  0.8520  1.4144
12144TIP3   OH257846   3.911   1.912   2.349  0.0821 -0.0328  0.1563
12144TIP3    H157847   3.974   1.948   2.287  1.6802  0.7397  2.1035
12144TIP3    H257848   3.854   1.985   2.371 -0.4372 -0.2869 -0.3149
12145TIP3   OH257849   3.288   3.283   4.291 -0.0087  0.2079 -0.1273
12145TIP3    H157850   3.263   3.366   4.332  2.2305 -0.2457  2.4897
12145TIP3    H257851   3.369   3.258   4.336 -0.7211 -3.5539 -0.6028
12146TIP3   OH257852   3.998   3.835  16.688  0.5477  0.0126  0.1327
12146TIP3    H157853   3.960   3.908  16.737 -0.1050 -1.2268  1.5518
12146TIP3    H257854   4.023   3.874  16.604 -1.1246  1.5527  0.2662
12147TIP3   OH257855   1.414   0.172   3.534 -0.6670  0.0472  0.1405
12147TIP3    H157856   1.331   0.140   3.500 -0.9130  0.3568  0.4517
12147TIP3    H257857   1.407   0.164   3.629 -0.7363  1.0253  0.2298
12148TIP3   OH257858   3.345   4.596   1.329 -0.4756 -0.2576  0.0168
12148TIP3    H157859   3.254   4.588   1.304 -0.3057  1.0608 -1.1460
12148TIP3    H257860   3.344   4.659   1.402 -0.4582  0.1857 -0.3597
12149TIP3   OH257861   2.778   6.093   3.135  0.1928 -0.3409 -0.1923
12149TIP3    H157862   2.861   6.126   3.168  0.2851 -0.4314 -0.3352
12149TIP3    H257863   2.766   6.009   3.179  0.8081 -0.9481 -1.1359
12150TIP3   OH257864   4.269   2.666  12.343 -0.1868 -0.6377  0.0480
12150TIP3    H157865   4.252   2.607  12.269  1.0979 -0.9329 -0.0383
12150TIP3    H257866   4.322   2.736  12.306 -1.5286  0.5154  0.1983
12151TIP3   OH257867   4.004   4.707   3.288 -0.2082  0.4543  0.4044
12151TIP3    H157868   4.093   4.692   3.254 -0.9832  0.4362 -1.8051
12151TIP3    H257869   3.956   4.627   3.266 -0.9522  0.7463  0.9338
12152TIP3   OH257870   2.239   0.816  11.172  0.8510  0.1674  0.1667
12152TIP3    H157871   2.319   0.770  11.150  1.0682 -0.2682  1.7220
12152TIP3    H257872   2.170   0.751  11.163  0.9538 -0.0411  0.8274
12153TIP3   OH257873   4.396   2.017   0.996  0.4937  0.2426 -0.0774
12153TIP3    H157874   4.472   1.994   0.943  1.6446  1.4845  0.9656
12153TIP3    H257875   4.430   2.075   1.064 -1.2561  0.2162  0.8972
12154TIP3   OH257876   3.174   5.274   1.671  0.1400  0.1204 -0.5784
12154TIP3    H157877   3.146   5.311   1.588  0.7696  0.1272 -0.7950
12154TIP3    H257878   3.270   5.273   1.666  0.1580 -0.7305 -0.2231
12155TIP3   OH257879   4.308   2.742  14.954  0.3027  0.4728  0.1919
12155TIP3    H157880   4.238   2.741  14.889 -0.1624 -3.2572  0.5788
12155TIP3    H257881   4.348   2.655  14.948  2.1198  0.9970  2.9496
12156TIP3   OH257882   3.814   6.472  15.041  0.3041  0.2006  0.0692
12156TIP3    H157883   3.800   6.408  14.970 -2.8795  1.6310 -0.7544
12156TIP3    H257884   3.754   6.444  15.110 -1.9415  2.6551 -0.6933
12157TIP3   OH257885   2.017   5.131   4.300 -0.2954  0.3643 -0.0354
12157TIP3    H157886   2.071   5.131   4.379 -0.4902  0.4100  0.0979
12157TIP3    H257887   1.973   5.217   4.301 -1.3444 -0.1557  0.5236
12158TIP3   OH257888   1.707   6.099  16.462 -0.0551  0.0185  0.3221
12158TIP3    H157889   1.794   6.118  16.427 -0.5011 -1.4686 -1.7851
12158TIP3    H257890   1.721   6.034  16.531  0.5679  0.5037  0.6605
12159TIP3   OH257891   6.702   3.751   1.169 -0.5686  0.0726 -0.6062
12159TIP3    H157892   6.757   3.818   1.210  0.1898 -0.5772 -0.5168
12159TIP3    H257893   6.630   3.799   1.129  0.4508  1.0392 -1.3521
12160TIP3   OH257894   4.449   6.011   6.302 -0.0407 -0.7224 -0.1261
12160TIP3    H157895   4.533   5.965   6.304  0.5776  0.2302 -1.7552
12160TIP3    H257896   4.445   6.048   6.214 -0.6071  2.1371  1.0132
12161TIP3   OH257897   3.415   6.732   3.656  0.5794  0.3919  0.9271
12161TIP3    H157898   3.362   6.653   3.667 -1.6003  1.5048 -0.7973
12161TIP3    H257899   3.352   6.804   3.660  2.0884  1.8623 -0.2782
12162TIP3   OH257900   5.460   4.006   2.709 -0.2689  0.6612  0.4795
12162TIP3    H157901   5.435   3.914   2.706 -0.0323  0.5745  1.0685
12162TIP3    H257902   5.378   4.053   2.725 -0.2711  0.4906  0.9807
12163TIP3   OH257903   1.919   3.240  12.182  0.6871 -0.2143 -0.2075
12163TIP3    H157904   1.824   3.251  12.173  0.5121 -1.1011  0.4733
12163TIP3    H257905   1.954   3.277  12.101 -0.2539 -0.1018 -0.5839
12164TIP3   OH257906   6.525   0.571   3.198 -0.1837  0.2939  0.0394
12164TIP3    H157907   6.514   0.662   3.169 -0.1931 -0.2517 -1.7889
12164TIP3    H257908   6.586   0.533   3.136 -1.9756 -1.5801 -0.6988
12165TIP3   OH257909   2.948   4.837   3.269  0.3345  0.0245 -0.4461
12165TIP3    H157910   2.910   4.802   3.189 -0.5928 -0.0377  0.0082
12165TIP3    H257911   2.906   4.787   3.339  0.3704  0.7779  0.1260
12166TIP3   OH257912   1.566   6.191  11.166 -0.2493 -0.2970  0.2843
12166TIP3    H157913   1.590   6.134  11.093  2.9601  0.4943  0.5826
12166TIP3    H257914   1.573   6.280  11.130 -2.4162  0.0557  0.5883
12167TIP3   OH257915   6.226   3.647   0.880 -0.2672 -0.6102  0.6839
12167TIP3    H157916   6.139   3.649   0.841 -0.2389 -0.1736  0.6437
12167TIP3    H257917   6.250   3.739   0.891  0.9150 -0.6989 -0.8997
12168TIP3   OH257918   4.864   1.568  14.036  0.3880  0.3483  0.3581
12168TIP3    H157919   4.959   1.562  14.043  0.4218  1.4625  1.0810
12168TIP3    H257920   4.845   1.545  13.945  1.3043 -0.2534  0.3077
12169TIP3   OH257921   6.480   5.118  15.327  0.5555 -0.3921  0.3806
12169TIP3    H157922   6.471   5.023  15.324 -1.1505 -0.2426 -0.1518
12169TIP3    H257923   6.482   5.138  15.421  0.9296 -0.9398  0.4964
12170TIP3   OH257924   3.601   3.200  15.105  0.6305 -0.1546  0.1142
12170TIP3    H157925   3.523   3.178  15.156 -0.5757  0.2412 -1.4840
12170TIP3    H257926   3.659   3.243  15.168 -0.2426 -0.8551  1.4462
12171TIP3   OH257927   6.487   4.610  12.691 -0.4666 -0.0613  0.1582
12171TIP3    H157928   6.566   4.609  12.638 -0.7570 -0.8197 -0.2842
12171TIP3    H257929   6.423   4.559  12.640 -1.0131 -0.0688  0.8320
12172TIP3   OH257930   2.419   4.489  14.264  0.1577 -0.0466 -0.0203
12172TIP3    H157931   2.385   4.538  14.338  0.7795  0.7528 -0.2547
12172TIP3    H257932   2.434   4.400  14.298 -0.6232  0.0134  0.5015
12173TIP3   OH257933   5.321   2.944  12.457 -0.4071  0.4744  0.0930
12173TIP3    H157934   5.321   2.970  12.364 -0.4001  0.9040  0.2144
12173TIP3    H257935   5.347   2.852  12.455  0.2984  0.6666 -0.2829
12174TIP3   OH257936   6.031   4.353   4.897  0.5446 -0.9897 -1.0175
12174TIP3    H157937   6.066   4.381   4.812  0.8477 -2.1276 -1.2911
12174TIP3    H257938   5.948   4.401   4.905  1.9260  1.4979 -0.5040
12175TIP3   OH257939   4.013   1.883   6.188  0.2278 -0.1225  0.0420
12175TIP3    H157940   3.935   1.927   6.155  1.8713  1.4325 -1.9669
12175TIP3    H257941   4.045   1.940   6.258  1.2568  0.9021 -1.2322
12176TIP3   OH257942   0.240   3.933   1.654  0.1038  0.2736  0.1115
12176TIP3    H157943   0.182   3.989   1.603 -0.2185 -0.1393  0.0167
12176TIP3    H257944   0.183   3.865   1.690  0.5363 -0.1986 -0.0715
12177TIP3   OH257945   4.145   3.319  12.970 -0.1539  0.8902  0.3162
12177TIP3    H157946   4.201   3.383  12.927 -0.3073  2.1778  1.9343
12177TIP3    H257947   4.199   3.281  13.039 -0.5636  0.4396  0.4016
12178TIP3   OH257948   2.655   0.852   2.687  0.3807  0.3865  0.1565
12178TIP3    H157949   2.612   0.777   2.646 -1.9596  0.3467  2.4231
12178TIP3    H257950   2.741   0.820   2.711  0.0127 -1.0696 -0.3584
12179TIP3   OH257951   1.675   3.341  11.068  0.1312 -0.4739 -0.5328
12179TIP3    H157952   1.761   3.299  11.069  0.0819 -0.5729 -0.4682
12179TIP3    H257953   1.677   3.402  11.141 -0.4794 -1.7268  0.5758
12180TIP3   OH257954   3.392   5.062   1.831  0.8907  0.1733 -0.4740
12180TIP3    H157955   3.471   5.024   1.792  2.1107  2.8246 -0.8010
12180TIP3    H257956   3.424   5.124   1.895 -0.9104  1.5203 -0.7993
12181TIP3   OH257957   3.079   5.442   2.882  0.3581 -0.1752  0.1876
12181TIP3    H157958   3.171   5.416   2.890  0.7865  1.4530  1.0296
12181TIP3    H257959   3.082   5.530   2.844 -0.7664  0.3796  1.3007
12182TIP3   OH257960   2.196   2.141  14.866  0.0820 -0.0469  0.2389
12182TIP3    H157961   2.207   2.235  14.881 -3.9240  0.4569  1.0445
12182TIP3    H257962   2.183   2.132  14.772  2.7471 -0.2209 -0.1947
12183TIP3   OH257963   4.218   4.438  10.946  0.0813 -0.4092 -0.0678
12183TIP3    H157964   4.277   4.490  11.000  1.3917 -1.6538 -0.2629
12183TIP3    H257965   4.148   4.499  10.922  2.0474  1.5812 -1.1020
12184TIP3   OH257966   4.744   1.891   4.952  0.6280 -0.1136  0.0204
12184TIP3    H157967   4.667   1.836   4.968 -0.4343  0.4459 -2.5895
12184TIP3    H257968   4.753   1.944   5.031 -1.5175 -0.4038  0.5214
12185TIP3   OH257969   3.790   2.929  14.110  0.0510 -0.2270 -0.5442
12185TIP3    H157970   3.858   2.992  14.132 -0.5339  0.3246 -0.2690
12185TIP3    H257971   3.837   2.848  14.092  0.7688  0.1191 -0.2750
12186TIP3   OH257972   1.762   4.901   4.472  0.3079 -0.3233 -0.2758
12186TIP3    H157973   1.680   4.864   4.504 -0.0156  1.0633  0.6210
12186TIP3    H257974   1.804   4.830   4.424 -0.5069 -1.6645  0.9163
12187TIP3   OH257975   0.552   2.864   3.438  0.0441 -0.0069 -0.6222
12187TIP3    H157976   0.583   2.943   3.483 -1.4246  0.2156  0.0467
12187TIP3    H257977   0.625   2.802   3.445 -0.8082 -0.8516  4.2240
12188TIP3   OH257978   3.561   0.687  11.956 -0.1585 -0.1739  0.6567
12188TIP3    H157979   3.593   0.598  11.968 -0.7503 -0.5810 -0.6335
12188TIP3    H257980   3.466   0.680  11.956 -0.2142  0.4652  0.6179
12189TIP3   OH257981   0.881   1.093   4.003 -0.0634  0.1894 -0.2591
12189TIP3    H157982   0.940   1.045   4.061  1.4616 -0.0145 -1.9097
12189TIP3    H257983   0.798   1.097   4.052  0.7380 -1.1824  1.3165
12190TIP3   OH257984   4.590   4.446   2.126 -0.5511  0.0845  0.6305
12190TIP3    H157985   4.587   4.416   2.217  0.3193  1.3789  1.1151
12190TIP3    H257986   4.506   4.490   2.112 -0.5523  0.1755  0.9160
12191TIP3   OH257987   6.129   4.123  12.652 -0.4210  0.0632 -0.1032
12191TIP3    H157988   6.224   4.137  12.650 -0.5026  0.5731 -0.8571
12191TIP3    H257989   6.118   4.028  12.654  0.1151  0.0211  0.9360
12192TIP3   OH257990   2.807   0.623  11.921  0.2234 -0.0642 -0.1401
12192TIP3    H157991   2.730   0.660  11.877  0.5562  0.7617 -0.0441
12192TIP3    H257992   2.779   0.612  12.012  0.2858  0.4663 -0.0510
12193TIP3   OH257993   6.595   0.101   3.518  0.2410  0.2717 -0.4619
12193TIP3    H157994   6.674   0.140   3.556  0.0072 -0.5333  0.9586
12193TIP3    H257995   6.602   0.008   3.541 -2.6184  0.6210  2.6214
12194TIP3   OH257996   6.270   4.947   0.232  0.2272 -0.0524  0.0907
12194TIP3    H157997   6.228   4.971   0.314  0.1585  2.1407 -0.5256
12194TIP3    H257998   6.208   4.888   0.189 -0.9247  0.8418  0.4777
12195TIP3   OH257999   6.620   2.665   1.402  0.0978  0.2817 -0.2352
12195TIP3    H158000   6.684   2.663   1.473  1.2254  0.1064 -1.2302
12195TIP3    H258001   6.583   2.576   1.401 -0.3055  0.4337  0.4537
12196TIP3   OH258002   5.033   2.093   1.673  0.7998  0.0276 -0.4398
12196TIP3    H158003   5.104   2.147   1.709 -0.1765  0.7854  0.3900
12196TIP3    H258004   4.996   2.049   1.750 -0.2818  0.4342 -0.7187
12197TIP3   OH258005   3.736   1.670  16.881  0.3878 -0.2911  0.1094
12197TIP3    H158006   3.669   1.649  16.946  1.4944  0.2515  1.4783
12197TIP3    H258007   3.690   1.666  16.797 -0.7542 -2.4640  0.7525
12198TIP3   OH258008   3.320   3.605  15.199  0.1452 -0.4781 -0.2539
12198TIP3    H158009   3.344   3.678  15.143  1.2486 -0.5185  0.1402
12198TIP3    H258010   3.230   3.584  15.175 -1.3982  3.0139  1.7310
12199TIP3   OH258011   2.757   6.495   4.095 -0.3424  0.1778  0.1929
12199TIP3    H158012   2.765   6.538   4.181  1.6575  1.2604 -0.4681
12199TIP3    H258013   2.697   6.422   4.111 -1.1271  1.1574  2.1801
12200TIP3   OH258014   6.389   0.975   4.782 -0.2389 -0.2516 -0.1782
12200TIP3    H158015   6.313   1.012   4.828 -1.2966 -0.6286 -1.5506
12200TIP3    H258016   6.376   1.000   4.690  1.7100  0.3116 -0.3477
12201TIP3   OH258017   4.247   6.371   1.511  0.3747 -0.9568 -0.1968
12201TIP3    H158018   4.153   6.357   1.496  0.1829  0.5999 -0.5805
12201TIP3    H258019   4.260   6.464   1.495  1.9562 -1.1095  0.0940
12202TIP3   OH258020   0.683   6.769   4.507 -0.2380  0.1396  0.5747
12202TIP3    H158021   0.739   6.845   4.490  1.5103 -0.5179  2.8358
12202TIP3    H258022   0.597   6.806   4.524  0.1619  1.4493 -0.0900
12203TIP3   OH258023   6.087   2.959   3.899 -0.3837  0.3865  0.3369
12203TIP3    H158024   6.087   2.978   3.805  2.4467  0.2407  0.2243
12203TIP3    H258025   6.020   2.891   3.910  0.3161 -0.7393 -1.8348
12204TIP3   OH258026   1.514   3.713   4.776 -0.0914 -0.1177  0.3978
12204TIP3    H158027   1.524   3.675   4.864  0.0167 -0.5801  0.1896
12204TIP3    H258028   1.453   3.654   4.732  0.8590 -0.6400 -0.2660
12205TIP3   OH258029   3.159   5.707  14.000 -0.0760  0.2457 -0.0336
12205TIP3    H158030   3.099   5.781  13.986  0.3492  0.2503 -2.2139
12205TIP3    H258031   3.193   5.721  14.089 -1.9206  1.2254  0.5894
12206TIP3   OH258032   3.177   4.123  11.997 -0.0821 -0.0493  0.1632
12206TIP3    H158033   3.270   4.117  12.017  0.1932  0.7338 -0.8221
12206TIP3    H258034   3.139   4.167  12.073  0.1663 -1.2845  1.0276
12207TIP3   OH258035   0.150   6.619  14.351  0.2347  0.0820  0.6187
12207TIP3    H158036   0.198   6.675  14.412 -0.6379  1.2909  0.2316
12207TIP3    H258037   0.178   6.650  14.264 -0.3909  0.0454  0.4017
12208TIP3   OH258038   2.294   0.804   0.140 -0.2128 -0.2638 -0.4886
12208TIP3    H158039   2.208   0.796   0.099 -0.5039  1.7861 -0.4025
12208TIP3    H258040   2.299   0.896   0.167  2.8035  0.2491 -2.3400
12209TIP3   OH258041   2.422   1.801   0.083  0.3060 -0.4760  0.4004
12209TIP3    H158042   2.423   1.893   0.109  1.9672 -0.4210  0.2101
12209TIP3    H258043   2.444   1.753   0.163  1.7743 -0.5396 -0.0206
12210TIP3   OH258044   2.757   6.303   4.476 -0.0349  0.0639  0.0299
12210TIP3    H158045   2.685   6.252   4.512  0.4863 -0.5015  0.2858
12210TIP3    H258046   2.834   6.274   4.524  0.1468  1.7326  0.8000
12211TIP3   OH258047   2.257   1.276  13.406  0.0473  0.8222  0.5275
12211TIP3    H158048   2.306   1.197  13.430  1.9533  2.2107  1.4917
12211TIP3    H258049   2.252   1.273  13.311  0.6942 -0.1269  0.5131
12212TIP3   OH258050   1.148   2.764   1.858  0.0205 -0.1067  0.2110
12212TIP3    H158051   1.071   2.713   1.881 -1.2250  1.9321  0.8036
12212TIP3    H258052   1.209   2.750   1.930 -0.7303  0.0662  0.8913
12213TIP3   OH258053   4.610   3.206   6.092  0.6091  0.6477 -0.2912
12213TIP3    H158054   4.584   3.284   6.140  1.1680 -0.8584  2.7031
12213TIP3    H258055   4.543   3.141   6.112  2.8830 -1.2246  1.9181
12214TIP3   OH258056   6.100   6.618   1.641  0.0110 -0.3310  0.7561
12214TIP3    H158057   6.090   6.686   1.707  1.3437 -0.0537  0.7182
12214TIP3    H258058   6.167   6.560   1.677 -0.2850 -0.9793  0.2779
12215TIP3   OH258059   6.178   1.533  11.626  0.0333 -0.6395 -0.3744
12215TIP3    H158060   6.200   1.625  11.641  0.0191 -0.5772 -0.7388
12215TIP3    H258061   6.240   1.503  11.560  0.4133 -1.0556  0.1605
12216TIP3   OH258062   2.464   3.479   4.108 -0.1835 -0.6608 -0.1307
12216TIP3    H158063   2.379   3.436   4.101 -0.2901 -0.5241  0.2672
12216TIP3    H258064   2.481   3.483   4.203 -0.3956  0.5941 -0.1282
12217TIP3   OH258065   5.696   0.872   1.915 -0.1189 -0.9654  0.2747
12217TIP3    H158066   5.686   0.843   1.824  2.3092 -2.2383  0.3200
12217TIP3    H258067   5.790   0.887   1.925 -0.5786  1.2961  2.0083
12218TIP3   OH258068   5.124   0.003   4.030 -0.1542 -0.4049 -0.1690
12218TIP3    H158069   5.178   0.068   4.074  0.0294 -0.8911  0.3331
12218TIP3    H258070   5.036   0.040   4.031 -0.0564 -0.1809  0.1539
12219TIP3   OH258071   1.353   4.417   0.887 -0.1630  0.0586 -0.0718
12219TIP3    H158072   1.272   4.459   0.859 -0.2524  1.1159  1.5904
12219TIP3    H258073   1.335   4.389   0.977  0.9797 -0.6013 -0.0341
12220TIP3   OH258074   2.869   1.860   3.881  0.0327 -0.0901  0.0610
12220TIP3    H158075   2.782   1.898   3.867 -1.5940 -3.8165 -1.1416
12220TIP3    H258076   2.885   1.871   3.975 -2.1394 -0.0975  0.4678
12221TIP3   OH258077   1.910   4.874   3.331  0.3845 -0.3597  0.4188
12221TIP3    H158078   1.890   4.818   3.255 -1.1045  1.8565 -0.9650
12221TIP3    H258079   1.839   4.855   3.393 -2.6624  2.6966 -1.7470
12222TIP3   OH258080   1.407   6.044   3.187 -0.3681  0.0692  0.0644
12222TIP3    H158081   1.503   6.047   3.189 -0.3754 -0.1722  1.2637
12222TIP3    H258082   1.380   6.065   3.277 -1.4085 -0.8062 -0.0211
12223TIP3   OH258083   4.162   0.870  14.531  0.5386 -0.1929  0.2130
12223TIP3    H158084   4.130   0.785  14.563  0.8943 -0.9004 -1.2082
12223TIP3    H258085   4.184   0.854  14.439 -1.9320  2.1117 -0.9297
12224TIP3   OH258086   3.523   2.510   2.766  0.0644  0.3118 -0.1280
12224TIP3    H158087   3.584   2.553   2.707 -1.3846  1.1620 -1.0913
12224TIP3    H258088   3.447   2.569   2.768 -0.8725 -0.8721  0.7235
12225TIP3   OH258089   5.418   1.824  15.568 -0.3751 -0.0266  0.7338
12225TIP3    H158090   5.499   1.792  15.607  0.3771  2.1727  1.1062
12225TIP3    H258091   5.431   1.817  15.474  0.3725  0.5757  0.7891
12226TIP3   OH258092   4.576   0.264  16.376  0.7273  0.9516 -0.4433
12226TIP3    H158093   4.611   0.343  16.417  1.8493 -0.2288  0.9863
12226TIP3    H258094   4.521   0.224  16.445  4.1934 -2.0995  0.8646
12227TIP3   OH258095   0.651   3.566   3.209 -0.2521  0.5679 -0.2847
12227TIP3    H158096   0.741   3.584   3.182 -0.0601  2.0369  1.1195
12227TIP3    H258097   0.655   3.481   3.253  0.6696  1.0263  0.5669
12228TIP3   OH258098   3.555   1.147   3.778  0.0722 -0.1844  0.0511
12228TIP3    H158099   3.623   1.156   3.845 -0.9720  0.4935  1.0418
12228TIP3    H258100   3.604   1.131   3.697  1.3350 -1.9216  1.0941
12229TIP3   OH258101   5.167   5.165  11.867 -0.5014  0.4150 -0.3137
12229TIP3    H158102   5.245   5.138  11.915 -0.0012  0.8932 -0.8359
12229TIP3    H258103   5.103   5.095  11.882 -0.1135  0.2211  0.4534
12230TIP3   OH258104   5.576   3.480   3.239  0.0445 -0.3985 -0.3695
12230TIP3    H158105   5.618   3.556   3.278 -0.3270 -0.4709  0.1780
12230TIP3    H258106   5.618   3.405   3.280  0.1501 -0.4837 -0.6327
12231TIP3   OH258107   4.113   0.626  12.464 -0.0080 -0.0307 -0.3661
12231TIP3    H158108   4.048   0.591  12.525  1.4497  0.7934  1.7790
12231TIP3    H258109   4.158   0.694  12.514  2.3202 -0.3885 -1.8546
12232TIP3   OH258110   5.722   0.351  13.638  0.3459 -0.0278  0.3596
12232TIP3    H158111   5.760   0.297  13.569 -0.8809 -0.4378 -0.0285
12232TIP3    H258112   5.753   0.312  13.720  0.9802 -0.1743  0.0488
12233TIP3   OH258113   0.286   2.534  10.358 -0.0909  0.4785  0.2095
12233TIP3    H158114   0.379   2.544  10.380  0.2509 -0.4138 -0.7666
12233TIP3    H258115   0.255   2.464  10.417  0.0759  0.1697 -0.0681
12234TIP3   OH258116   3.468   6.270  10.758 -0.3228  0.5385 -0.1891
12234TIP3    H158117   3.518   6.303  10.833 -0.4409  1.8326 -0.6490
12234TIP3    H258118   3.528   6.211  10.714  0.4418  1.2617 -0.1427
12235TIP3   OH258119   4.777   3.718   5.346  0.3345 -0.1701  0.4304
12235TIP3    H158120   4.698   3.665   5.353  1.1468 -1.1751  2.8803
12235TIP3    H258121   4.838   3.664   5.295 -0.1584  0.1231 -0.4805
12236TIP3   OH258122   4.335   5.954  11.563 -0.1653 -0.3365 -0.1796
12236TIP3    H158123   4.386   6.014  11.509  0.2464  1.1922  1.7646
12236TIP3    H258124   4.333   5.872  11.514  0.7846  0.7325 -2.1211
12237TIP3   OH258125   2.341   1.477  15.341  0.7284  0.2001  0.4253
12237TIP3    H158126   2.361   1.429  15.422 -0.3302 -0.9229  0.0602
12237TIP3    H258127   2.272   1.426  15.300  0.7843  1.1213 -0.8754
12238TIP3   OH258128   3.635   5.215  14.963  0.4568 -0.2646 -0.5259
12238TIP3    H158129   3.658   5.207  14.870  2.9008  0.3468 -0.0239
12238TIP3    H258130   3.660   5.131  15.001  2.5920  0.6245  0.1456
12239TIP3   OH258131   5.417   4.917   6.181 -0.0433 -0.3403  0.3799
12239TIP3    H158132   5.374   4.906   6.266  0.7150  0.9048  0.9483
12239TIP3    H258133   5.509   4.930   6.202 -0.0376  1.3406 -0.5048
12240TIP3   OH258134   0.991   4.774  12.829 -0.5573 -0.4953 -0.1067
12240TIP3    H158135   1.032   4.726  12.757 -1.1042 -0.2151 -0.6137
12240TIP3    H258136   0.901   4.790  12.800 -1.2749 -1.7002  1.2565
12241TIP3   OH258137   3.015   4.704  13.769 -0.3923 -0.1070  0.1098
12241TIP3    H158138   2.955   4.746  13.707 -0.2220 -0.2125 -0.1271
12241TIP3    H258139   3.080   4.771  13.789 -1.0903  0.3100  1.0651
12242TIP3   OH258140   6.277   4.753  15.731  0.1442 -0.0386  0.6968
12242TIP3    H158141   6.322   4.758  15.815 -0.7980  1.6301  1.1501
12242TIP3    H258142   6.252   4.661  15.724  0.5156 -0.2818  2.0996
12243TIP3   OH258143   6.479   5.749   3.411 -0.5958  0.0110 -0.1029
12243TIP3    H158144   6.531   5.822   3.444  0.0734 -0.3447 -0.3490
12243TIP3    H258145   6.389   5.772   3.433 -0.3127  0.5041  0.5908
12244TIP3   OH258146   6.460   0.337  15.437 -0.4321  0.2864  0.0126
12244TIP3    H158147   6.366   0.328  15.452 -0.6941  0.4715 -1.4199
12244TIP3    H258148   6.479   0.429  15.457 -0.1273 -0.2083  2.3092
12245TIP3   OH258149   0.479   3.198  13.699 -0.2712 -0.0009 -0.0173
12245TIP3    H158150   0.563   3.231  13.668 -0.4564  1.1504  0.6347
12245TIP3    H258151   0.498   3.112  13.736  0.9543  0.9350  1.6596
12246TIP3   OH258152   2.002   2.107  16.343  0.3141  0.0772  0.2199
12246TIP3    H158153   2.016   2.031  16.286  0.0123 -1.0695  1.6239
12246TIP3    H258154   2.090   2.131  16.372  0.4651  0.6391 -0.6820
12247TIP3   OH258155   4.262   3.642  10.898 -0.3942 -0.3469  0.0508
12247TIP3    H158156   4.227   3.722  10.859 -0.0434 -0.7925 -1.2641
12247TIP3    H258157   4.338   3.621  10.843  1.1364 -0.1406  1.9931
12248TIP3   OH258158   4.406   0.602   1.431 -0.0634 -0.2345  0.0817
12248TIP3    H158159   4.380   0.526   1.483  1.1005 -1.9050 -1.6427
12248TIP3    H258160   4.450   0.660   1.493 -0.5500 -1.1846  1.3555
12249TIP3   OH258161   3.991   5.576   5.454 -0.0408 -0.0408 -0.4029
12249TIP3    H158162   3.991   5.484   5.428 -1.6405 -0.2122  0.1164
12249TIP3    H258163   3.965   5.624   5.375 -4.7464 -0.5477  0.5551
12250TIP3   OH258164   0.794   0.679   3.850  0.5172 -0.0213 -0.0915
12250TIP3    H158165   0.818   0.716   3.935  0.7362  2.1815 -1.0274
12250TIP3    H258166   0.823   0.745   3.786 -2.4200 -0.0958 -1.6810
12251TIP3   OH258167   3.160   4.312  16.934 -0.1129  0.0088  0.4771
12251TIP3    H158168   3.227   4.267  16.986  0.2561 -1.1603 -0.9328
12251TIP3    H258169   3.210   4.372  16.878 -0.0904 -1.4551 -1.1681
12252TIP3   OH258170   2.150   1.215  12.210  0.4684  0.7416  0.0500
12252TIP3    H158171   2.136   1.120  12.219 -0.4636  0.7794 -0.8523
12252TIP3    H258172   2.178   1.227  12.120  0.2520  1.3644  0.0591
12253TIP3   OH258173   3.353   5.550  16.240  0.5159  0.5401  0.1025
12253TIP3    H158174   3.389   5.625  16.192  0.2374 -0.3406 -1.5442
12253TIP3    H258175   3.371   5.570  16.332 -0.4075  3.0958 -0.1843
12254TIP3   OH258176   1.900   4.954  12.215  1.2850 -0.2613 -0.0286
12254TIP3    H158177   1.942   4.896  12.152  1.9219  0.5959 -0.4041
12254TIP3    H258178   1.833   4.899  12.257  0.6167 -0.7456 -1.6637
12255TIP3   OH258179   0.749   3.916   4.991 -0.4248  0.2153  0.7632
12255TIP3    H158180   0.791   3.833   5.012  0.3556  0.6402  0.9462
12255TIP3    H258181   0.763   3.927   4.897  1.8396  1.3686  1.1651
12256TIP3   OH258182   2.791   0.585  15.397  0.1906  0.4519 -0.1021
12256TIP3    H158183   2.717   0.546  15.443 -0.6069  2.1806  0.1822
12256TIP3    H258184   2.867   0.532  15.423 -1.0357 -1.8858 -1.0718
12257TIP3   OH258185   1.063   2.731  13.575 -0.1596  0.3970 -0.2412
12257TIP3    H158186   1.067   2.708  13.482 -0.6685 -0.1896 -0.1212
12257TIP3    H258187   1.026   2.819  13.576 -2.0275 -0.3405 -0.5129
12258TIP3   OH258188   6.621   2.505   4.363 -0.4900 -0.0099  0.0737
12258TIP3    H158189   6.591   2.439   4.301  1.4231 -0.7259 -0.1622
12258TIP3    H258190   6.714   2.517   4.342 -0.0938  0.6305  2.0083
12259TIP3   OH258191   2.683   6.134  12.134 -0.2737 -0.0461  0.8628
12259TIP3    H158192   2.751   6.202  12.134  0.2848 -0.5990  0.7764
12259TIP3    H258193   2.600   6.183  12.137  0.1240  0.6336  0.9309
12260TIP3   OH258194   5.697   3.187  13.832 -0.0011  0.1203  0.4035
12260TIP3    H158195   5.623   3.184  13.772 -0.0324  1.8803  0.2765
12260TIP3    H258196   5.720   3.096  13.848  1.2767 -0.5344 -3.8545
12261TIP3   OH258197   6.223   1.019   2.601  0.2598  0.2231  0.4565
12261TIP3    H158198   6.196   0.935   2.637  0.4772 -0.1763 -0.2915
12261TIP3    H258199   6.145   1.053   2.557  1.0070 -1.2058 -2.2233
12262TIP3   OH258200   2.831   1.323  16.604 -0.4473  0.0349  0.0219
12262TIP3    H158201   2.783   1.249  16.642  1.5790 -0.7847  1.1413
12262TIP3    H258202   2.909   1.283  16.565  1.3305  1.6591  1.7336
12263TIP3   OH258203   3.685   1.261   4.765 -0.0340  0.4174 -0.3602
12263TIP3    H158204   3.770   1.292   4.734  0.3343  0.4677  0.6472
12263TIP3    H258205   3.634   1.341   4.779 -0.7324  0.3364 -2.2267
12264TIP3   OH258206   1.696   3.496  14.110 -0.0168  0.1329  0.1013
12264TIP3    H158207   1.614   3.452  14.089  0.2690  0.0201 -0.8338
12264TIP3    H258208   1.760   3.424  14.117 -0.0867  0.1668  1.3713
12265TIP3   OH258209   0.103   4.548  12.995  0.8049 -0.3677 -0.1833
12265TIP3    H158210   0.098   4.532  13.089  1.2779 -0.8732 -0.2451
12265TIP3    H258211   0.153   4.630  12.988 -0.2394  0.3212  0.0473
12266TIP3   OH258212   2.215   4.797  11.005 -0.0725  0.4516  0.0638
12266TIP3    H158213   2.219   4.719  10.951  0.3176 -0.5113  1.4202
12266TIP3    H258214   2.255   4.866  10.952  1.9311 -0.8566 -0.2105
12267TIP3   OH258215   6.476   1.607  13.248 -0.0699 -0.4069 -0.5590
12267TIP3    H158216   6.478   1.626  13.341  0.9895  0.3016 -0.7102
12267TIP3    H258217   6.509   1.686  13.206  1.6216 -1.4873 -1.3862
12268TIP3   OH258218   2.915   4.462   0.980 -0.0173  0.3034  0.4051
12268TIP3    H158219   2.985   4.507   0.933 -0.7376  0.6503 -0.3585
12268TIP3    H258220   2.835   4.509   0.956 -0.6898 -0.8672  0.2492
12269TIP3   OH258221   5.725   6.197   4.063  0.1733 -0.0061  0.4150
12269TIP3    H158222   5.799   6.218   4.006 -0.4282 -0.2951 -0.5016
12269TIP3    H258223   5.750   6.114   4.105  0.6533  0.2499  0.6435
12270TIP3   OH258224   6.117   0.319  12.643  0.4573  0.1711 -0.0682
12270TIP3    H158225   6.111   0.408  12.608  2.9698  0.1148 -0.8248
12270TIP3    H258226   6.210   0.297  12.639  0.1720 -1.8264  1.8315
12271TIP3   OH258227   4.437   3.976  12.341  0.4398  1.1674  0.1921
12271TIP3    H158228   4.505   4.028  12.297  1.2953  1.2635  1.5588
12271TIP3    H258229   4.484   3.927  12.408 -0.5161 -0.5990 -0.3674
12272TIP3   OH258230   4.742   3.475   0.496 -0.6802  0.1322  0.5209
12272TIP3    H158231   4.650   3.456   0.482 -0.6498  1.2794 -1.9115
12272TIP3    H258232   4.744   3.533   0.572 -1.8026 -0.8389  1.3176
12273TIP3   OH258233   0.498   1.176  11.304 -0.4458  0.4246 -0.4014
12273TIP3    H158234   0.576   1.147  11.257 -0.6535 -0.4248 -0.2404
12273TIP3    H258235   0.488   1.268  11.279 -0.0931  0.2098 -1.3925
12274TIP3   OH258236   3.352   1.070  15.446  0.3001 -0.4382 -0.3080
12274TIP3    H158237   3.396   1.152  15.423  1.3028 -1.1480 -1.0185
12274TIP3    H258238   3.259   1.091  15.441  0.4818  0.0430 -2.9738
12275TIP3   OH258239   5.362   1.271  13.885 -0.0521 -0.0496  0.2884
12275TIP3    H158240   5.318   1.311  13.810 -0.9608 -0.5289  0.5483
12275TIP3    H258241   5.299   1.278  13.957 -0.2254 -1.8351  0.3614
12276TIP3   OH258242   5.317   2.934  11.459 -0.8914  0.0825 -0.7202
12276TIP3    H158243   5.329   2.939  11.364  1.0395  1.1594 -0.4615
12276TIP3    H258244   5.339   3.021  11.491 -3.1720  0.2534  0.6157
12277TIP3   OH258245   2.545   0.757   1.640  0.0746 -0.0446 -0.2298
12277TIP3    H158246   2.569   0.664   1.637 -0.7400 -0.2564 -0.3687
12277TIP3    H258247   2.460   0.761   1.597  0.1303  0.7824 -0.2747
12278TIP3   OH258248   3.867   6.253   0.532  0.2331 -0.2012 -0.1655
12278TIP3    H158249   3.931   6.305   0.484 -0.2599 -0.2848 -0.9276
12278TIP3    H258250   3.877   6.164   0.497 -1.3705  0.0841 -1.4591
12279TIP3   OH258251   3.800   4.029   1.002 -0.4064 -0.3330  0.1417
12279TIP3    H158252   3.884   4.049   0.961 -1.8622  1.0483 -2.4880
12279TIP3    H258253   3.749   3.988   0.933 -2.8673  1.6167  0.6351
12280TIP3   OH258254   1.646   3.260   5.030  0.0286  0.2790  0.5381
12280TIP3    H158255   1.735   3.264   5.066  1.5382 -1.1106 -2.6090
12280TIP3    H258256   1.619   3.169   5.041 -0.3638  0.3440  0.1361
12281TIP3   OH258257   2.652   2.077  11.370  0.1432  0.2949  0.2608
12281TIP3    H158258   2.611   2.071  11.284  1.9784  0.1606 -0.6581
12281TIP3    H258259   2.681   1.988  11.389  2.3894  0.8192 -0.4050
12282TIP3   OH258260   3.028   1.303   4.829 -0.0115 -0.3011 -0.2018
12282TIP3    H158261   3.020   1.376   4.768  0.9102  0.2493  0.3104
12282TIP3    H258262   2.950   1.250   4.813 -0.4903  0.5733 -0.8691
12283TIP3   OH258263   0.707   5.980   0.284 -0.6108  0.5046  0.6633
12283TIP3    H158264   0.639   6.047   0.284 -0.5168  0.7018 -1.8169
12283TIP3    H258265   0.671   5.909   0.229 -0.2353 -0.9870  2.2639
12284TIP3   OH258266   5.071   1.928   3.311  0.2576  0.4140 -0.1596
12284TIP3    H158267   5.134   1.890   3.372  1.1319 -0.4852 -1.5557
12284TIP3    H258268   4.989   1.883   3.331  0.6884 -0.3534 -0.0661
12285TIP3   OH258269   0.256   0.847  13.119  0.7320 -0.7248 -0.0665
12285TIP3    H158270   0.277   0.909  13.188  0.1639  0.0420 -0.5663
12285TIP3    H258271   0.336   0.839  13.068  1.5546 -2.2237  1.3340
12286TIP3   OH258272   4.253   2.511  16.818 -0.2189  0.6069  0.2357
12286TIP3    H158273   4.197   2.572  16.867 -0.6415 -0.7032  1.4675
12286TIP3    H258274   4.258   2.433  16.874  0.3600 -0.4704 -1.2415
12287TIP3   OH258275   3.468   3.257  10.868  0.0427 -0.2347  0.3698
12287TIP3    H158276   3.514   3.321  10.814  1.4191 -0.0507  1.6722
12287TIP3    H258277   3.497   3.172  10.835  1.5831 -0.1172  1.3401
12288TIP3   OH258278   1.220   4.061   3.421 -0.4517 -0.2459  0.0419
12288TIP3    H158279   1.191   4.122   3.353 -0.7320 -2.2247 -1.7189
12288TIP3    H258280   1.316   4.067   3.418 -0.4175 -1.1241 -1.3593
12289TIP3   OH258281   2.245   6.687  16.561  0.5623  0.3791  0.4511
12289TIP3    H158282   2.195   6.606  16.550  1.3490 -0.0987  0.3366
12289TIP3    H258283   2.309   6.666  16.629 -0.0143  1.2938  1.3140
12290TIP3   OH258284   4.589   0.030   1.607  0.2670 -0.1055  0.4873
12290TIP3    H158285   4.610  -0.059   1.579  1.0254  0.2829 -0.2157
12290TIP3    H258286   4.641   0.044   1.686  0.8184  0.0126  0.1063
12291TIP3   OH258287   6.812   0.130  11.149 -0.4293  0.0333  0.0979
12291TIP3    H158288   6.791   0.060  11.210 -0.0223 -0.1871 -0.0085
12291TIP3    H258289   6.795   0.092  11.062  1.4302 -0.5536 -0.0654
12292TIP3   OH258290   5.507   0.197  10.839 -0.6451 -0.3075 -0.7212
12292TIP3    H158291   5.554   0.266  10.791 -0.1602 -0.4174 -0.4153
12292TIP3    H258292   5.475   0.138  10.771  1.3836 -1.3157 -0.8561
12293TIP3   OH258293   0.972   5.398   5.744 -0.1510  0.2172 -0.0291
12293TIP3    H158294   0.947   5.354   5.662 -0.4966 -0.6831  0.5465
12293TIP3    H258295   0.942   5.488   5.732 -2.9899 -0.6009  0.2788
12294TIP3   OH258296   6.081   4.306  13.438  0.0027  0.1483  0.3265
12294TIP3    H158297   6.057   4.360  13.363 -1.3784 -0.0965  0.5612
12294TIP3    H258298   6.087   4.217  13.402 -0.7032  0.0243  0.4986
12295TIP3   OH258299   1.247   5.805  13.439  0.2252 -0.4583 -0.1471
12295TIP3    H158300   1.273   5.797  13.531 -2.2087  0.2177  0.6903
12295TIP3    H258301   1.226   5.716  13.412  0.1585 -0.5620  0.2319
12296TIP3   OH258302   5.838   4.402  15.340 -0.9136  0.2546  0.2434
12296TIP3    H158303   5.867   4.312  15.349 -1.6503 -0.1774 -1.3474
12296TIP3    H258304   5.879   4.448  15.414  0.0223 -1.2187  0.6858
12297TIP3   OH258305   3.384   0.179  16.800 -0.2323 -0.3946  0.6199
12297TIP3    H158306   3.335   0.176  16.718 -0.7228  0.2957  0.8842
12297TIP3    H258307   3.412   0.088  16.814  1.0570 -0.3101 -1.0107
12298TIP3   OH258308   4.345   0.459   4.263  0.0562  0.5761 -0.1378
12298TIP3    H158309   4.334   0.480   4.170  0.5351  1.1136 -0.0854
12298TIP3    H258310   4.433   0.490   4.284  1.5658 -3.0835 -0.4387
12299TIP3   OH258311   2.144   5.322   2.405  0.2594  0.0994 -0.5527
12299TIP3    H158312   2.170   5.286   2.320 -1.3334 -0.6327 -0.7692
12299TIP3    H258313   2.196   5.274   2.469  3.4027  2.3807 -1.1197
12300TIP3   OH258314   3.811   2.842   6.605  0.6313 -0.0932  0.5323
12300TIP3    H158315   3.812   2.936   6.585  2.0605 -0.1817  0.0495
12300TIP3    H258316   3.888   2.807   6.559 -0.7337 -1.7832 -0.5810
12301TIP3   OH258317   3.151   0.292   1.277 -0.3174  0.5519 -0.8064
12301TIP3    H158318   3.125   0.202   1.256 -0.4665  0.5861 -0.7705
12301TIP3    H258319   3.072   0.344   1.259 -1.2449  0.3064  2.0636
12302TIP3   OH258320   0.069   3.187   4.347  0.0332  0.1489  0.1029
12302TIP3    H158321  -0.003   3.249   4.355  0.2992  0.3475  1.0901
12302TIP3    H258322   0.027   3.105   4.319 -0.6485  0.1482  1.0591
12303TIP3   OH258323   0.824   3.276   5.330 -0.2695 -0.5418 -0.0001
12303TIP3    H158324   0.798   3.365   5.308 -1.1409 -1.0657 -1.2075
12303TIP3    H258325   0.807   3.225   5.251  0.4004 -1.7463  0.5953
12304TIP3   OH258326   0.236   5.448  13.973 -0.4909 -0.2195 -0.1059
12304TIP3    H158327   0.276   5.376  13.924 -0.5582  0.0678 -0.5918
12304TIP3    H258328   0.288   5.455  14.053  0.4672  0.1925 -0.7590
12305TIP3   OH258329   4.269   2.256   0.186  0.5286  0.4911  0.2492
12305TIP3    H158330   4.226   2.253   0.272 -0.2878  1.6438 -0.0935
12305TIP3    H258331   4.340   2.319   0.197  2.6670 -1.9020  1.0020
12306TIP3   OH258332   4.472   3.358  13.239  0.0087 -0.3170  0.0285
12306TIP3    H158333   4.516   3.406  13.169  0.2109  0.7462  0.8543
12306TIP3    H258334   4.380   3.357  13.214 -0.5747  3.3545  1.4617
12307TIP3   OH258335   3.450   3.152   1.089 -0.0739  0.1594 -0.0635
12307TIP3    H158336   3.501   3.074   1.114 -1.1044 -0.2618  0.7848
12307TIP3    H258337   3.421   3.134   1.000  0.2542 -0.1240 -0.1164
12308TIP3   OH258338   4.076   4.688   1.123 -0.2893  0.8028  0.4206
12308TIP3    H158339   4.047   4.750   1.190  1.1175  3.3045 -1.1080
12308TIP3    H258340   4.059   4.733   1.040  3.5822  0.5672 -0.7079
12309TIP3   OH258341   0.175   2.925   1.729 -0.0435  0.2355  0.0302
12309TIP3    H158342   0.237   2.923   1.656  1.5530 -0.4868  1.3178
12309TIP3    H258343   0.114   2.853   1.711 -0.2974  0.7137 -1.0755
12310TIP3   OH258344   2.950   3.712   6.656 -0.2044  0.0088 -0.0675
12310TIP3    H158345   2.955   3.618   6.644 -0.7082  0.2165 -2.4669
12310TIP3    H258346   2.861   3.735   6.629 -0.3896  1.0847  1.3409
12311TIP3   OH258347   1.073   0.896  12.410  0.3248  0.1301  0.3014
12311TIP3    H158348   1.162   0.863  12.418  0.3790 -0.0877 -0.9092
12311TIP3    H258349   1.083   0.985  12.375  0.0766  0.1790  0.3513
12312TIP3   OH258350   0.025   6.239   1.677 -0.5335  0.5485 -0.1441
12312TIP3    H158351   0.055   6.151   1.655 -3.2313 -0.0592 -1.8801
12312TIP3    H258352   0.081   6.297   1.624  2.5034  0.1893  2.3622
12313TIP3   OH258353   2.101   0.599   2.625 -0.3043  0.2998  0.4695
12313TIP3    H158354   2.007   0.583   2.615 -0.5966  2.4451 -0.8193
12313TIP3    H258355   2.107   0.662   2.697 -0.3891  3.6911 -2.2241
12314TIP3   OH258356   3.916   1.785  13.952  0.5134  0.4924 -0.1580
12314TIP3    H158357   3.849   1.746  13.896 -1.3641 -0.6830  2.6785
12314TIP3    H258358   3.992   1.728  13.942  0.7365  1.0907 -2.4275
12315TIP3   OH258359   0.172   0.141   3.406  0.0564  0.0905 -0.2832
12315TIP3    H158360   0.107   0.083   3.446  2.0347 -1.5573  0.6968
12315TIP3    H258361   0.136   0.161   3.320 -1.5441 -1.1277  0.0639
12316TIP3   OH258362   4.808   1.787   5.284  0.2233  0.7891  0.0663
12316TIP3    H158363   4.868   1.774   5.210 -0.7467 -1.1345 -0.4179
12316TIP3    H258364   4.833   1.873   5.319  1.9468  0.9176 -1.3240
12317TIP3   OH258365   1.128   1.618   1.285  0.0440 -0.6563 -0.2034
12317TIP3    H158366   1.180   1.666   1.221  1.4036 -2.0112 -0.1772
12317TIP3    H258367   1.124   1.676   1.361 -0.2142  0.2931 -0.9212
12318TIP3   OH258368   6.535   3.419   1.107 -0.0326  0.0346 -0.7270
12318TIP3    H158369   6.528   3.347   1.169  0.1062  0.4662 -0.2002
12318TIP3    H258370   6.448   3.459   1.106 -0.2886 -0.5217 -1.4996
12319TIP3   OH258371   0.288   3.035   0.203  0.0028  0.1601  0.4155
12319TIP3    H158372   0.261   3.101   0.138 -0.2105  0.2114  0.5548
12319TIP3    H258373   0.288   3.082   0.286 -1.1253 -0.2611  0.6680
12320TIP3   OH258374   1.886   2.296  13.571 -0.3991  0.5004  0.0511
12320TIP3    H158375   1.957   2.360  13.570 -0.6290  0.7566  0.0440
12320TIP3    H258376   1.930   2.211  13.570  0.0299  0.5881  2.8105
12321TIP3   OH258377   3.460   6.261  11.985 -0.1099  0.3782 -0.6289
12321TIP3    H158378   3.518   6.326  11.945  0.3056 -0.2593 -1.0686
12321TIP3    H258379   3.424   6.212  11.911 -0.5646  0.2153 -0.3069
12322TIP3   OH258380   6.189   1.076   1.616 -0.5069 -0.4261 -0.1309
12322TIP3    H158381   6.267   1.123   1.645  1.0922 -1.3982 -2.5490
12322TIP3    H258382   6.193   0.991   1.660 -0.7862 -0.0986  0.5365
12323TIP3   OH258383   5.038   0.912   1.854  0.6179  0.0504  0.4375
12323TIP3    H158384   4.992   0.878   1.778 -0.2408  4.1973 -1.1974
12323TIP3    H258385   5.129   0.921   1.826  1.1574 -1.9809  1.3618
12324TIP3   OH258386   0.291   4.536   1.123 -0.3438  0.3337  0.3369
12324TIP3    H158387   0.315   4.471   1.189  2.0129 -1.8965 -2.4460
12324TIP3    H258388   0.225   4.590   1.165  0.2597 -1.5597  4.1056
12325TIP3   OH258389   0.121   5.635   3.225 -0.3205  0.3323  0.5526
12325TIP3    H158390   0.045   5.622   3.282 -1.2961 -0.7608 -0.9220
12325TIP3    H258391   0.169   5.552   3.230  0.5441  0.8562  1.1172
12326TIP3   OH258392   5.673   2.393   0.785  0.2653  0.7457  0.4104
12326TIP3    H158393   5.614   2.466   0.805 -0.2761  0.1575  1.0078
12326TIP3    H258394   5.655   2.329   0.854  2.6119  1.1200  1.4574
12327TIP3   OH258395   5.816   3.382  10.296 -0.0985  0.2967 -0.3094
12327TIP3    H158396   5.773   3.304  10.331 -0.6412  0.8795  0.3577
12327TIP3    H258397   5.904   3.352  10.272  1.2300  0.2911  3.7791
12328TIP3   OH258398   2.219   6.486   3.144 -0.1838 -0.4163 -0.2251
12328TIP3    H158399   2.203   6.477   3.050  0.2009  1.6394 -0.5258
12328TIP3    H258400   2.194   6.576   3.165 -0.2500 -0.8247  1.6511
12329TIP3   OH258401   5.698   0.162  16.640 -0.1965  0.7220  0.3759
12329TIP3    H158402   5.780   0.138  16.596  0.0682  0.6840  0.8792
12329TIP3    H258403   5.655   0.223  16.579  0.4886  1.2121  0.3659
12330TIP3   OH258404   0.844   5.950  14.199 -0.0063  0.1676  0.3919
12330TIP3    H158405   0.937   5.975  14.197 -0.3480  1.4700 -0.3201
12330TIP3    H258406   0.800   6.018  14.148 -1.4584  0.0123  1.3796
12331TIP3   OH258407   3.767   5.261   0.537  0.1683  0.6162  0.7366
12331TIP3    H158408   3.738   5.201   0.468 -0.5164  0.1196  1.4381
12331TIP3    H258409   3.745   5.348   0.505  1.6665  0.5660 -0.5365
12332TIP3   OH258410   4.301   4.258   0.447  0.4354 -0.2425  0.4098
12332TIP3    H158411   4.266   4.251   0.536  0.0431 -0.1521  0.2665
12332TIP3    H258412   4.329   4.169   0.425  2.8267  0.1455  1.5274
12333TIP3   OH258413   4.051   3.334   1.990 -0.3430  0.4287  0.4091
12333TIP3    H158414   3.990   3.268   1.956 -1.1473  0.4708  1.6986
12333TIP3    H258415   4.006   3.418   1.973 -0.6463  0.4612  1.3372
12334TIP3   OH258416   5.500   0.183   4.171 -0.2907  0.1953 -0.6869
12334TIP3    H158417   5.488   0.215   4.081  0.2724  1.6620 -0.2668
12334TIP3    H258418   5.591   0.151   4.172 -0.0030  1.0080 -0.4078
12335TIP3   OH258419   3.477   4.486  11.499  0.0043 -0.2149 -0.6753
12335TIP3    H158420   3.563   4.502  11.461 -0.0215  0.9701 -0.2772
12335TIP3    H258421   3.491   4.413  11.560  1.1988  1.2786  0.9210
12336TIP3   OH258422   2.693   2.386  13.215 -0.5184  0.1697  0.1686
12336TIP3    H158423   2.649   2.308  13.179  0.5213 -0.4937  0.2812
12336TIP3    H258424   2.786   2.367  13.204 -0.2176  0.7709  1.5423
12337TIP3   OH258425   3.983   1.830   1.914 -0.0041  0.0919 -0.5503
12337TIP3    H158426   4.053   1.893   1.928  0.8728 -0.9202 -0.2498
12337TIP3    H258427   3.926   1.872   1.849  1.4642  0.4939 -1.6441
12338TIP3   OH258428   3.000   6.456   5.811 -0.8640 -0.4074 -0.5660
12338TIP3    H158429   3.091   6.466   5.783  0.0831 -2.5952  1.3521
12338TIP3    H258430   2.979   6.539   5.853  0.2937  0.0968 -0.9356
12339TIP3   OH258431   1.252   4.452   6.580 -0.1940 -0.0743 -0.8056
12339TIP3    H158432   1.337   4.494   6.592 -0.9893  1.0443  1.6828
12339TIP3    H258433   1.214   4.496   6.504 -0.2162  2.5113  0.5926
12340TIP3   OH258434   5.191   4.187   1.119  0.8048  0.6306  0.8029
12340TIP3    H158435   5.183   4.182   1.214 -3.2434 -2.7455  0.5879
12340TIP3    H258436   5.131   4.257   1.093 -2.3360 -1.8183  0.7637
12341TIP3   OH258437   2.097   4.382   2.388  0.2187  0.3758 -0.1607
12341TIP3    H158438   2.065   4.352   2.473 -0.7895 -1.6985 -1.2041
12341TIP3    H258439   2.187   4.411   2.405 -0.6926  2.1591  1.9924
12342TIP3   OH258440   1.322   4.819  13.777 -0.7856 -0.0366  0.3060
12342TIP3    H158441   1.387   4.807  13.846  0.0037  0.1201 -0.3951
12342TIP3    H258442   1.250   4.761  13.802  0.6082 -2.0889 -0.1128
12343TIP3   OH258443   2.795   6.400  12.250 -0.3286 -0.7179 -0.3875
12343TIP3    H158444   2.874   6.451  12.232  0.2047 -1.2571  0.3575
12343TIP3    H258445   2.809   6.365  12.338 -0.6570 -2.1735 -0.8834
12344TIP3   OH258446   3.045   3.857   3.042 -0.0514 -0.1413  0.6711
12344TIP3    H158447   2.985   3.800   3.090 -1.5566  0.8417  0.0484
12344TIP3    H258448   3.052   3.935   3.097 -1.9941  1.1042 -0.7212
12345TIP3   OH258449   6.513   2.395   1.077  0.4820  0.1721  0.5540
12345TIP3    H158450   6.460   2.451   1.133  0.0479  0.1114  0.2066
12345TIP3    H258451   6.513   2.438   0.992  0.3502 -0.2281  0.3486
12346TIP3   OH258452   4.379   5.783  13.337  0.1107  0.9344 -0.1618
12346TIP3    H158453   4.343   5.750  13.420  3.3933  0.0699  1.0639
12346TIP3    H258454   4.376   5.878  13.347 -0.0306  0.8469  0.7414
12347TIP3   OH258455   4.942   6.057   3.109  0.1726 -0.0778  0.1385
12347TIP3    H158456   4.997   6.115   3.056 -0.0497  1.1315  1.1869
12347TIP3    H258457   4.865   6.110   3.131 -0.9221 -1.3914 -0.4044
12348TIP3   OH258458   6.243   6.735  14.610 -0.4134  0.1231 -0.2803
12348TIP3    H158459   6.304   6.697  14.673 -1.3097 -0.0792  0.4797
12348TIP3    H258460   6.254   6.681  14.531  0.1663 -0.0920 -0.0607
12349TIP3   OH258461   1.900   0.465  12.602  0.0677  0.3710 -0.0190
12349TIP3    H158462   1.983   0.497  12.568 -0.8434  0.9188 -1.8164
12349TIP3    H258463   1.920   0.379  12.638  1.5070  0.7285  0.0845
12350TIP3   OH258464   6.398   1.806   0.593 -0.2151  0.1553 -0.2062
12350TIP3    H158465   6.322   1.826   0.648 -0.3621 -0.4958 -0.1643
12350TIP3    H258466   6.469   1.789   0.656 -0.2393 -0.0242 -0.2259
12351TIP3   OH258467   0.721   2.359  16.029 -0.3525  0.1936 -0.4280
12351TIP3    H158468   0.763   2.329  15.949 -0.1132  0.6811 -0.4935
12351TIP3    H258469   0.767   2.314  16.099 -0.1226  0.2651 -0.5325
12352TIP3   OH258470   4.151   4.406   0.695 -0.0779  0.2348  0.0491
12352TIP3    H158471   4.188   4.344   0.758  1.3667 -0.1863 -1.1632
12352TIP3    H258472   4.152   4.490   0.741 -3.0825 -0.6944  2.1326
12353TIP3   OH258473   2.291   3.627  10.208  0.3533  0.3411 -0.1688
12353TIP3    H158474   2.217   3.688  10.199  0.3789  0.1212 -2.2416
12353TIP3    H258475   2.363   3.669  10.161  0.7514 -0.6886 -0.5090
12354TIP3   OH258476   0.598   6.444  15.443  0.0671  0.2661 -0.2618
12354TIP3    H158477   0.547   6.444  15.524 -1.3482  3.9922 -0.9301
12354TIP3    H258478   0.630   6.534  15.435  3.1600 -0.8218 -2.1594
12355TIP3   OH258479   6.374   3.387  15.541 -0.2498 -0.4247  0.7031
12355TIP3    H158480   6.406   3.466  15.584 -2.3102  0.0440  1.5051
12355TIP3    H258481   6.395   3.316  15.602 -0.1476 -0.2207  0.9068
12356TIP3   OH258482   3.145   2.041  16.896  0.3965 -0.1848  0.1797
12356TIP3    H158483   3.131   1.956  16.938  1.0903 -0.6738 -0.5457
12356TIP3    H258484   3.206   2.087  16.954  2.0929 -1.2172 -0.7083
12357TIP3   OH258485   1.820   3.023  11.975  0.3786 -0.0954 -0.0538
12357TIP3    H158486   1.850   2.962  11.908 -1.3384  0.1209 -1.0667
12357TIP3    H258487   1.826   3.109  11.934 -0.1357  0.1043  0.2860
12358TIP3   OH258488   3.743   3.890  15.296  0.1450  0.7800 -0.2661
12358TIP3    H158489   3.722   3.929  15.380 -1.3312  2.5463 -1.3794
12358TIP3    H258490   3.675   3.824  15.282  0.2789  0.6199 -0.1648
12359TIP3   OH258491   6.527   0.768   1.809 -0.2614 -0.0474 -0.3763
12359TIP3    H158492   6.572   0.712   1.746  2.2826 -0.5802  1.7612
12359TIP3    H258493   6.555   0.736   1.894 -2.4847  1.5168  1.0502
12360TIP3   OH258494   6.748   0.782  13.726 -0.1696  0.9630  0.1904
12360TIP3    H158495   6.728   0.875  13.711 -2.8817  0.4342  0.0698
12360TIP3    H258496   6.671   0.736  13.694  1.1385 -1.3747  0.2272
12361TIP3   OH258497   2.793   3.713  14.402  0.1981  0.1542 -0.5920
12361TIP3    H158498   2.784   3.618  14.398  1.6430 -0.0094 -0.3968
12361TIP3    H258499   2.718   3.742  14.454 -0.6090 -0.8047 -1.1936
12362TIP3   OH258500   6.111   1.270  15.892 -0.1689 -0.3131  0.2376
12362TIP3    H158501   6.113   1.360  15.923  3.1360 -0.0698 -0.2682
12362TIP3    H258502   6.085   1.276  15.800 -1.3570 -0.0725  0.5765
12363TIP3   OH258503   2.191   5.937  16.834 -0.8585 -0.1728  0.3264
12363TIP3    H158504   2.246   6.012  16.810 -1.4233  0.7756  1.8591
12363TIP3    H258505   2.230   5.863  16.787  0.4076  0.8626 -0.3243
12364TIP3   OH258506   3.656   3.731   3.835  0.1280  0.4054  0.1007
12364TIP3    H158507   3.615   3.757   3.918  0.0966 -0.5009  0.3796
12364TIP3    H258508   3.744   3.771   3.839 -0.2071  1.1560  0.1389
12365TIP3   OH258509   5.270   6.669   2.151  0.4425  0.3540 -0.1468
12365TIP3    H158510   5.326   6.688   2.076  1.3115  1.5991  0.7494
12365TIP3    H258511   5.205   6.740   2.151 -1.1793 -1.0779 -1.1759
12366TIP3   OH258512   2.604   6.545  11.482  0.4024  0.2464  0.4719
12366TIP3    H158513   2.641   6.589  11.558  0.8146 -1.4405  1.2887
12366TIP3    H258514   2.548   6.477  11.518  0.3578 -0.3924 -0.7477
12367TIP3   OH258515   4.797   3.278  14.930 -0.4444  0.0637  0.3089
12367TIP3    H158516   4.795   3.200  14.874 -1.4533  0.0302  0.3716
12367TIP3    H258517   4.760   3.348  14.877 -1.8045 -0.0627  1.0405
12368TIP3   OH258518   5.257   6.296  11.260  0.4246  0.3684  0.3825
12368TIP3    H158519   5.237   6.327  11.171  0.7992 -0.6136 -0.0535
12368TIP3    H258520   5.191   6.339  11.315 -1.1109 -0.5493 -0.6459
12369TIP3   OH258521   4.141   3.966   0.214  0.5590  0.1540  0.5135
12369TIP3    H158522   4.096   3.967   0.299 -0.4486  0.1276 -0.0025
12369TIP3    H258523   4.220   3.914   0.229  0.8287  0.8497  1.6407
12370TIP3   OH258524   2.926   0.690   0.103 -0.4431  0.4291 -0.1289
12370TIP3    H158525   2.980   0.620   0.066  0.3289  1.5418 -1.1444
12370TIP3    H258526   2.988   0.745   0.150 -0.9678  0.7478  0.1940
12371TIP3   OH258527   3.341   1.639   3.384  0.6444 -0.4961 -0.0200
12371TIP3    H158528   3.270   1.609   3.327 -0.3515 -0.5093  1.1922
12371TIP3    H258529   3.303   1.710   3.435  1.9220  0.4361 -0.3044
12372TIP3   OH258530   0.828   3.577  12.139 -0.2562  0.4080 -0.2183
12372TIP3    H158531   0.736   3.595  12.157 -0.7411 -1.2540 -0.9092
12372TIP3    H258532   0.834   3.482  12.134  1.3721  0.5085 -0.9083
12373TIP3   OH258533   3.818   2.389   1.961 -0.5669 -0.2785  0.2991
12373TIP3    H158534   3.852   2.300   1.949 -3.7745 -1.8423  1.5571
12373TIP3    H258535   3.828   2.431   1.876  1.4864 -1.6276 -0.1905
12374TIP3   OH258536   0.016   5.702   1.490 -0.4137 -0.2538 -0.1100
12374TIP3    H158537   0.041   5.723   1.580  1.7571  0.3229 -0.7969
12374TIP3    H258538  -0.022   5.783   1.456 -0.3805 -0.1966 -0.0128
12375TIP3   OH258539   5.933   6.399  16.643  0.0914  0.4974 -0.1368
12375TIP3    H158540   5.870   6.400  16.715 -0.4964  0.0559 -0.6303
12375TIP3    H258541   6.017   6.418  16.684 -0.3532  1.0262  0.5444
12376TIP3   OH258542   1.793   6.740  12.352  0.3742 -0.4103 -0.5384
12376TIP3    H158543   1.826   6.655  12.324  1.8685  0.7933 -2.7248
12376TIP3    H258544   1.710   6.750  12.307 -0.0790 -0.9048  0.1622
12377TIP3   OH258545   6.415   1.469  16.844 -0.0078 -0.1312 -0.1925
12377TIP3    H158546   6.463   1.387  16.832 -0.3925 -0.1144 -2.3066
12377TIP3    H258547   6.457   1.511  16.919  1.9047 -1.0779 -0.6633
12378TIP3   OH258548   1.623   5.838  15.831 -0.5540  0.0823 -0.4715
12378TIP3    H158549   1.706   5.833  15.879 -1.1789  0.7295  0.6951
12378TIP3    H258550   1.583   5.920  15.859 -2.2888 -0.9137  0.1616
12379TIP3   OH258551   4.996   6.284   2.957 -0.1327  0.5416  0.0522
12379TIP3    H158552   4.960   6.370   2.980 -1.7353  0.1185 -0.6774
12379TIP3    H258553   5.076   6.304   2.908  1.0710  1.5175  2.2584
12380TIP3   OH258554   5.354   4.122   0.241 -0.0625 -0.1409 -0.5612
12380TIP3    H158555   5.308   4.171   0.173 -0.2060  0.6496  0.1001
12380TIP3    H258556   5.437   4.097   0.200 -0.1475  0.3276 -1.0310
12381TIP3   OH258557   1.998   2.896   0.497  0.0518  0.0703  0.2331
12381TIP3    H158558   1.930   2.896   0.564 -0.2886  0.4380 -0.1140
12381TIP3    H258559   2.077   2.926   0.543  0.0145 -0.4492  0.6578
12382TIP3   OH258560   2.682   0.231   5.467 -0.1866  0.0458  0.6695
12382TIP3    H158561   2.602   0.268   5.504 -0.6602 -0.2420 -0.0489
12382TIP3    H258562   2.666   0.229   5.372  1.5911  2.2094  0.2582
12383TIP3   OH258563   6.658   0.128   1.453  0.2881 -0.4568 -1.1911
12383TIP3    H158564   6.655   0.175   1.536  1.8320 -0.3264 -1.1744
12383TIP3    H258565   6.593   0.058   1.461 -1.2848  0.9888 -0.8006
12384TIP3   OH258566   0.872   6.568   5.998 -0.1552 -0.7727  0.5831
12384TIP3    H158567   0.889   6.550   6.090  0.2230 -1.5441  0.3708
12384TIP3    H258568   0.857   6.663   5.994 -1.0014 -0.8571  1.5577
12385TIP3   OH258569   0.100   5.499   6.188 -0.3396  0.1047 -0.3173
12385TIP3    H158570   0.030   5.492   6.253 -0.7947  1.3847 -0.6439
12385TIP3    H258571   0.133   5.588   6.199  0.9144 -0.3220 -0.5083
12386TIP3   OH258572   6.652   1.354  16.372  0.5878 -0.0653  0.1161
12386TIP3    H158573   6.629   1.338  16.280 -1.6555  0.3477  0.5676
12386TIP3    H258574   6.721   1.289  16.390 -0.3856 -1.5788 -1.2692
12387TIP3   OH258575   5.391   6.149  13.860 -0.0526 -0.3401  0.3297
12387TIP3    H158576   5.368   6.057  13.876 -1.4066 -0.1391 -0.3487
12387TIP3    H258577   5.354   6.196  13.935 -1.0797 -0.1286 -0.2946
12388TIP3   OH258578   2.332   2.406  17.011 -0.1831 -0.3424  0.6268
12388TIP3    H158579   2.378   2.326  17.035  0.7060  0.0595  0.2950
12388TIP3    H258580   2.377   2.437  16.932  0.4380  1.2603  1.5577
12389TIP3   OH258581   0.098   5.646   5.138  0.0418 -0.1807  0.5554
12389TIP3    H158582   0.058   5.706   5.201  0.6257  1.0133 -0.1770
12389TIP3    H258583   0.030   5.582   5.119 -1.4549  1.6099 -0.4184
12390TIP3   OH258584   1.112   6.183   4.242 -0.0472 -0.5009 -0.5730
12390TIP3    H158585   1.068   6.221   4.319  0.1438 -0.1768 -0.6223
12390TIP3    H258586   1.205   6.184   4.266 -0.1705 -2.5708  0.1458
12391TIP3   OH258587   1.132   3.257   1.599 -0.4021  0.0493 -0.1451
12391TIP3    H158588   1.134   3.263   1.504  0.6309  1.5608 -0.0654
12391TIP3    H258589   1.137   3.163   1.618  2.3392 -0.1668 -1.5412
12392TIP3   OH258590   2.843   5.316  10.565  0.8080 -0.1537 -0.4646
12392TIP3    H158591   2.912   5.273  10.514 -0.6284 -1.1263 -1.6765
12392TIP3    H258592   2.821   5.394  10.514 -1.3207 -1.6386 -2.0104
12393TIP3   OH258593   0.647   4.393   2.214 -0.5821  0.2061 -0.3942
12393TIP3    H158594   0.603   4.404   2.130 -0.1688  0.4321 -0.5823
12393TIP3    H258595   0.636   4.300   2.234 -0.8739  0.1966 -0.5902
12394TIP3   OH258596   1.649   0.275  12.911 -0.2920 -0.5976  0.4392
12394TIP3    H158597   1.599   0.335  12.967 -0.2860 -1.3170  1.2341
12394TIP3    H258598   1.720   0.244  12.967 -0.0107 -0.9788 -0.1223
12395TIP3   OH258599   1.699   4.500   0.825 -0.0594  0.5492 -0.1027
12395TIP3    H158600   1.786   4.463   0.844 -0.3501  0.5630  1.4335
12395TIP3    H258601   1.663   4.520   0.911 -0.8978  2.1727 -0.7931
12396TIP3   OH258602   0.706   2.394  14.994 -0.1839 -0.4295  0.4450
12396TIP3    H158603   0.789   2.358  15.025  1.3198  1.3154 -1.2314
12396TIP3    H258604   0.702   2.368  14.902  0.1381  2.0331 -0.3552
12397TIP3   OH258605   2.741   4.166   1.731 -0.2392  0.2376 -0.1062
12397TIP3    H158606   2.739   4.111   1.653 -1.1869  0.2387 -0.0979
12397TIP3    H258607   2.682   4.122   1.793 -0.5267  0.9309  0.1205
12398TIP3   OH258608   4.393   3.823  11.661  0.4096  0.3839  0.0048
12398TIP3    H158609   4.341   3.768  11.720 -0.4788  2.5681  1.4266
12398TIP3    H258610   4.472   3.844  11.711  1.5184 -0.8427 -1.1553
12399TIP3   OH258611   1.157   0.517   6.188 -0.3009 -0.0076 -0.4977
12399TIP3    H158612   1.222   0.551   6.126  0.9144 -0.3346  0.5443
12399TIP3    H258613   1.209   0.472   6.255 -1.6063 -0.1488  0.4665
12400TIP3   OH258614   2.258   1.454   1.780  0.5179  0.2242  1.1815
12400TIP3    H158615   2.167   1.462   1.808  0.8303  0.4742  2.1727
12400TIP3    H258616   2.262   1.505   1.699 -0.3174 -0.1514  0.8914
12401TIP3   OH258617   6.387   3.787   2.974  0.2588 -0.0122  0.4364
12401TIP3    H158618   6.324   3.758   2.909 -1.8304  0.7404  2.0275
12401TIP3    H258619   6.416   3.706   3.017  0.8764 -0.4142 -0.7044
12402TIP3   OH258620   0.110   0.366   9.913 -0.0292 -0.4410 -0.3297
12402TIP3    H158621   0.158   0.384   9.833  0.4519  0.4362  0.1354
12402TIP3    H258622   0.158   0.413   9.981 -0.7816 -0.6552  0.3732
12403TIP3   OH258623   3.413   4.827   2.610 -0.3138  0.1288  0.0424
12403TIP3    H158624   3.384   4.791   2.526 -0.0337 -0.6302  0.2613
12403TIP3    H258625   3.332   4.858   2.651 -0.2851  1.7807 -1.0773
12404TIP3   OH258626   4.567   1.537   6.559  0.0968  0.4492  0.1229
12404TIP3    H158627   4.615   1.606   6.512  0.8884 -0.6317 -0.6878
12404TIP3    H258628   4.483   1.532   6.513  0.3767  0.2723 -0.3749
12405TIP3   OH258629   3.466   4.258   4.044 -0.7722  0.0003  0.4656
12405TIP3    H158630   3.525   4.194   4.081  0.2856 -0.6527 -2.1466
12405TIP3    H258631   3.404   4.207   3.992 -1.6028  0.9275  0.5007
12406TIP3   OH258632   1.970   4.426   6.019 -0.0853  0.1051 -0.5188
12406TIP3    H158633   2.032   4.357   5.996  0.8728  0.8216 -0.1251
12406TIP3    H258634   1.968   4.427   6.114  0.5312  1.1351 -0.4930
12407TIP3   OH258635   4.780   4.133   1.057  0.6163  0.5455 -0.5663
12407TIP3    H158636   4.737   4.215   1.081 -0.2796 -0.2762  0.7505
12407TIP3    H258637   4.708   4.072   1.040  1.0706 -1.2801  3.0280
12408TIP3   OH258638   3.263   3.792   6.110 -0.0567 -0.2854  0.1630
12408TIP3    H158639   3.279   3.886   6.107  2.3303 -0.6424 -1.3599
12408TIP3    H258640   3.320   3.760   6.180  0.1159 -0.7352 -0.1777
12409TIP3   OH258641   3.143   0.267  13.048 -0.4414 -0.3415 -0.0654
12409TIP3    H158642   3.150   0.256  12.953 -3.2153 -2.1445 -0.2003
12409TIP3    H258643   3.177   0.185  13.084 -2.6613 -1.2114  0.2083
12410TIP3   OH258644   5.034   5.683  11.231  0.6652  0.0417 -0.7910
12410TIP3    H158645   5.121   5.676  11.193  2.2623 -1.4617  2.7414
12410TIP3    H258646   5.042   5.750  11.298 -1.2510  0.6823 -1.1401
12411TIP3   OH258647   6.561   3.258   1.334  0.2949  0.2952  0.1121
12411TIP3    H158648   6.621   3.244   1.407  0.6183  1.5752  0.1069
12411TIP3    H258649   6.491   3.194   1.348  1.6274 -1.2151  0.1295
12412TIP3   OH258650   6.257   0.055  14.184 -0.0623  0.7573 -0.3665
12412TIP3    H158651   6.235   0.005  14.105 -1.6205  1.1451 -0.2283
12412TIP3    H258652   6.314   0.125  14.153 -0.8842  1.0716 -1.2219
12413TIP3   OH258653   2.127   3.302  11.719  0.4871 -0.2065 -0.2582
12413TIP3    H158654   2.144   3.218  11.761  0.3151  0.2237  0.6836
12413TIP3    H258655   2.091   3.279  11.633 -2.3188 -1.1421  1.0480
12414TIP3   OH258656   1.511   0.688  15.031 -0.0174 -0.8454 -0.0170
12414TIP3    H158657   1.464   0.653  15.106  1.1992 -1.5710  0.4331
12414TIP3    H258658   1.443   0.721  14.973 -0.9606  0.5923  1.8079
12415TIP3   OH258659   3.351   6.369   1.648 -0.4816 -0.0994  0.0153
12415TIP3    H158660   3.434   6.326   1.625 -0.6029 -0.0676 -0.4888
12415TIP3    H258661   3.374   6.461   1.660 -0.7560  0.2857 -2.0240
12416TIP3   OH258662   1.254   0.032  13.307  0.0660  0.2511 -0.0314
12416TIP3    H158663   1.236  -0.022  13.383 -0.0283  1.9055  1.1731
12416TIP3    H258664   1.346   0.058  13.317  0.0662  0.4585 -0.5103
12417TIP3   OH258665   6.635   0.216   5.032  0.3870  0.0273  0.5466
12417TIP3    H158666   6.546   0.233   4.999 -0.0508  0.4227  1.8534
12417TIP3    H258667   6.689   0.213   4.954 -0.9453 -1.3900 -0.3952
12418TIP3   OH258668   4.529   2.463  13.439 -0.0648 -0.1914 -0.3994
12418TIP3    H158669   4.550   2.395  13.503  1.0423  2.2644  2.0652
12418TIP3    H258670   4.613   2.482  13.397 -0.0920  0.5491 -0.1218
12419TIP3   OH258671   4.034   0.111  11.371  0.4633 -0.3402 -0.6456
12419TIP3    H158672   4.112   0.100  11.316  0.1494 -0.2792 -1.1073
12419TIP3    H258673   3.986   0.029  11.360  1.6267 -1.3903  1.5325
12420TIP3   OH258674   1.735   1.781  14.027  0.5190  0.3038  0.2799
12420TIP3    H158675   1.696   1.865  14.005 -1.7459 -1.0962 -1.5789
12420TIP3    H258676   1.706   1.763  14.117  0.2031  1.0908  0.3390
12421TIP3   OH258677   5.705   2.197   0.016 -0.1094  0.8900  0.3900
12421TIP3    H158678   5.733   2.217   0.105  0.0426  0.5200  0.4269
12421TIP3    H258679   5.785   2.204  -0.037  0.0384 -0.0692  0.4788
12422TIP3   OH258680   5.141   1.591  14.361  0.3018  0.6257  0.0248
12422TIP3    H158681   5.090   1.649  14.304 -0.4141  1.5530  1.5234
12422TIP3    H258682   5.120   1.503  14.331  0.6379  1.0944 -1.6729
12423TIP3   OH258683   2.845   4.749  13.540  0.1547 -0.3985  0.1547
12423TIP3    H158684   2.766   4.788  13.504 -0.4245 -1.3459  0.3501
12423TIP3    H258685   2.911   4.762  13.472 -0.4858 -0.6685 -0.5364
12424TIP3   OH258686   0.828   3.844   5.704 -0.4188 -1.1466 -0.4373
12424TIP3    H158687   0.816   3.883   5.618 -0.2374 -0.2622 -0.0717
12424TIP3    H258688   0.916   3.873   5.731 -0.4413 -1.4822  0.0084
12425TIP3   OH258689   3.801   3.043   4.385  0.2671  0.0948  0.0569
12425TIP3    H158690   3.881   3.011   4.429  0.1962  1.4611  1.2467
12425TIP3    H258691   3.731   2.989   4.421  0.6141 -1.0913 -0.9686
12426TIP3   OH258692   3.660   0.275   1.119 -0.7034 -0.1885 -0.0851
12426TIP3    H158693   3.646   0.368   1.102  0.2869  0.0938  0.5309
12426TIP3    H258694   3.750   0.259   1.091 -0.7768 -0.8968  0.0684
12427TIP3   OH258695   2.854   6.006   1.457 -0.2335  0.0684 -0.5404
12427TIP3    H158696   2.823   6.095   1.477  2.1727  0.8432  0.1178
12427TIP3    H258697   2.901   5.979   1.536  1.4886 -0.6168 -1.7375
12428TIP3   OH258698   5.826   1.812  15.756 -0.1795  0.3714 -0.7188
12428TIP3    H158699   5.758   1.749  15.734 -0.1609 -0.8169  2.1398
12428TIP3    H258700   5.778   1.891  15.782 -0.5314 -0.2744  0.7317
12429TIP3   OH258701   3.634   5.705  14.651  0.3000 -0.4223 -0.3090
12429TIP3    H158702   3.688   5.629  14.672 -0.6123 -1.1726 -0.6357
12429TIP3    H258703   3.627   5.753  14.734  0.5679 -0.8795 -0.0152
12430TIP3   OH258704   4.463   5.479   4.654 -0.3812  0.4832 -0.1204
12430TIP3    H158705   4.483   5.474   4.561 -0.0129 -0.2488 -0.0080
12430TIP3    H258706   4.418   5.397   4.674  3.5415 -1.5961  1.2575
12431TIP3   OH258707   0.029   5.006   0.243  0.8799  0.8548  0.1505
12431TIP3    H158708   0.030   5.102   0.247  1.8537  0.8138  1.9023
12431TIP3    H258709  -0.060   4.984   0.215 -0.2259  2.2491  2.3138
12432TIP3   OH258710   2.184   5.043   1.892 -0.1121 -0.3889 -0.4356
12432TIP3    H158711   2.124   5.081   1.956  1.0845  3.0669 -1.1429
12432TIP3    H258712   2.267   5.090   1.906  1.5650 -2.8028 -1.5125
12433TIP3   OH258713   2.682   2.273  13.647  0.1747  0.1374 -0.2157
12433TIP3    H158714   2.773   2.303  13.644 -0.3734  1.8551 -0.8960
12433TIP3    H258715   2.646   2.314  13.726  0.0376 -0.7666  0.2063
12434TIP3   OH258716   5.889   0.021   3.867  0.2808 -0.2076 -0.2139
12434TIP3    H158717   5.888  -0.039   3.792 -1.6788 -1.9105  1.0474
12434TIP3    H258718   5.802   0.060   3.867  1.3037  2.2322 -0.6008
12435TIP3   OH258719   0.513   1.669   1.469  0.1634  0.2779 -0.0523
12435TIP3    H158720   0.465   1.611   1.411  1.2179 -2.1258  1.3169
12435TIP3    H258721   0.491   1.638   1.557  0.2921  2.3983  0.7876
12436TIP3   OH258722   0.451   3.602  14.541 -0.2003  0.4276 -0.1646
12436TIP3    H158723   0.400   3.561  14.471  0.7029  0.1665 -0.6831
12436TIP3    H258724   0.473   3.531  14.600 -2.6172  0.9450  1.4784
12437TIP3   OH258725   6.104   2.388  14.769 -0.0793 -0.1497 -0.0846
12437TIP3    H158726   6.132   2.474  14.739 -1.1408 -0.0845 -0.9850
12437TIP3    H258727   6.041   2.406  14.839  0.3015 -0.2275  0.2831
12438TIP3   OH258728   2.630   4.651  14.539 -0.5105 -0.3319  0.0721
12438TIP3    H158729   2.604   4.721  14.479  0.6643  0.2678  0.2414
12438TIP3    H258730   2.551   4.634  14.591 -0.6468  1.3388  0.4882
12439TIP3   OH258731   0.138   4.577  14.836  0.1514 -0.2520  0.5387
12439TIP3    H158732   0.092   4.528  14.903 -0.8662 -0.9146 -0.6080
12439TIP3    H258733   0.224   4.535  14.830 -1.1933 -3.0706 -1.4928
12440TIP3   OH258734   5.373   5.903  15.540  0.1125 -0.5647 -0.4316
12440TIP3    H158735   5.430   5.885  15.465 -0.2930  0.8897 -1.1483
12440TIP3    H258736   5.351   5.996  15.530 -0.8025 -0.6148  0.9187
12441TIP3   OH258737   5.173   5.658   0.793 -0.1592  0.3909  0.0982
12441TIP3    H158738   5.151   5.574   0.834  2.4561 -0.6460 -0.3886
12441TIP3    H258739   5.139   5.650   0.704  0.9994 -0.6914 -0.2912
12442TIP3   OH258740   4.784   4.464   0.728 -0.3075 -0.7168 -0.1362
12442TIP3    H158741   4.698   4.490   0.763  0.4180  0.2764  0.9718
12442TIP3    H258742   4.768   4.379   0.688 -1.8775 -0.4256 -0.2062
12443TIP3   OH258743   5.062   2.580   5.442  0.5101  1.0177 -0.2111
12443TIP3    H158744   5.040   2.672   5.426  1.7494  1.4295  0.3273
12443TIP3    H258745   5.140   2.584   5.497 -0.8867 -0.3690  1.9935
12444TIP3   OH258746   4.591   4.705  13.127  0.2477 -0.3613 -0.4641
12444TIP3    H158747   4.636   4.670  13.050  0.4749  1.3890 -1.1540
12444TIP3    H258748   4.498   4.697  13.105  0.3161  1.0920 -1.4057
12445TIP3   OH258749   5.114   6.757  15.974  0.2649 -0.0564  0.0098
12445TIP3    H158750   5.113   6.784  16.065  2.3556 -1.3117  0.4740
12445TIP3    H258751   5.058   6.680  15.971  1.9002 -1.3359  0.7612
12446TIP3   OH258752   0.701   2.823  16.725 -0.5499  0.3040  0.1463
12446TIP3    H158753   0.646   2.851  16.798  0.6551 -0.4992  1.4237
12446TIP3    H258754   0.782   2.874  16.734 -0.0677 -0.3922 -0.1190
12447TIP3   OH258755   1.703   4.109   1.402  0.4618  0.2445  0.0443
12447TIP3    H158756   1.622   4.059   1.410 -0.9442  2.5836  1.1889
12447TIP3    H258757   1.707   4.134   1.310  0.4733 -0.7711 -0.2451
12448TIP3   OH258758   1.580   2.843   1.262  0.1726 -0.6628  0.5145
12448TIP3    H158759   1.548   2.766   1.214  0.9592 -1.1792  0.7908
12448TIP3    H258760   1.654   2.810   1.313  1.3074  0.5307 -0.2935
12449TIP3   OH258761   5.856   0.720   6.176  0.2801  0.2970  0.7085
12449TIP3    H158762   5.908   0.676   6.244  0.0279 -0.3066  0.5137
12449TIP3    H258763   5.869   0.667   6.098 -0.5405  0.2109  0.6278
12450TIP3   OH258764   3.086   2.999  16.150 -0.0011  0.3421 -0.3116
12450TIP3    H158765   3.167   3.021  16.197 -0.6508  0.1952  0.9206
12450TIP3    H258766   3.045   2.931  16.204 -0.5995 -0.1080 -1.3036
12451TIP3   OH258767   0.660   3.874  16.987  0.0216  0.0800 -0.2260
12451TIP3    H158768   0.732   3.928  16.956 -0.2593  0.0530 -0.9542
12451TIP3    H258769   0.694   3.785  16.986  0.3059  0.1785  0.4361
12452TIP3   OH258770   3.712   0.391   5.107  0.0458 -0.5181  0.0366
12452TIP3    H158771   3.683   0.472   5.065  0.8854 -0.6824 -0.8805
12452TIP3    H258772   3.633   0.355   5.146 -0.7663 -0.3847 -1.4435
12453TIP3   OH258773   6.761   5.391   5.762 -0.1157 -0.0702  0.6005
12453TIP3    H158774   6.755   5.476   5.717 -0.0083 -0.1528  0.4292
12453TIP3    H258775   6.837   5.401   5.820  0.4155 -0.3325 -0.0347
12454TIP3   OH258776   4.459   0.725   5.694 -0.4938  0.6935  0.3900
12454TIP3    H158777   4.468   0.819   5.679  3.4406  0.4831  0.3118
12454TIP3    H258778   4.365   0.709   5.696 -1.2995  4.5785  0.2716
12455TIP3   OH258779   0.919   5.127  14.157 -0.1156 -0.3771 -0.1941
12455TIP3    H158780   0.865   5.074  14.099  0.2047 -2.8112  1.5432
12455TIP3    H258781   1.007   5.122  14.120 -0.4218  0.5940 -1.0804
12456TIP3   OH258782   6.228   0.574   0.215 -0.3844  0.1703 -0.2424
12456TIP3    H158783   6.218   0.641   0.148 -1.4117  0.8331  0.5375
12456TIP3    H258784   6.323   0.560   0.221 -0.1993  1.0759 -0.8834
12457TIP3   OH258785   3.451   1.876  13.478 -0.5093  0.7063  0.2204
12457TIP3    H158786   3.408   1.863  13.563  0.6222 -0.1833  0.6818
12457TIP3    H258787   3.481   1.966  13.481  0.2346  0.4524  1.1316
12458TIP3   OH258788   1.157   2.568  16.370  0.0460  0.2749 -0.5262
12458TIP3    H158789   1.195   2.595  16.286  0.5433 -1.6966 -0.9906
12458TIP3    H258790   1.074   2.526  16.345  0.6051 -1.1070 -0.1596
12459TIP3   OH258791   5.205   1.724   4.931 -0.4518  0.0250  0.2425
12459TIP3    H158792   5.128   1.746   4.880  0.1608  0.8285 -0.3705
12459TIP3    H258793   5.271   1.699   4.866 -0.0594 -0.2254  0.7256
12460TIP3   OH258794   5.977   5.955  11.487 -0.5103  0.2185 -0.1043
12460TIP3    H158795   5.943   6.036  11.449 -0.5182 -0.0206 -0.6206
12460TIP3    H258796   5.911   5.928  11.550 -0.2985  0.8489  0.4008
12461TIP3   OH258797   3.585   2.031  16.128  0.9487 -0.5321 -0.2110
12461TIP3    H158798   3.536   2.010  16.049 -1.4631  0.4634  0.9216
12461TIP3    H258799   3.649   2.097  16.100  0.8108 -0.9306 -1.5090
12462TIP3   OH258800   5.899   1.715   2.105 -0.2807  0.8293 -0.0109
12462TIP3    H158801   5.836   1.643   2.103  0.1569  0.4311  0.4475
12462TIP3    H258802   5.854   1.786   2.059 -0.7032  0.2588 -0.5067
12463TIP3   OH258803   1.139   3.728   6.178  0.0106  0.3942  0.2962
12463TIP3    H158804   1.226   3.688   6.181 -0.4732 -0.6360  1.6661
12463TIP3    H258805   1.124   3.758   6.267  0.7845  4.7794 -0.8212
12464TIP3   OH258806   6.085   4.927  14.459 -0.2220 -0.6554 -0.6895
12464TIP3    H158807   6.161   4.869  14.465 -0.2858 -0.6547  0.5543
12464TIP3    H258808   6.023   4.891  14.523 -0.7287  0.1049 -0.7385
12465TIP3   OH258809   4.543   4.845  10.976 -0.0597  0.1268  0.1427
12465TIP3    H158810   4.522   4.752  10.977 -1.2212  0.3792  0.4788
12465TIP3    H258811   4.636   4.848  10.952 -0.4231 -1.0321 -1.6407
12466TIP3   OH258812   5.249   4.723   6.050 -0.2266 -0.3397 -0.2402
12466TIP3    H158813   5.278   4.806   6.088 -1.5823  0.5763 -1.1349
12466TIP3    H258814   5.194   4.684   6.118  0.5817 -0.6259  0.2637
12467TIP3   OH258815   1.376   4.127  11.656 -0.1222 -0.0160 -0.1408
12467TIP3    H158816   1.372   4.179  11.576 -0.1341 -0.0881 -0.1878
12467TIP3    H258817   1.295   4.075  11.655 -2.0206  2.6226  1.7320
12468TIP3   OH258818   2.825   3.389  14.689  0.3825  0.9318 -0.0668
12468TIP3    H158819   2.777   3.421  14.612 -1.9835  0.9579  1.3164
12468TIP3    H258820   2.865   3.467  14.727 -1.1864  1.5051  0.4963
12469TIP3   OH258821   6.175   5.524  11.573  0.4868  1.2334  0.3042
12469TIP3    H158822   6.100   5.532  11.514  0.3347 -0.6522  0.1826
12469TIP3    H258823   6.239   5.472  11.524  1.9632  2.9141  0.3540
12470TIP3   OH258824   4.758   3.942   2.689 -0.3279 -0.1983  0.3633
12470TIP3    H158825   4.751   3.871   2.753  1.4838  0.4927  1.4198
12470TIP3    H258826   4.723   4.018   2.734  1.3570  0.3893  0.7844
12471TIP3   OH258827   4.684   4.412   2.404 -0.5741  0.8404 -0.5078
12471TIP3    H158828   4.709   4.497   2.368  0.9699  1.4988  1.8713
12471TIP3    H258829   4.648   4.433   2.490  2.3919 -0.9756  1.3456
12472TIP3   OH258830   2.308   1.560   4.817 -0.3181 -0.5563  0.5148
12472TIP3    H158831   2.387   1.589   4.861  0.8758 -0.3221 -1.6536
12472TIP3    H258832   2.265   1.641   4.788 -0.2812 -0.7290 -0.0495
12473TIP3   OH258833   3.673   4.603   0.296  0.1266  0.0808 -0.4074
12473TIP3    H158834   3.687   4.614   0.202 -1.7701 -0.7483 -0.8330
12473TIP3    H258835   3.703   4.514   0.314 -0.3708 -0.0941 -0.4284
12474TIP3   OH258836   0.480   2.542  13.028 -0.1458  0.6844 -0.2997
12474TIP3    H158837   0.435   2.550  12.944  0.6413 -0.6037 -0.8892
12474TIP3    H258838   0.571   2.562  13.008 -0.1174  1.3912  0.4778
12475TIP3   OH258839   0.256   0.019   5.326 -0.0518  0.6784  0.0620
12475TIP3    H158840   0.311   0.002   5.250  0.3397  1.4828  0.1496
12475TIP3    H258841   0.306   0.082   5.378  0.7675 -1.5920  2.2009
12476TIP3   OH258842   2.126   2.949  14.777 -0.0495  0.1277  0.2824
12476TIP3    H158843   2.168   2.964  14.862 -2.5429  2.7623  1.1890
12476TIP3    H258844   2.162   3.018  14.721 -1.7065  1.2483  0.5498
12477TIP3   OH258845   2.276   0.458   4.435 -0.0085 -0.0981  0.3252
12477TIP3    H158846   2.219   0.503   4.497 -0.9925  0.8007 -1.1759
12477TIP3    H258847   2.339   0.411   4.491 -0.8593  0.6294  1.9853
12478TIP3   OH258848   2.199   2.924  12.598  0.2357  0.3622 -0.1717
12478TIP3    H158849   2.157   3.010  12.603  2.2648  1.3771  0.6387
12478TIP3    H258850   2.148   2.876  12.533 -0.3112  2.5631 -1.4751
12479TIP3   OH258851   2.323   0.292   6.436 -0.4426 -0.4176  1.0983
12479TIP3    H158852   2.352   0.274   6.525  1.5773  0.8620  0.7730
12479TIP3    H258853   2.382   0.361   6.405 -0.5559 -1.3467 -1.4917
12480TIP3   OH258854   3.981   5.744  11.696 -0.5306 -0.0119  0.5558
12480TIP3    H158855   4.005   5.669  11.642  0.3845  0.0906  0.8044
12480TIP3    H258856   3.999   5.821  11.641  1.5285  0.1488  1.3714
12481TIP3   OH258857   4.127   6.298  15.726  0.2450 -0.7483  0.4985
12481TIP3    H158858   4.086   6.315  15.642 -0.2882  1.7764  1.1769
12481TIP3    H258859   4.220   6.290  15.707 -0.0765 -2.4970 -0.5539
12482TIP3   OH258860   4.486   3.783   1.914 -0.0138 -0.2001  0.5759
12482TIP3    H158861   4.448   3.864   1.880  1.1901  0.1921  0.1059
12482TIP3    H258862   4.467   3.785   2.008 -0.1565  0.5296  0.5370
12483TIP3   OH258863   0.945   4.721   0.973 -0.6358  0.1775 -0.4564
12483TIP3    H158864   0.996   4.734   0.893 -1.3703  0.9067 -0.8195
12483TIP3    H258865   0.973   4.791   1.032 -2.5877  1.8497 -1.3876
12484TIP3   OH258866   3.070   0.661   1.122 -0.3516 -0.5560 -0.3259
12484TIP3    H158867   3.028   0.650   1.207 -1.5444  3.5452 -0.1962
12484TIP3    H258868   3.001   0.644   1.058 -0.0429 -1.4290 -0.4480
12485TIP3   OH258869   0.146   0.845  15.870 -0.1337  0.3856  0.6087
12485TIP3    H158870   0.155   0.753  15.894  0.6584  0.5177  0.8749
12485TIP3    H258871   0.105   0.844  15.784  0.4518 -0.2470  0.3242
12486TIP3   OH258872   2.526   4.499  13.437 -0.0040  0.5212  0.2911
12486TIP3    H158873   2.493   4.574  13.388  0.0060 -0.3256 -1.0544
12486TIP3    H258874   2.448   4.454  13.469 -0.0704  0.1765 -0.3442
12487TIP3   OH258875   1.190   6.331  10.245  0.2492  0.1361 -0.6782
12487TIP3    H158876   1.169   6.423  10.227  0.7817  0.5727  0.7465
12487TIP3    H258877   1.123   6.303  10.307  0.0951 -0.4401 -1.1009
12488TIP3   OH258878   0.035   2.366  16.212  0.1755 -0.2634  0.6532
12488TIP3    H158879  -0.006   2.361  16.126 -0.3448  3.4752  0.5105
12488TIP3    H258880   0.128   2.352  16.195 -0.2257 -2.6660  0.0493
12489TIP3   OH258881   6.052   1.809   3.894  0.3853  0.2172  0.2042
12489TIP3    H158882   6.050   1.754   3.973  0.5754 -0.8859 -0.5256
12489TIP3    H258883   6.066   1.746   3.822  0.0804  1.1789 -0.7176
12490TIP3   OH258884   5.028   5.265  15.966 -0.0271  0.4431  0.0259
12490TIP3    H158885   5.039   5.171  15.951 -0.6344  0.1916  1.1039
12490TIP3    H258886   5.082   5.306  15.898 -0.1941 -0.6721 -0.8077
12491TIP3   OH258887   3.833   5.000  12.861  0.4382  0.7879  0.4112
12491TIP3    H158888   3.861   5.075  12.913  2.7573  0.1419  0.2207
12491TIP3    H258889   3.909   4.978  12.807 -0.7821 -0.5929 -0.8490
12492TIP3   OH258890   5.554   1.546   1.569 -0.2163 -0.2769  0.6554
12492TIP3    H158891   5.469   1.540   1.612 -0.9412  0.8975 -0.5473
12492TIP3    H258892   5.607   1.597   1.630 -0.5324 -0.5450  1.1647
12493TIP3   OH258893   6.356   6.687  15.180 -0.0057  0.1093 -0.1972
12493TIP3    H158894   6.355   6.761  15.240 -0.0831 -0.5406  0.6333
12493TIP3    H258895   6.291   6.626  15.216 -0.4469 -0.0689 -1.2501
12494TIP3   OH258896   2.139   1.210   0.406  0.0428 -0.7326  1.0514
12494TIP3    H158897   2.083   1.143   0.446 -0.3673 -0.7707  0.4328
12494TIP3    H258898   2.088   1.242   0.331  1.4283 -1.7620 -0.3949
12495TIP3   OH258899   0.538   0.621   4.679  0.3403 -0.6888 -0.2142
12495TIP3    H158900   0.455   0.574   4.676 -0.3760  0.4065  1.1535
12495TIP3    H258901   0.514   0.713   4.667  1.4152 -0.4070 -0.3520
12496TIP3   OH258902   0.645   4.260   1.068 -0.1707  0.1011 -0.1475
12496TIP3    H158903   0.712   4.194   1.054 -1.7931 -1.5083 -0.8540
12496TIP3    H258904   0.634   4.301   0.982 -1.3813 -1.0085 -0.5658
12497TIP3   OH258905   2.913   6.206  16.511 -0.1427  0.5612  0.2858
12497TIP3    H158906   2.887   6.285  16.558  0.7511 -0.4254  2.5695
12497TIP3    H258907   2.880   6.219  16.422  0.2212  3.6079  0.4960
12498TIP3   OH258908   0.645   1.870  14.387  0.0368  0.0339  0.1322
12498TIP3    H158909   0.715   1.850  14.450  1.0789 -0.2946 -1.0959
12498TIP3    H258910   0.646   1.798  14.325  0.0436  1.0754 -1.1208
12499TIP3   OH258911   1.141   4.969  14.890  0.1216  0.1740 -0.0206
12499TIP3    H158912   1.058   4.922  14.903  0.4948 -0.4465  0.1937
12499TIP3    H258913   1.116   5.059  14.871 -0.5905  0.0872  0.4921
12500TIP3   OH258914   3.710   2.806   5.548 -0.3825 -0.0822 -0.0365
12500TIP3    H158915   3.718   2.872   5.479 -0.4991  0.6756  0.6649
12500TIP3    H258916   3.637   2.836   5.602  0.9663  0.4196  1.5870
12501TIP3   OH258917   0.764   0.946  15.065  0.2583  0.8745 -1.2038
12501TIP3    H158918   0.816   0.885  15.118  0.7590  2.4255  0.1593
12501TIP3    H258919   0.828   1.009  15.031 -0.2313  0.6008 -2.7144
12502TIP3   OH258920   1.450   1.909  15.296 -0.5667 -0.4320  0.1757
12502TIP3    H158921   1.420   1.854  15.223  0.5964  0.7798 -1.2886
12502TIP3    H258922   1.387   1.980  15.301  0.5784  0.7396 -1.2311
12503TIP3   OH258923   6.075   2.423   2.891  0.0168 -0.4153  0.6029
12503TIP3    H158924   6.169   2.405   2.891  0.5378  1.8642  0.2329
12503TIP3    H258925   6.036   2.355   2.945  2.0833 -0.5039  2.0695
12504TIP3   OH258926   2.845   5.436  15.469 -0.1405  0.2815  0.0812
12504TIP3    H158927   2.842   5.477  15.556 -2.1419 -0.2913  0.3412
12504TIP3    H258928   2.828   5.509  15.409 -2.0761  0.1733  0.4334
12505TIP3   OH258929   4.933   5.217   0.906  0.3698  0.4690  0.4704
12505TIP3    H158930   4.839   5.222   0.893  0.2933  1.7145  1.3897
12505TIP3    H258931   4.948   5.128   0.940 -0.3599  0.0065 -0.3819
12506TIP3   OH258932   1.055   1.772   4.820 -0.1438  0.9256 -0.0860
12506TIP3    H158933   1.116   1.820   4.876 -0.3555  2.2053 -0.9028
12506TIP3    H258934   1.109   1.706   4.776  0.2965  0.8724  0.5279
12507TIP3   OH258935   4.585   6.709   0.526  0.3260  0.4084 -0.4086
12507TIP3    H158936   4.525   6.759   0.472 -0.6277 -0.5906 -0.3219
12507TIP3    H258937   4.570   6.741   0.615 -0.0646  0.1739 -0.3906
12508TIP3   OH258938   5.437   6.725   3.088 -0.2194 -0.0939 -0.2172
12508TIP3    H158939   5.440   6.644   3.139 -0.5473  0.0868  0.0964
12508TIP3    H258940   5.403   6.790   3.150  0.4499  0.3787 -0.3351
12509TIP3   OH258941   2.339   0.518   0.106  0.2564 -0.1048  0.7666
12509TIP3    H158942   2.284   0.439   0.100 -0.9719  0.7407  0.4601
12509TIP3    H258943   2.333   0.558   0.019 -0.5467  1.2200  1.4010
12510TIP3   OH258944   0.599   2.884  16.207 -0.0918 -0.1438 -0.5668
12510TIP3    H158945   0.507   2.858  16.219 -0.0556 -0.5558 -1.1415
12510TIP3    H258946   0.634   2.819  16.146  0.0050  1.2502 -2.0524
12511TIP3   OH258947   1.271   5.159   5.748  0.1024 -0.4099 -0.2320
12511TIP3    H158948   1.324   5.138   5.672 -0.1394  0.1723 -0.5683
12511TIP3    H258949   1.271   5.255   5.752  2.1488 -0.4052  1.9391
12512TIP3   OH258950   1.860   0.919   4.098  0.4539 -0.3041  0.2210
12512TIP3    H158951   1.945   0.875   4.089 -0.1206 -1.2636 -0.6996
12512TIP3    H258952   1.881   1.006   4.132  1.7751 -0.6420  0.3032
12513TIP3   OH258953   4.558   4.851  12.077  0.2487 -0.0066  0.8356
12513TIP3    H158954   4.479   4.902  12.061 -0.7884 -1.9934 -0.6919
12513TIP3    H258955   4.534   4.792  12.148  0.9478  0.4973  1.5179
12514TIP3   OH258956   1.936   4.008   1.653 -0.4448 -0.2148 -0.7657
12514TIP3    H158957   1.958   4.073   1.720 -0.1430  0.2119 -1.2693
12514TIP3    H258958   1.840   4.005   1.654 -0.4440 -0.1742 -0.3555
12515TIP3   OH258959   3.379   4.689   4.809 -0.0977 -0.1686 -0.3273
12515TIP3    H158960   3.321   4.654   4.742  1.0456 -1.1402 -0.8374
12515TIP3    H258961   3.397   4.779   4.781  0.0743 -0.4464 -1.1285
12516TIP3   OH258962   2.102   1.250   5.381  0.4971 -0.1404 -0.1791
12516TIP3    H158963   2.071   1.235   5.470  1.5389 -2.2687 -0.1192
12516TIP3    H258964   2.195   1.272   5.392  0.1840  1.6204 -0.6561
12517TIP3   OH258965   0.819   4.838  12.436 -0.5186  0.6119  0.7729
12517TIP3    H158966   0.856   4.911  12.485 -0.3389 -0.0923  1.7271
12517TIP3    H258967   0.763   4.793  12.499 -1.0247  0.2134  0.0550
12518TIP3   OH258968   1.537   3.458   0.273  0.2102 -0.4618 -0.0204
12518TIP3    H158969   1.628   3.469   0.246  0.3582 -0.7597  0.3453
12518TIP3    H258970   1.518   3.366   0.256 -0.1756 -0.2870 -0.5505
12519TIP3   OH258971   5.422   4.092   5.847 -0.1713  0.1601 -0.5003
12519TIP3    H158972   5.364   4.037   5.901  0.3967 -0.9208 -0.9612
12519TIP3    H258973   5.505   4.044   5.846  0.5665  1.4000 -0.3274
12520TIP3   OH258974   2.130   6.354  12.173 -0.2766 -0.8328  0.1227
12520TIP3    H158975   2.208   6.341  12.227  0.0431 -0.4956 -0.2395
12520TIP3    H258976   2.059   6.369  12.235  0.1788  0.0688  0.4506
12521TIP3   OH258977   6.088   0.624  16.199  0.0601 -0.4962  0.7851
12521TIP3    H158978   6.097   0.548  16.142  1.2585 -0.3162  0.6974
12521TIP3    H258979   6.160   0.615  16.261 -1.3603 -0.8336  2.4715
12522TIP3   OH258980   1.743   3.310  12.595 -0.0219  0.0965 -0.2833
12522TIP3    H158981   1.766   3.218  12.609  1.2699  0.5253  0.5334
12522TIP3    H258982   1.684   3.308  12.520 -1.0717 -1.5234  0.5288
12523TIP3   OH258983   0.150   1.113   0.092  0.4677 -0.4747  0.0863
12523TIP3    H158984   0.077   1.094   0.150 -0.0711 -0.1752 -0.4859
12523TIP3    H258985   0.217   1.151   0.149 -0.5268  0.9942  0.3078
12524TIP3   OH258986   5.354   2.716   3.326  0.6602  0.1230  0.1998
12524TIP3    H158987   5.422   2.782   3.313 -1.7355  2.5146 -1.1930
12524TIP3    H258988   5.345   2.673   3.241 -0.1515  0.4660  0.1032
12525TIP3   OH258989   1.209   1.023   5.912 -0.4020 -0.0342  0.5666
12525TIP3    H158990   1.242   1.095   5.966  0.0014  0.7106 -0.6260
12525TIP3    H258991   1.152   1.065   5.848 -0.0692 -0.7551 -0.2282
12526TIP3   OH258992   1.994   2.323   2.376 -0.2455  0.4022 -0.2651
12526TIP3    H158993   2.032   2.304   2.291 -1.0905 -0.6876 -0.4251
12526TIP3    H258994   1.924   2.258   2.386 -2.6327  2.7723 -0.3607
12527TIP3   OH258995   3.838   1.591  11.497 -0.5369 -0.5147 -0.0779
12527TIP3    H158996   3.834   1.518  11.435  1.8282 -0.1111 -0.7999
12527TIP3    H258997   3.753   1.634  11.489 -0.5600 -0.8693 -2.5713
12528TIP3   OH258998   6.592   5.476   0.483 -0.1338  0.4070  0.0429
12528TIP3    H158999   6.498   5.480   0.500 -0.0622 -1.0448  0.9151
12528TIP3    H259000   6.629   5.545   0.538 -0.6340  0.7216 -0.0026
12529TIP3   OH259001   5.732   2.632   2.663 -0.3520  0.3834 -0.3122
12529TIP3    H159002   5.807   2.640   2.723 -1.1541 -0.0446  0.7850
12529TIP3    H259003   5.664   2.686   2.703 -0.9457 -0.0037 -0.7844
12530TIP3   OH259004   0.201   0.351   1.967 -0.0307  0.0803 -0.2155
12530TIP3    H159005   0.194   0.420   2.034  0.2227  0.2159 -0.3247
12530TIP3    H259006   0.269   0.383   1.908 -1.0815  0.5182 -1.2135
12531TIP3   OH259007   1.691   0.930   2.559 -0.4314 -0.6073 -0.0407
12531TIP3    H159008   1.731   0.874   2.625 -0.0987 -2.0032 -1.3564
12531TIP3    H259009   1.617   0.879   2.526 -0.9455  0.3074 -0.3347
12532TIP3   OH259010   3.738   0.735  13.866  0.6042 -0.4465  0.9645
12532TIP3    H159011   3.713   0.692  13.784  1.2723 -0.8024  0.9387
12532TIP3    H259012   3.657   0.773  13.900  0.1719 -1.0071  0.5596
12533TIP3   OH259013   2.353   0.246   3.054  0.2249  0.0227 -0.3046
12533TIP3    H159014   2.271   0.220   3.012  1.3255 -1.4923 -1.6395
12533TIP3    H259015   2.362   0.339   3.034 -0.3634 -0.1788 -1.5864
12534TIP3   OH259016   6.317   2.395   6.358  0.1106  0.0691  0.0490
12534TIP3    H159017   6.381   2.462   6.379  1.0911 -0.8473  0.0788
12534TIP3    H259018   6.356   2.314   6.391 -0.4134 -0.7152 -1.1771
12535TIP3   OH259019   2.345   2.743  11.962  0.7130 -0.2812 -0.2821
12535TIP3    H159020   2.416   2.680  11.973  0.3294 -0.4242  1.7238
12535TIP3    H259021   2.334   2.783  12.048 -0.6410  0.8158 -0.9200
12536TIP3   OH259022   5.588   0.197  15.734  0.0688 -0.5188 -0.1272
12536TIP3    H159023   5.505   0.157  15.758  0.5048 -1.7833 -0.6849
12536TIP3    H259024   5.652   0.154  15.790  0.4443  0.0101 -0.1387
12537TIP3   OH259025   5.763   3.965   1.806 -0.3268 -0.2785 -0.4326
12537TIP3    H159026   5.729   4.011   1.730  1.6758 -0.4689 -1.5179
12537TIP3    H259027   5.796   4.034   1.863  2.1144 -0.2170 -1.7810
12538TIP3   OH259028   0.208   2.586   1.348  0.6851  0.5819 -0.1507
12538TIP3    H159029   0.193   2.679   1.336 -1.3424  0.4132  0.6846
12538TIP3    H259030   0.241   2.579   1.438  3.1686  0.6448 -0.9650
12539TIP3   OH259031   4.286   1.575   1.929 -0.1850  0.2694  0.0571
12539TIP3    H159032   4.337   1.506   1.887 -0.8855 -0.7425  0.7836
12539TIP3    H259033   4.245   1.622   1.857  0.8316  0.3595 -0.4830
12540TIP3   OH259034   5.788   5.406   3.882  0.1827 -0.1920  0.9567
12540TIP3    H159035   5.740   5.370   3.808 -2.8595  0.2010  2.5601
12540TIP3    H259036   5.779   5.501   3.873  1.0506 -0.0822  1.1077
12541TIP3   OH259037   2.074   4.233   2.635  0.0851 -0.9049  0.1374
12541TIP3    H159038   2.162   4.261   2.659 -0.4915  0.6843  0.5379
12541TIP3    H259039   2.082   4.139   2.618  1.4086 -1.2342  2.2826
12542TIP3   OH259040   0.986   0.167  12.709  0.1295  0.2558  0.3606
12542TIP3    H159041   0.964   0.150  12.618  0.7098  2.3434 -0.2383
12542TIP3    H259042   1.082   0.170  12.710  0.1880 -1.1476  1.3520
12543TIP3   OH259043   0.097   2.657   2.896  0.3730 -0.2235  0.1376
12543TIP3    H159044   0.023   2.672   2.837  0.2162  0.8139  0.5700
12543TIP3    H259045   0.056   2.633   2.980  0.5086  0.4159  0.3952
12544TIP3   OH259046   6.569   6.603  16.982  0.2315  0.1293  0.0693
12544TIP3    H159047   6.611   6.604  16.896 -0.5418  0.7040 -0.3157
12544TIP3    H259048   6.494   6.662  16.972 -2.3516 -2.9018 -0.1222
12545TIP3   OH259049   0.659   0.164  15.712  0.2413  0.2197  0.6295
12545TIP3    H159050   0.607   0.242  15.729  1.2490  1.5841 -2.0355
12545TIP3    H259051   0.598   0.105  15.666  0.9360  2.0640 -3.0738
12546TIP3   OH259052   1.418   5.415   5.634  0.9375  0.2913  0.6892
12546TIP3    H159053   1.353   5.464   5.582  0.7553  0.1643  0.7940
12546TIP3    H259054   1.484   5.480   5.658  1.3408  0.2300 -0.2100
12547TIP3   OH259055   4.849   3.722  16.129  0.1772  0.3402 -0.2454
12547TIP3    H159056   4.826   3.798  16.076  0.8728  0.5323 -0.2785
12547TIP3    H259057   4.781   3.658  16.109 -0.8621  1.2161  0.3720
12548TIP3   OH259058   4.430   5.509  15.748  0.0723 -0.4858  0.1195
12548TIP3    H159059   4.382   5.457  15.811  0.3823 -1.3758 -0.3621
12548TIP3    H259060   4.508   5.539  15.795  0.9524 -2.2054 -0.1758
12549TIP3   OH259061   6.324   1.877   0.317 -0.2230 -0.8349  0.2001
12549TIP3    H159062   6.344   1.783   0.313  2.0845 -0.6427  3.2588
12549TIP3    H259063   6.327   1.898   0.410 -1.9457  2.0854 -0.2814
12550TIP3   OH259064   1.118   3.929   1.093  0.0172 -0.8966 -0.0331
12550TIP3    H159065   1.144   4.014   1.060 -2.0748 -0.0869  0.2210
12550TIP3    H259066   1.063   3.892   1.023  1.4281 -2.3853 -0.4368
12551TIP3   OH259067   0.760   0.927   5.959  0.4509  0.0793 -0.0406
12551TIP3    H159068   0.717   0.873   6.024 -0.7760  1.3788  0.2627
12551TIP3    H259069   0.750   1.017   5.990 -0.3207  0.7663 -2.0484
12552TIP3   OH259070   5.179   0.695  13.823  0.3944  0.0849 -0.3666
12552TIP3    H159071   5.093   0.735  13.811  0.4493  0.1924 -0.4064
12552TIP3    H259072   5.228   0.759  13.874  0.1928 -0.3274  0.3604
12553TIP3   OH259073   2.116   6.796  12.346  0.1408  0.1446 -0.8988
12553TIP3    H159074   2.051   6.790  12.275 -2.0243  1.4980  0.8212
12553TIP3    H259075   2.133   6.889  12.355  0.6902 -0.0370  0.0945
12554TIP3   OH259076   1.780   1.503   2.005 -0.2144 -0.1770  0.5163
12554TIP3    H159077   1.746   1.466   2.086 -0.8312  0.8096  0.7311
12554TIP3    H259078   1.713   1.484   1.940  0.3458 -1.0965  0.1837
12555TIP3   OH259079   1.029   4.199   5.031  0.3833 -1.1200  0.1702
12555TIP3    H159080   1.047   4.156   4.947 -1.3188 -1.3253 -0.1246
12555TIP3    H259081   1.018   4.127   5.093 -1.0983 -1.1124 -0.0386
12556TIP3   OH259082   3.248   3.378   1.567  0.4618 -0.5636 -0.5864
12556TIP3    H159083   3.283   3.294   1.597  1.1671 -0.3221 -0.7110
12556TIP3    H259084   3.324   3.425   1.533 -0.1126 -0.3357 -1.5978
12557TIP3   OH259085   1.171   0.934  16.615 -0.2103  0.3217 -0.0086
12557TIP3    H159086   1.127   0.849  16.619 -0.4174  0.2513 -2.2567
12557TIP3    H259087   1.257   0.919  16.654  0.0737 -1.1807 -1.1213
12558TIP3   OH259088   3.567   3.340   3.713 -0.5067 -0.2479 -0.0938
12558TIP3    H159089   3.603   3.343   3.802 -1.2621  0.0437  0.2147
12558TIP3    H259090   3.473   3.331   3.727 -0.6061 -0.4636 -0.8754
12559TIP3   OH259091   2.621   5.123  16.944  0.7264 -0.8070  0.6207
12559TIP3    H159092   2.640   5.089  17.032  0.1269 -1.2699  0.5775
12559TIP3    H259093   2.568   5.201  16.960 -2.4122 -2.7404  0.6793
12560TIP3   OH259094   5.359   2.786  13.812  0.4755 -0.6269 -0.0894
12560TIP3    H159095   5.310   2.784  13.894 -0.1031  0.0119 -0.4092
12560TIP3    H259096   5.298   2.824  13.749  1.2207 -0.2652 -0.6034
12561TIP3   OH259097   5.249   4.304  12.205  0.3175  0.1521  0.3206
12561TIP3    H159098   5.254   4.285  12.111 -1.0688 -0.8821  0.4327
12561TIP3    H259099   5.177   4.250  12.237  0.4055  0.9074  1.8878
12562TIP3   OH259100   2.822   3.512  10.130 -0.4648 -0.5616 -0.2884
12562TIP3    H159101   2.866   3.439  10.173 -0.2619 -0.0382  0.4155
12562TIP3    H259102   2.808   3.575  10.200 -2.2113 -0.6516 -0.5205
12563TIP3   OH259103   5.870   2.017  11.236 -0.4241  0.5418 -0.1748
12563TIP3    H159104   5.914   2.067  11.167  1.3906  0.8540  1.1264
12563TIP3    H259105   5.874   1.926  11.207  1.4621  0.5162  0.0374
12564TIP3   OH259106   6.483   0.480  11.670  0.1951  0.2981 -0.0674
12564TIP3    H159107   6.419   0.549  11.652 -0.7804 -0.4737  0.3455
12564TIP3    H259108   6.547   0.488  11.599  0.1342  1.6469 -0.0012
12565TIP3   OH259109   6.171   0.436  14.219 -0.2642 -0.1945 -0.1757
12565TIP3    H159110   6.093   0.429  14.274 -1.1376 -1.3911 -1.5110
12565TIP3    H259111   6.241   0.398  14.273 -0.6937  0.3658  0.8181
12566TIP3   OH259112   3.885   6.385   3.309 -0.0665 -0.6979  0.6281
12566TIP3    H159113   3.860   6.298   3.276  1.3732 -0.4668 -1.2357
12566TIP3    H259114   3.816   6.443   3.277 -0.6104 -1.0157  1.1951
12567TIP3   OH259115   0.403   3.475   5.211  0.6019 -0.0386  0.0560
12567TIP3    H159116   0.396   3.570   5.215  0.0461 -0.0298 -0.9122
12567TIP3    H259117   0.443   3.458   5.126  0.9540 -0.6634  0.3398
12568TIP3   OH259118   6.746   3.793  10.318 -0.1569  0.0952  0.3413
12568TIP3    H159119   6.836   3.796  10.353 -0.1402 -0.1797  0.3206
12568TIP3    H259120   6.718   3.884  10.319  0.7156  0.4101 -1.1944
12569TIP3   OH259121   1.677   1.771   2.449 -0.1057  0.4843 -0.0202
12569TIP3    H159122   1.769   1.796   2.460 -0.6467  1.9765  1.4441
12569TIP3    H259123   1.667   1.693   2.505  0.3866 -0.0372 -0.6435
12570TIP3   OH259124   5.568   0.492   2.391 -0.4125 -0.3760 -0.3105
12570TIP3    H159125   5.518   0.481   2.310 -1.3837  0.3227  0.1785
12570TIP3    H259126   5.533   0.572   2.431  0.8304 -0.0766  0.2470
12571TIP3   OH259127   1.305   3.545  15.713 -0.0355  0.0610 -0.3096
12571TIP3    H159128   1.351   3.467  15.743 -1.0081 -2.1451 -3.9940
12571TIP3    H259129   1.361   3.582  15.645  0.3911  2.6865  1.3264
12572TIP3   OH259130   4.026   1.215  16.387  0.2136 -0.0675  0.1273
12572TIP3    H159131   4.012   1.229  16.294  0.1082  1.5337  0.3629
12572TIP3    H259132   4.054   1.123  16.394 -0.2550 -0.3428 -1.4093
12573TIP3   OH259133   0.606   5.491   5.209 -0.1083 -0.7866 -0.0558
12573TIP3    H159134   0.636   5.442   5.132  0.3314  0.8939 -1.0056
12573TIP3    H259135   0.517   5.517   5.187  0.9772  2.2326 -1.3988
12574TIP3   OH259136   2.235   4.604  11.923 -0.6118 -0.5884  0.0700
12574TIP3    H159137   2.229   4.674  11.988 -0.0258 -1.3935  1.0239
12574TIP3    H259138   2.316   4.622  11.875 -1.1440  0.1149 -0.5914
12575TIP3   OH259139   6.552   2.922   4.544 -0.0912  0.1777 -0.6112
12575TIP3    H159140   6.536   2.869   4.466  2.6991 -1.4041 -0.2510
12575TIP3    H259141   6.472   2.912   4.596 -1.1462 -0.5102 -2.2590
12576TIP3   OH259142   5.497   0.621  15.274 -0.4141  0.0571  0.1231
12576TIP3    H159143   5.422   0.564  15.256 -0.1033 -0.8240  1.4257
12576TIP3    H259144   5.492   0.637  15.369  1.2227 -0.3193  0.3027
12577TIP3   OH259145   3.636   5.870   3.253 -0.4235 -0.1776  0.0539
12577TIP3    H159146   3.618   5.789   3.300 -2.0770  0.8181  1.2653
12577TIP3    H259147   3.720   5.901   3.288 -0.2935 -0.8417  0.3307
12578TIP3   OH259148   6.421   4.413  12.086  0.8693  0.0317  0.1309
12578TIP3    H159149   6.384   4.501  12.090 -0.3675 -0.4276 -0.4199
12578TIP3    H259150   6.348   4.359  12.054  1.9699 -0.9666 -0.7767
12579TIP3   OH259151   3.791   4.881   3.351 -0.6684 -0.8106  0.2088
12579TIP3    H159152   3.864   4.824   3.327  1.6715  2.4198 -0.9887
12579TIP3    H259153   3.826   4.938   3.419 -2.3897  0.2987  0.2237
12580TIP3   OH259154   1.469   0.618   3.709  0.6094  0.2522 -0.2034
12580TIP3    H159155   1.555   0.651   3.679  0.9170 -0.7957 -0.5009
12580TIP3    H259156   1.490   0.544   3.765 -0.0730  0.7302  0.7022
12581TIP3   OH259157   3.454   5.471  11.800  0.2431 -0.0292  0.5161
12581TIP3    H159158   3.507   5.391  11.805  0.0649 -0.2296 -0.5841
12581TIP3    H259159   3.374   5.450  11.849  0.0029 -0.6970 -0.1461
12582TIP3   OH259160   3.339   5.795   1.888  0.1069  0.0177 -0.0955
12582TIP3    H159161   3.301   5.879   1.862  3.1970  1.7645  0.5470
12582TIP3    H259162   3.371   5.757   1.807  1.5734  1.0889 -0.0673
12583TIP3   OH259163   4.838   5.426  13.021 -0.8471 -0.0922  0.0144
12583TIP3    H159164   4.769   5.425  13.087 -0.0596 -0.6401  0.8510
12583TIP3    H259165   4.791   5.441  12.938 -1.9131 -0.0024  0.6106
12584TIP3   OH259166   1.202   4.369   2.096  0.2708 -0.2973 -0.0649
12584TIP3    H159167   1.237   4.302   2.155  0.9154  1.2695  1.4101
12584TIP3    H259168   1.262   4.443   2.105 -1.7089  1.3641  0.1893
12585TIP3   OH259169   5.903   0.181   3.072  0.0449  0.1752 -0.0369
12585TIP3    H159170   5.839   0.154   3.138 -2.1315  0.5923 -1.8489
12585TIP3    H259171   5.898   0.276   3.071  0.1167  0.1785 -0.7316
12586TIP3   OH259172   1.978   1.959   5.496  0.1703  0.1055 -0.0198
12586TIP3    H159173   2.065   1.956   5.455 -0.1286 -0.1549 -0.6595
12586TIP3    H259174   1.969   1.875   5.540  0.7919  0.6756  1.2441
12587TIP3   OH259175   4.717   5.931   5.473  0.4837 -0.3172 -0.1076
12587TIP3    H159176   4.712   5.843   5.511 -1.2283 -0.8272 -1.4267
12587TIP3    H259177   4.738   5.917   5.381 -1.1953  0.5300 -0.6619
12588TIP3   OH259178   2.233   4.650  14.404  0.0074 -0.0815  0.3954
12588TIP3    H159179   2.222   4.715  14.334  0.6448 -0.5212 -0.1216
12588TIP3    H259180   2.258   4.702  14.481 -0.2833  0.3622  0.1944
12589TIP3   OH259181   4.088   0.084  16.270 -0.6781 -0.3457 -0.1628
12589TIP3    H159182   3.997   0.061  16.253 -0.6599 -0.8440  0.3883
12589TIP3    H259183   4.088   0.120  16.359  0.0997 -3.1626  1.1030
12590TIP3   OH259184   2.483   0.592   4.745  0.3150 -0.1882 -0.7566
12590TIP3    H159185   2.558   0.609   4.802  0.4760  0.6501 -1.2011
12590TIP3    H259186   2.408   0.630   4.793  0.7988  2.7980 -2.1406
12591TIP3   OH259187   1.704   2.290  11.355  0.6254  0.3733 -0.5878
12591TIP3    H159188   1.750   2.233  11.294  1.9914  1.4994 -0.6797
12591TIP3    H259189   1.758   2.290  11.434 -0.0686  0.4790 -0.1054
12592TIP3   OH259190   6.051   1.252  11.243  0.2061 -0.2347 -0.5098
12592TIP3    H159191   6.087   1.257  11.154  3.5895  0.0275  0.7342
12592TIP3    H259192   6.044   1.343  11.271 -1.9930 -0.2457 -0.8071
12593TIP3   OH259193   5.599   4.636   5.406  0.3083 -0.0166  0.0615
12593TIP3    H159194   5.606   4.543   5.384 -0.5910 -0.3230  1.0291
12593TIP3    H259195   5.537   4.640   5.478 -0.5411  1.4422 -0.6885
12594TIP3   OH259196   6.583   2.336  13.372  0.0938  0.2164 -0.2705
12594TIP3    H159197   6.519   2.294  13.430 -1.3015 -1.6007 -2.9087
12594TIP3    H259198   6.583   2.428  13.399 -2.7125  0.0276  0.6874
12595TIP3   OH259199   6.234   1.309   3.769  0.1804  0.2813 -0.3939
12595TIP3    H159200   6.329   1.313   3.768  0.1498  1.4188 -0.2971
12595TIP3    H259201   6.207   1.370   3.701 -0.4864  0.8847  0.3889
12596TIP3   OH259202   4.053   2.394   5.770 -0.1858  0.0631 -0.6103
12596TIP3    H159203   4.073   2.388   5.863 -0.9191 -1.3431 -0.5048
12596TIP3    H259204   4.102   2.470   5.739 -0.0432  0.6348  0.9431
12597TIP3   OH259205   4.403   4.365  13.101  0.4224  0.1175  0.5062
12597TIP3    H159206   4.471   4.343  13.037 -0.6224  0.6130 -0.8222
12597TIP3    H259207   4.379   4.455  13.081 -0.9714 -0.2047  0.6077
12598TIP3   OH259208   2.882   0.922  11.740  0.4217 -0.4655 -0.1616
12598TIP3    H159209   2.899   1.017  11.741  1.2755 -0.6126  0.3701
12598TIP3    H259210   2.927   0.891  11.662  0.2281 -0.4528 -0.2787
12599TIP3   OH259211   0.453   1.650  11.006 -0.9689 -0.0888  0.3942
12599TIP3    H159212   0.398   1.658  11.084 -2.0936  2.1738 -0.5535
12599TIP3    H259213   0.514   1.723  11.011 -0.7419 -0.1919 -0.6007
12600TIP3   OH259214   2.811   1.207  15.336 -0.1204  0.0599  0.1090
12600TIP3    H159215   2.754   1.266  15.287  1.2080  0.0037 -1.6097
12600TIP3    H259216   2.832   1.137  15.274  1.3175 -0.2193  0.8624
12601TIP3   OH259217   0.795   0.999   0.917 -0.0923 -0.2628  0.2198
12601TIP3    H159218   0.758   1.062   0.979 -0.7047 -0.6823  0.2932
12601TIP3    H259219   0.875   1.040   0.886 -0.4411  0.5160  0.3248
12602TIP3   OH259220   5.201   3.499   2.508 -0.0306  0.1868 -0.1527
12602TIP3    H159221   5.116   3.463   2.485  0.8628 -2.3623  0.1924
12602TIP3    H259222   5.264   3.431   2.484  2.0643  2.3321 -1.3154
12603TIP3   OH259223   2.051   6.480   1.043  0.1295  0.5259 -0.5008
12603TIP3    H159224   1.974   6.535   1.026  0.6443  0.9654 -1.4761
12603TIP3    H259225   2.079   6.450   0.956  0.0794 -0.9934 -0.0223
12604TIP3   OH259226   4.021   3.056  13.218  0.6051  0.3072  0.4731
12604TIP3    H159227   3.967   3.024  13.146  2.3955 -0.7964 -0.4694
12604TIP3    H259228   4.032   3.149  13.201 -1.6316  0.7501  1.1740
12605TIP3   OH259229   5.230   1.338   1.033  0.2663 -0.1941  0.3805
12605TIP3    H159230   5.221   1.351   0.939  3.2102  0.9765  0.1506
12605TIP3    H259231   5.323   1.321   1.046 -0.3169 -1.9870  2.9533
12606TIP3   OH259232   4.319   5.034   1.208  0.3532 -0.1652  0.0281
12606TIP3    H159233   4.259   5.018   1.280 -1.1726  0.4144 -1.0569
12606TIP3    H259234   4.398   5.068   1.249 -1.0937  1.8534  1.3116
12607TIP3   OH259235   0.427   4.503  14.884 -0.1997 -0.0742  0.1723
12607TIP3    H159236   0.462   4.558  14.955 -0.7438 -0.1038  0.4653
12607TIP3    H259237   0.439   4.413  14.916 -2.0797 -0.0535  1.0217
12608TIP3   OH259238   4.000   5.492   1.453 -0.1943 -0.4896 -0.1077
12608TIP3    H159239   3.935   5.525   1.392  0.0904  2.1325  0.8938
12608TIP3    H259240   3.979   5.534   1.536  1.3284 -1.4919  0.8333
12609TIP3   OH259241   6.280   3.915   0.900 -0.7586  0.3562  0.2742
12609TIP3    H159242   6.356   3.946   0.851 -1.5842  1.5749 -0.2893
12609TIP3    H259243   6.205   3.937   0.845 -1.5660 -0.2583  1.0949
12610TIP3   OH259244   1.077   1.104  16.969 -0.5236 -0.3335 -0.5979
12610TIP3    H159245   0.985   1.111  16.996 -0.3500 -3.8637  1.4778
12610TIP3    H259246   1.121   1.172  17.020 -1.6251 -0.4949  0.6302
12611TIP3   OH259247   5.790   2.112  12.875 -0.4300  0.4848 -0.6508
12611TIP3    H159248   5.789   2.017  12.889 -0.0841  0.6345  0.4867
12611TIP3    H259249   5.714   2.129  12.820 -1.3630 -0.2830  0.3740
12612TIP3   OH259250   4.660   3.460   5.011 -0.1480  0.2509  0.4087
12612TIP3    H159251   4.626   3.550   5.010 -2.0533 -0.3923 -1.7114
12612TIP3    H259252   4.743   3.465   4.963 -1.0455  0.6652 -1.1812
12613TIP3   OH259253   6.621   0.749  12.615  0.1049  0.1571 -0.4506
12613TIP3    H159254   6.629   0.843  12.598  0.7903  0.2275  0.1811
12613TIP3    H259255   6.685   0.708  12.556  0.0097  0.1128 -0.5227
12614TIP3   OH259256   5.473   3.728   0.266 -0.9001 -0.8034  0.4139
12614TIP3    H159257   5.403   3.679   0.308 -1.9654  1.9767  2.1876
12614TIP3    H259258   5.429   3.784   0.202 -0.2794  0.4622  1.0464
12615TIP3   OH259259   0.104   3.294  10.640 -0.2925  0.3458 -0.3518
12615TIP3    H159260   0.055   3.317  10.561  0.5464 -1.6973 -1.5532
12615TIP3    H259261   0.196   3.301  10.615  0.0102  0.4797  0.7195
12616TIP3   OH259262   6.548   2.005   1.645  0.0620  0.0125  0.2152
12616TIP3    H159263   6.622   2.046   1.598 -0.9550  0.9161 -0.6604
12616TIP3    H259264   6.507   2.077   1.691 -0.4781 -0.4270  0.4226
12617TIP3   OH259265   6.311   4.016  14.678 -0.5087  0.4173 -0.4213
12617TIP3    H159266   6.392   4.025  14.729  0.4368 -3.6682 -0.8489
12617TIP3    H259267   6.246   3.990  14.743 -0.1153 -1.5024 -0.7504
12618TIP3   OH259268   6.271   3.772  13.573 -0.0498 -0.1619 -0.2682
12618TIP3    H159269   6.232   3.755  13.658 -1.6775  1.4726 -0.6186
12618TIP3    H259270   6.365   3.772  13.589 -0.3278  0.0020  1.5101
12619TIP3   OH259271   4.308   1.843  15.664 -0.3705 -0.1008  0.2346
12619TIP3    H159272   4.264   1.778  15.610 -0.5365 -1.4193  1.8793
12619TIP3    H259273   4.245   1.865  15.732  0.2197  0.6802  0.5415
12620TIP3   OH259274   3.222   3.079  15.862 -0.2394 -0.0546 -0.6672
12620TIP3    H159275   3.257   3.165  15.886 -1.4720  0.0953  0.7418
12620TIP3    H259276   3.283   3.016  15.901  1.0582  0.1359 -2.2982
12621TIP3   OH259277   0.190   2.426   3.305  0.0033 -0.1987  0.2043
12621TIP3    H159278   0.156   2.420   3.394  0.7034 -1.5487  0.4020
12621TIP3    H259279   0.201   2.335   3.277 -1.3962  0.1782 -1.7360
12622TIP3   OH259280   3.903   5.574   4.666 -0.0836  0.4350 -0.3364
12622TIP3    H159281   3.988   5.537   4.688  0.3757  0.4660 -1.9789
12622TIP3    H259282   3.908   5.594   4.573 -1.7850  0.7341 -0.3992
12623TIP3   OH259283   4.074   5.779   5.630 -0.0372  0.6072 -0.0266
12623TIP3    H159284   4.147   5.742   5.680 -1.5609 -1.1658  1.0815
12623TIP3    H259285   4.043   5.706   5.576 -0.6695  1.4621 -0.8418
12624TIP3   OH259286   1.524   6.278  16.586 -0.6539 -0.1865  0.0334
12624TIP3    H159287   1.552   6.187  16.594  1.8704  0.6183  1.1777
12624TIP3    H259288   1.494   6.302  16.673 -0.0390  0.4592  0.0733
12625TIP3   OH259289   5.303   5.367  10.790  0.5352 -0.6056 -0.0171
12625TIP3    H159290   5.330   5.416  10.713  0.7575  1.0108  1.0497
12625TIP3    H259291   5.210   5.387  10.800  0.9997  1.0229  1.3864
12626TIP3   OH259292   2.245   6.181   3.790  0.2183 -0.2506  0.0608
12626TIP3    H159293   2.334   6.217   3.790  1.0217 -1.9255  2.5769
12626TIP3    H259294   2.193   6.245   3.840 -0.0025  0.6272 -1.2366
12627TIP3   OH259295   0.328   6.131  15.611  0.1639  0.0883 -0.1285
12627TIP3    H159296   0.351   6.175  15.693  0.4618 -0.5458  0.1361
12627TIP3    H259297   0.402   6.150  15.553 -0.0064  0.4656 -0.2233
12628TIP3   OH259298   5.851   3.685  15.596  0.1201 -1.0475 -0.7271
12628TIP3    H159299   5.762   3.665  15.569 -0.6529  0.4154  0.6220
12628TIP3    H259300   5.854   3.663  15.689  0.7361  0.2059 -0.4295
12629TIP3   OH259301   3.549   3.267  11.240  0.5509 -0.8356 -0.2588
12629TIP3    H159302   3.551   3.224  11.154 -1.1748  0.0958 -0.8037
12629TIP3    H259303   3.482   3.219  11.289 -0.8068  0.6668 -0.5907
12630TIP3   OH259304   6.431   4.268   4.076 -0.3871  0.3569  0.2004
12630TIP3    H159305   6.424   4.343   4.136 -0.4981  2.1129 -1.8782
12630TIP3    H259306   6.375   4.291   4.002 -0.2641 -1.7254 -0.6002
12631TIP3   OH259307   2.785   0.891  12.243 -0.2382  0.1736 -0.1002
12631TIP3    H159308   2.822   0.885  12.332 -0.5906 -1.1567 -0.0144
12631TIP3    H259309   2.809   0.978  12.213  1.0100  0.1810  0.8191
12632TIP3   OH259310   5.451   1.804   3.041 -0.1276  0.0732  0.0452
12632TIP3    H159311   5.377   1.753   3.075 -0.5912  0.3038 -0.5943
12632TIP3    H259312   5.521   1.789   3.105 -0.1848 -1.5093 -0.2153
12633TIP3   OH259313   3.153   6.465   4.052 -0.1849 -0.2949  0.2557
12633TIP3    H159314   3.152   6.463   4.147 -0.5017 -2.0876  0.2465
12633TIP3    H259315   3.140   6.374   4.025  1.2618 -0.0594 -1.4986
12634TIP3   OH259316   5.067   2.945  14.747  0.6562  0.3560 -0.2626
12634TIP3    H159317   5.115   2.943  14.665 -0.2927 -0.4087 -0.8247
12634TIP3    H259318   4.975   2.958  14.721  0.5370  1.9738  0.7823
12635TIP3   OH259319   2.492   1.128  15.794 -0.3321  0.2703  0.3577
12635TIP3    H159320   2.541   1.148  15.873  0.6197  1.8249 -0.5841
12635TIP3    H259321   2.537   1.175  15.724 -1.0064 -1.2206 -1.1779
12636TIP3   OH259322   0.576   0.599  14.683  0.0384 -0.2277  0.7807
12636TIP3    H159323   0.617   0.675  14.641  2.1551 -2.0855 -0.8146
12636TIP3    H259324   0.649   0.552  14.724 -0.8342 -2.4171 -0.0279
12637TIP3   OH259325   0.538   3.000  15.937 -0.3287  0.1591  0.2828
12637TIP3    H159326   0.538   3.017  16.032 -0.6343  1.0906  0.1330
12637TIP3    H259327   0.489   2.919  15.927 -0.2365  0.0206  0.9358
12638TIP3   OH259328   6.617   1.705   4.569  0.2500  0.0245 -0.1660
12638TIP3    H159329   6.589   1.646   4.499 -0.5111 -1.5979  1.4040
12638TIP3    H259330   6.536   1.741   4.604  0.4738 -0.5441  0.9801
12639TIP3   OH259331   6.025   2.121  13.488  0.4622  0.1835 -0.5828
12639TIP3    H159332   5.945   2.168  13.463 -0.1284 -0.5841 -0.1581
12639TIP3    H259333   6.022   2.118  13.584  1.2966  0.6464 -0.5303
12640TIP3   OH259334   0.357   6.789   0.043  0.1248  0.1165  0.2594
12640TIP3    H159335   0.450   6.788   0.019  0.7515 -0.1627  2.4873
12640TIP3    H259336   0.320   6.714  -0.004  1.3514 -0.6398  0.4442
12641TIP3   OH259337   0.953   4.386   1.636  0.3571  0.3997 -0.0038
12641TIP3    H159338   1.017   4.341   1.691 -0.5192  0.1958  0.8909
12641TIP3    H259339   0.873   4.333   1.645 -0.2656  1.2928 -0.1366
12642TIP3   OH259340   5.853   0.777  10.934  0.3656  0.3144 -0.2681
12642TIP3    H159341   5.905   0.802  10.858 -0.2485  0.3841 -0.6796
12642TIP3    H259342   5.814   0.859  10.965  0.9663  0.3599  0.4092
12643TIP3   OH259343   0.723   0.785   2.894 -0.3542 -0.3181  0.3874
12643TIP3    H159344   0.665   0.819   2.963 -0.0331  0.2853  0.3605
12643TIP3    H259345   0.677   0.803   2.812 -0.5295 -0.6322  0.4147
12644TIP3   OH259346   4.106   4.647   2.974 -0.6024  0.2098  0.1723
12644TIP3    H159347   4.032   4.601   2.935  0.0005  0.5052 -1.3618
12644TIP3    H259348   4.156   4.680   2.900 -0.1885  2.0404  1.2164
12645TIP3   OH259349   6.647   6.638   6.287 -0.4762  0.8902 -0.0027
12645TIP3    H159350   6.735   6.659   6.256 -0.5941  0.9499 -0.3046
12645TIP3    H259351   6.640   6.543   6.274 -0.1009  0.7223  0.9533
12646TIP3   OH259352   2.832   1.485  15.090 -0.2136  0.0220 -0.2573
12646TIP3    H159353   2.787   1.523  15.014 -0.1372 -1.3972 -1.0592
12646TIP3    H259354   2.768   1.423  15.126  0.4200 -0.6482 -0.2781
12647TIP3   OH259355   5.283   4.868   1.933 -0.0642  0.0349  1.3878
12647TIP3    H159356   5.295   4.962   1.930 -1.1463  0.2718 -4.0179
12647TIP3    H259357   5.189   4.855   1.945 -0.1026 -0.2837  0.7939
12648TIP3   OH259358   4.676   0.885  11.200  0.0753 -0.0846 -0.2504
12648TIP3    H159359   4.631   0.967  11.180  1.9924  0.6603 -1.7670
12648TIP3    H259360   4.736   0.872  11.127  1.0932 -1.9369  0.8450
12649TIP3   OH259361   2.796   0.432   3.858  0.7436 -0.6816 -0.4562
12649TIP3    H159362   2.732   0.363   3.879  0.0809 -0.4543 -1.6385
12649TIP3    H259363   2.847   0.397   3.785  2.6231 -1.2295  1.0600
12650TIP3   OH259364   6.623   2.985  16.132 -0.0259 -0.0905  0.2832
12650TIP3    H159365   6.679   2.968  16.057  1.5924 -0.7592  1.5856
12650TIP3    H259366   6.635   3.078  16.151  1.0766 -0.3349  0.8545
12651TIP3   OH259367   6.203   2.593  10.714 -0.5109 -0.4389 -0.4526
12651TIP3    H159368   6.175   2.528  10.651 -0.1272 -0.2572 -0.8204
12651TIP3    H259369   6.294   2.569  10.734 -0.8699 -0.9619  0.6372
12652TIP3   OH259370   1.512   4.291  11.872  0.1248  0.2897 -0.6302
12652TIP3    H159371   1.428   4.260  11.839  0.5710 -0.4907 -1.0636
12652TIP3    H259372   1.489   4.362  11.932 -0.8099  0.4379 -1.1334
12653TIP3   OH259373   0.315   0.065  12.517 -0.3114  0.3444 -0.1098
12653TIP3    H159374   0.226   0.036  12.497 -0.1640 -0.5360  0.4967
12653TIP3    H259375   0.303   0.136  12.581 -0.5991  0.6758 -0.5209
12654TIP3   OH259376   2.888   5.579   3.406 -0.6452 -0.0292 -0.2807
12654TIP3    H159377   2.799   5.612   3.420 -0.2149  1.1246 -0.2326
12654TIP3    H259378   2.938   5.655   3.379  0.8756 -0.1535  1.9458
12655TIP3   OH259379   3.013   1.279  12.950  0.0278 -0.0837 -0.0535
12655TIP3    H159380   2.965   1.225  12.887 -1.0316 -0.9517  1.4284
12655TIP3    H259381   3.102   1.242  12.951 -0.5582 -1.5343  0.5930
12656TIP3   OH259382   1.847   4.683   5.909  0.1667 -0.4709  0.6550
12656TIP3    H159383   1.901   4.760   5.924  0.3750 -0.2052 -1.1580
12656TIP3    H259384   1.909   4.609   5.912  0.4098 -0.3055 -0.0080
12657TIP3   OH259385   3.818   5.819   0.254  0.9799  0.4197 -0.1362
12657TIP3    H159386   3.790   5.901   0.295 -1.0394 -0.4708  0.3908
12657TIP3    H259387   3.764   5.812   0.176 -0.8686 -1.6294  1.1970
12658TIP3   OH259388   3.200   3.541  16.805 -1.1658  0.1062 -0.8774
12658TIP3    H159389   3.219   3.553  16.712 -3.0957 -2.8852 -1.7948
12658TIP3    H259390   3.282   3.509  16.842 -0.2465  1.7308 -1.3672
12659TIP3   OH259391   1.038   3.520   0.015 -0.1776  0.3189  0.1085
12659TIP3    H159392   1.123   3.556  -0.010 -0.7794  1.5638 -0.1979
12659TIP3    H259393   1.039   3.521   0.111  1.0433 -1.8839  0.1890
12660TIP3   OH259394   2.989   5.060   4.737 -0.1241  0.2391 -0.2255
12660TIP3    H159395   2.929   5.130   4.714 -0.4781  0.0425  0.0874
12660TIP3    H259396   3.076   5.097   4.723 -0.3141  0.6425 -0.3425
12661TIP3   OH259397   3.044   6.066  15.205  0.2580  0.2499  0.3508
12661TIP3    H159398   3.070   6.146  15.159 -0.1577 -0.6901 -1.6088
12661TIP3    H259399   3.086   5.996  15.156 -0.6694 -0.8412  1.0804
12662TIP3   OH259400   1.747   4.505  13.580 -0.4306 -0.3596  0.0510
12662TIP3    H159401   1.827   4.554  13.559 -0.8840  1.0702  1.4578
12662TIP3    H259402   1.779   4.426  13.625  0.2228 -0.3964 -0.4477
12663TIP3   OH259403   5.827   4.583   4.353 -0.1174 -0.7962 -0.2515
12663TIP3    H159404   5.890   4.517   4.382  0.2453 -0.5965 -0.5632
12663TIP3    H259405   5.836   4.583   4.257 -2.0084 -2.1603 -0.4730
12664TIP3   OH259406   1.631   0.902   3.603  0.3881 -0.2312 -0.9643
12664TIP3    H159407   1.710   0.921   3.654  0.7024  1.9277 -2.1465
12664TIP3    H259408   1.560   0.944   3.651  0.0918 -1.2474 -0.4771
12665TIP3   OH259409   0.092   0.032  15.077  0.9859  0.1561  0.8196
12665TIP3    H159410   0.046  -0.044  15.043 -0.6206  1.4056  0.0356
12665TIP3    H259411   0.184   0.006  15.079  0.7577 -1.0855 -1.4878
12666TIP3   OH259412   6.211   0.835  15.823 -0.0738 -0.8509  0.6472
12666TIP3    H159413   6.155   0.847  15.900  0.2644 -2.1493  1.1070
12666TIP3    H259414   6.149   0.820  15.751 -0.3415 -1.6273  1.0345
12667TIP3   OH259415   0.969   2.519   2.189  0.6989 -0.0859 -0.2327
12667TIP3    H159416   0.958   2.604   2.232  0.1839 -0.6078  0.6989
12667TIP3    H259417   0.984   2.457   2.261  0.2406 -0.9172 -0.8283
12668TIP3   OH259418   1.831   1.960  11.994  0.3560 -0.5800  0.1091
12668TIP3    H159419   1.849   1.868  12.010  0.5402 -0.6392 -0.4336
12668TIP3    H259420   1.867   1.978  11.908  2.0257  0.4757  0.9721
12669TIP3   OH259421   1.108   6.203  11.723 -0.1949 -0.1863 -0.3721
12669TIP3    H159422   1.044   6.142  11.685  1.4432 -1.8868 -0.5413
12669TIP3    H259423   1.169   6.222  11.652  0.0339  0.6791  0.0341
12670TIP3   OH259424   6.114   4.032   1.545 -0.0474  0.1587  1.0875
12670TIP3    H159425   6.169   4.039   1.624 -0.1305 -2.3659  1.4545
12670TIP3    H259426   6.127   3.942   1.515 -2.5124  0.0629  0.0680
12671TIP3   OH259427   0.805   0.621  12.587 -0.3399  0.2232  0.1666
12671TIP3    H159428   0.721   0.654  12.555  0.2591  1.2428 -0.4034
12671TIP3    H259429   0.839   0.692  12.641  1.6072  1.1846 -2.1853
12672TIP3   OH259430   1.809   3.131  15.918 -0.2200 -0.2210 -0.3550
12672TIP3    H159431   1.753   3.205  15.898 -1.3641 -1.2885 -1.2628
12672TIP3    H259432   1.828   3.091  15.833  0.5733 -0.8346  0.0887
12673TIP3   OH259433   1.214   4.856   5.738 -0.2240 -0.0310  0.1942
12673TIP3    H159434   1.266   4.811   5.671  1.3668  0.0752  1.3057
12673TIP3    H259435   1.209   4.947   5.708  0.5143  0.0249  0.2298
12674TIP3   OH259436   5.347   3.814  16.183  0.1155 -0.0222  0.7715
12674TIP3    H159437   5.379   3.903  16.166 -1.3574 -0.0955 -3.3238
12674TIP3    H259438   5.252   3.824  16.191 -0.0214 -1.1616  0.7298
12675TIP3   OH259439   6.315   3.521  12.170 -0.1326  0.0196  0.1366
12675TIP3    H159440   6.334   3.427  12.171 -0.6878 -0.0915  1.1063
12675TIP3    H259441   6.294   3.540  12.079 -1.1462 -1.0330  0.1291
12676TIP3   OH259442   6.158   3.208  16.652  0.0951 -0.1033 -0.2329
12676TIP3    H159443   6.250   3.189  16.631 -0.0017  1.0834 -2.0072
12676TIP3    H259444   6.110   3.176  16.575 -0.7281  1.2723 -0.3131
12677TIP3   OH259445   5.462   6.503   3.238  0.3255  0.2557 -0.1336
12677TIP3    H159446   5.506   6.452   3.170  0.0827 -0.1195 -0.0103
12677TIP3    H259447   5.507   6.477   3.319  0.2782  0.3225 -0.0865
12678TIP3   OH259448   4.195   5.113  13.448 -0.6403  0.1883 -0.1596
12678TIP3    H159449   4.100   5.113  13.452 -0.6664 -2.2411  1.0664
12678TIP3    H259450   4.222   5.056  13.520  1.7453  0.8235 -0.4783
12679TIP3   OH259451   2.009   2.727  15.468  0.0673  0.0582  0.2863
12679TIP3    H159452   1.935   2.673  15.497  0.7648 -1.6751 -0.9917
12679TIP3    H259453   2.084   2.695  15.518  0.4246  0.0688 -0.2334
12680TIP3   OH259454   3.250   2.850  14.037  0.6416  0.0533  0.2091
12680TIP3    H159455   3.214   2.828  13.951  1.2066 -0.9481  0.2189
12680TIP3    H259456   3.345   2.847  14.025  0.7610 -1.6976  1.2246
12681TIP3   OH259457   1.092   1.914  11.403 -0.0214  0.3477  0.2297
12681TIP3    H159458   1.137   1.834  11.432  1.6927 -0.0742 -3.0965
12681TIP3    H259459   1.160   1.982  11.407  0.3204  0.2631 -2.5023
12682TIP3   OH259460   0.227   1.982  13.656 -0.1896  0.0447 -0.3335
12682TIP3    H159461   0.182   1.945  13.732  1.4596 -2.6379 -0.5218
12682TIP3    H259462   0.318   1.993  13.685 -0.0060  1.1259 -1.2494
12683TIP3   OH259463   3.302   5.272   6.005 -0.9867  0.2797  0.0787
12683TIP3    H159464   3.319   5.358   5.965 -0.9811  0.4350  0.4088
12683TIP3    H259465   3.213   5.278   6.038 -0.9017  0.2473  0.3203
12684TIP3   OH259466   5.755   3.157  10.449  0.1659  0.0041 -0.5229
12684TIP3    H159467   5.665   3.170  10.480  0.9811  1.3363  1.5112
12684TIP3    H259468   5.779   3.071  10.483  0.0925  0.2191  0.0826
12685TIP3   OH259469   1.645   5.387   0.642  0.2745 -0.1610  0.0429
12685TIP3    H159470   1.723   5.331   0.637  0.1803 -0.4049  1.0844
12685TIP3    H259471   1.641   5.415   0.733  0.2148  1.4278 -0.4180
12686TIP3   OH259472   0.518   6.158   5.026 -0.1998  0.3174 -0.0856
12686TIP3    H159473   0.527   6.229   4.963 -1.3696 -0.6696 -1.4195
12686TIP3    H259474   0.429   6.166   5.059 -0.2048 -0.2780  0.0652
12687TIP3   OH259475   0.812   2.069   0.508 -0.6386 -0.0698 -0.1032
12687TIP3    H159476   0.718   2.058   0.491 -0.4312  0.0757 -1.4636
12687TIP3    H259477   0.816   2.145   0.566 -1.2855  1.0471 -1.4583
12688TIP3   OH259478   6.398   3.042  11.084 -0.1548 -0.0328  0.8088
12688TIP3    H159479   6.482   3.052  11.130 -0.4510  1.2055  1.1356
12688TIP3    H259480   6.336   3.094  11.136 -0.6348  0.9167 -0.6376
12689TIP3   OH259481   0.091   4.402   2.560 -0.8327 -0.4275 -0.5415
12689TIP3    H159482   0.144   4.450   2.497  0.8848 -0.6210  0.6784
12689TIP3    H259483   0.096   4.311   2.532  1.6589 -0.8301  0.9192
12690TIP3   OH259484   6.522   5.320   1.318 -0.6412 -0.0939 -0.2211
12690TIP3    H159485   6.534   5.229   1.290  1.8601 -0.0276  0.4175
12690TIP3    H259486   6.427   5.330   1.327 -0.9466 -3.2343  1.5390
12691TIP3   OH259487   1.023   5.171   2.941 -0.3052  0.3381  0.6976
12691TIP3    H159488   1.065   5.245   2.896 -0.3113  0.4417  0.8577
12691TIP3    H259489   1.042   5.095   2.886  0.1866  0.3646  0.8205
12692TIP3   OH259490   3.149   0.589   5.378 -0.1730  1.0164  0.0886
12692TIP3    H159491   3.229   0.626   5.342 -0.6000  2.3485  0.4673
12692TIP3    H259492   3.172   0.499   5.402  0.6976  0.7820 -1.4932
12693TIP3   OH259493   3.550   3.125  12.802  0.0229  0.3819  0.1377
12693TIP3    H159494   3.500   3.166  12.731 -0.2888  0.8493  0.6228
12693TIP3    H259495   3.518   3.035  12.805  1.6663 -0.3684 -1.8462
12694TIP3   OH259496   2.048   5.842   5.389  0.2707  0.3298 -0.2182
12694TIP3    H159497   2.003   5.921   5.359  0.8917  1.0889  0.7781
12694TIP3    H259498   2.141   5.867   5.391  0.7433 -1.0895 -1.8746
12695TIP3   OH259499   5.670   1.326  11.288  0.3339 -0.3194 -0.0733
12695TIP3    H159500   5.609   1.268  11.242 -0.3046  0.1193  0.2089
12695TIP3    H259501   5.699   1.387  11.220 -2.2421  1.6871  0.4566
12696TIP3   OH259502   6.428   1.617   3.389  0.0539  0.2559  0.5818
12696TIP3    H159503   6.478   1.656   3.461  1.5283 -1.4192  0.5455
12696TIP3    H259504   6.495   1.587   3.327 -1.0376 -1.1747  0.0460
12697TIP3   OH259505   2.447   4.061  13.235  0.8381  0.3185  0.5953
12697TIP3    H159506   2.469   4.148  13.202 -0.1078  0.9890  1.6393
12697TIP3    H259507   2.352   4.065  13.251  0.1332 -1.8814 -2.1173
12698TIP3   OH259508   6.367   2.309   4.810  0.4305  0.7770  0.5969
12698TIP3    H159509   6.310   2.379   4.778 -0.8205 -0.5540 -0.1978
12698TIP3    H259510   6.344   2.300   4.902 -3.0331 -1.7315 -0.2775
12699TIP3   OH259511   1.785   0.357   0.341 -0.4324 -0.1334  0.1431
12699TIP3    H159512   1.691   0.366   0.324 -0.9833 -1.9603  1.9518
12699TIP3    H259513   1.801   0.409   0.420 -0.4324 -1.6744  1.2008
12700TIP3   OH259514   4.529   3.183  12.457 -0.8231 -0.2656  0.0384
12700TIP3    H159515   4.515   3.130  12.378 -0.0849 -2.7432  1.4514
12700TIP3    H259516   4.608   3.147  12.496 -1.8938 -0.0635  2.5890
12701TIP3   OH259517   6.319   6.406   1.289 -0.2368 -0.6856  0.5391
12701TIP3    H159518   6.294   6.408   1.196 -1.0027  0.4242  0.7653
12701TIP3    H259519   6.407   6.367   1.288  0.2726  0.4099 -0.7782
12702TIP3   OH259520   1.161   0.955  15.240  0.3558 -0.2300 -0.5605
12702TIP3    H159521   1.068   0.932  15.244  0.3087 -0.2085 -1.3342
12702TIP3    H259522   1.183   0.948  15.147  0.7558  1.2137 -0.6045
12703TIP3   OH259523   5.990   5.903   4.832  0.1142 -0.0845 -0.1613
12703TIP3    H159524   5.910   5.957   4.831  0.7690  0.9559  1.0567
12703TIP3    H259525   5.974   5.837   4.898  0.3672  0.3199  0.3122
12704TIP3   OH259526   4.674   4.990  11.198 -0.4584  0.0763 -0.0816
12704TIP3    H159527   4.609   4.963  11.133 -1.2782  1.0616  0.2937
12704TIP3    H259528   4.635   4.966  11.282 -0.0032 -0.0018  0.1059
12705TIP3   OH259529   1.363   6.024  10.885  0.1010  1.0086 -0.1224
12705TIP3    H159530   1.360   5.972  10.965 -0.0824  1.4904  0.1901
12705TIP3    H259531   1.310   5.975  10.822 -1.2852  1.5254  0.6006
12706TIP3   OH259532   5.920   2.094   0.773 -0.0306  0.4204  0.0924
12706TIP3    H159533   5.905   2.107   0.679  1.2202  3.2491  0.1871
12706TIP3    H259534   5.837   2.060   0.806 -1.2435  1.4374 -1.7176
12707TIP3   OH259535   5.590   0.429  12.218 -0.3267 -0.4290  0.2421
12707TIP3    H159536   5.626   0.455  12.133 -0.5389 -1.7200 -0.2621
12707TIP3    H259537   5.663   0.436  12.278  0.1930 -0.8392 -0.3291
12708TIP3   OH259538   1.603   4.483   0.118 -0.3342  0.1242 -0.5987
12708TIP3    H159539   1.643   4.397   0.107 -2.4449 -0.8073 -1.4738
12708TIP3    H259540   1.663   4.529   0.177  1.2533 -1.6406 -0.7168
12709TIP3   OH259541   2.789   2.838   2.256  0.0501 -0.6672 -0.0017
12709TIP3    H159542   2.838   2.760   2.283 -0.2064 -0.4708  1.0460
12709TIP3    H259543   2.855   2.908   2.253  0.2950 -0.9225 -1.0143
12710TIP3   OH259544   0.287   0.533   1.292 -0.0377  0.1054 -1.0719
12710TIP3    H159545   0.302   0.446   1.254 -0.0224 -0.5918  0.4721
12710TIP3    H259546   0.366   0.551   1.343 -0.8599  0.1286  0.2382
12711TIP3   OH259547   3.856   4.289   0.007  0.2077 -0.0523  0.3566
12711TIP3    H159548   3.804   4.317   0.082  0.7685  0.6261  0.5017
12711TIP3    H259549   3.891   4.371  -0.029 -0.7612 -0.2662 -1.1685
12712TIP3   OH259550   0.456   5.842   4.626 -0.0810  0.4262  0.8438
12712TIP3    H159551   0.483   5.787   4.700 -0.8309 -0.6464  0.3462
12712TIP3    H259552   0.524   5.910   4.621 -2.1381  3.3118  5.2421
12713TIP3   OH259553   2.754   3.148  16.429 -0.2695 -0.9589  0.3882
12713TIP3    H159554   2.724   3.224  16.478  0.2964 -0.8350  0.5461
12713TIP3    H259555   2.763   3.179  16.339 -3.3179 -1.6944 -0.2915
12714TIP3   OH259556   4.129   0.851  16.507  0.3041  0.1270  0.6606
12714TIP3    H159557   4.177   0.768  16.511 -1.2461 -0.8506  0.1439
12714TIP3    H259558   4.148   0.886  16.421 -0.6446 -0.7658  0.0576
12715TIP3   OH259559   5.757   2.018   5.824 -0.3723  0.6299  0.8048
12715TIP3    H159560   5.698   2.052   5.757  0.2729 -0.0922 -0.1502
12715TIP3    H259561   5.788   2.095   5.871 -1.4003  1.0840  0.7576
12716TIP3   OH259562   5.798   6.521   3.211  0.2759 -0.1959 -0.1849
12716TIP3    H159563   5.885   6.480   3.213  0.7112  0.7003 -0.4338
12716TIP3    H259564   5.738   6.448   3.195  0.8264 -1.0451  1.4686
12717TIP3   OH259565   2.869   3.984  17.011  0.3177  0.2304  0.1008
12717TIP3    H159566   2.922   3.919  16.963  1.3005  1.5375 -0.6638
12717TIP3    H259567   2.793   3.997  16.955  1.1717  1.3064 -0.8513
12718TIP3   OH259568   1.176   5.676  16.528  0.2564 -1.2295  0.1580
12718TIP3    H159569   1.244   5.620  16.566 -0.4972 -2.4683 -0.2570
12718TIP3    H259570   1.192   5.763  16.566  0.9530 -1.9067  1.4596
12719TIP3   OH259571   3.759   6.538  16.306  0.0500  0.1826  0.5385
12719TIP3    H159572   3.732   6.591  16.382  1.2736 -1.1150  1.9504
12719TIP3    H259573   3.688   6.476  16.294  0.5567 -0.6661  1.7169
12720TIP3   OH259574   1.510   6.626  14.643  0.5716  0.3953 -0.5142
12720TIP3    H159575   1.508   6.530  14.647  3.7845  0.2527  0.7621
12720TIP3    H259576   1.563   6.646  14.566  1.4829  1.0575  0.2617
12721TIP3   OH259577   2.771   3.340  16.933  0.2864 -0.1140  0.4087
12721TIP3    H159578   2.747   3.386  17.014 -0.4355 -1.1505  0.8035
12721TIP3    H259579   2.799   3.410  16.874 -0.2554  0.7795  1.1721
12722TIP3   OH259580   2.216   4.141   5.614 -0.0990 -0.6523  0.2871
12722TIP3    H159581   2.242   4.219   5.663  1.4955 -1.3739  0.6616
12722TIP3    H259582   2.133   4.115   5.653  0.3013 -0.2325  1.4726
12723TIP3   OH259583   4.321   0.206  17.022 -0.4271 -0.6965  0.1120
12723TIP3    H159584   4.387   0.252  17.074 -0.8037  1.7462 -1.4152
12723TIP3    H259585   4.363   0.191  16.937 -0.9853 -1.4509 -0.0450
12724TIP3   OH259586   2.500   2.375   3.449 -0.1845  0.1507 -0.1660
12724TIP3    H159587   2.578   2.361   3.394  1.2797  1.6538  1.4178
12724TIP3    H259588   2.483   2.289   3.488  2.2297  0.2388  1.3224
12725TIP3   OH259589   5.364   0.594  11.261  0.8025 -0.6548 -0.1703
12725TIP3    H159590   5.334   0.535  11.330  0.9486 -0.5035  0.0193
12725TIP3    H259591   5.353   0.543  11.180 -1.3169 -0.1088 -0.2718
12726TIP3   OH259592   5.819   4.177   2.859 -0.1419 -0.6273 -0.0765
12726TIP3    H159593   5.790   4.223   2.939  0.3697 -1.1629  0.4298
12726TIP3    H259594   5.874   4.241   2.814  0.2323 -0.5932  0.4201
12727TIP3   OH259595   2.402   1.830  11.487  0.1846  0.5942 -0.3269
12727TIP3    H159596   2.316   1.859  11.519  0.1936  1.7145 -1.2386
12727TIP3    H259597   2.386   1.807  11.395  0.0376 -3.0490  0.4656
12728TIP3   OH259598   4.735   2.601  15.692  0.6256  0.6387  0.3820
12728TIP3    H159599   4.824   2.635  15.699  0.8237  0.6928 -1.7359
12728TIP3    H259600   4.745   2.518  15.645 -0.4304  0.6464  0.1310
12729TIP3   OH259601   4.071   6.306  14.160 -0.0396  0.2373 -0.3659
12729TIP3    H159602   4.051   6.339  14.247 -3.8665 -0.8767 -0.6234
12729TIP3    H259603   4.073   6.210  14.170  0.7142  0.1376 -1.2938
12730TIP3   OH259604   0.782   4.635  16.606 -0.5826 -0.3670 -0.2200
12730TIP3    H159605   0.828   4.683  16.536 -0.3052  1.6416  1.2418
12730TIP3    H259606   0.850   4.611  16.668 -1.0223 -0.7395  0.1197
12731TIP3   OH259607   0.596   3.984  12.414 -0.1188  0.0826  0.1033
12731TIP3    H159608   0.504   3.957  12.409 -0.3310  0.3563  1.7776
12731TIP3    H259609   0.613   4.025  12.329 -1.7824  0.6957  0.0076
12732TIP3   OH259610   1.251   6.558  12.167 -0.2696 -0.5032  0.4883
12732TIP3    H159611   1.277   6.576  12.077 -1.8603 -0.3822  0.0146
12732TIP3    H259612   1.278   6.467  12.183  0.7400 -0.2641  0.1809
12733TIP3   OH259613   6.599   0.298  16.812  0.3417 -0.3505 -0.3322
12733TIP3    H159614   6.579   0.359  16.741 -0.7315  0.2304  0.4403
12733TIP3    H259615   6.681   0.329  16.848  0.2700  0.0816 -0.5358
12734TIP3   OH259616   5.021   0.927   5.365  0.5161  0.4294 -0.1489
12734TIP3    H159617   5.048   0.911   5.275 -1.4086 -0.9743 -0.5366
12734TIP3    H259618   4.956   0.859   5.383 -0.0495  1.4384  1.8786
12735TIP3   OH259619   4.863   4.634   3.850 -0.2200  0.2720 -0.0006
12735TIP3    H159620   4.836   4.627   3.942  0.9289 -0.8153  0.2766
12735TIP3    H259621   4.854   4.727   3.830 -0.9008  0.4639  1.0832
12736TIP3   OH259622   1.133   3.938   2.837 -0.0189 -0.2670 -1.1584
12736TIP3    H159623   1.062   3.942   2.773 -0.2614  0.5715 -0.8517
12736TIP3    H259624   1.128   4.022   2.883  0.9793 -0.3272 -0.9253
12737TIP3   OH259625   0.974   3.138  10.825  0.3613 -0.0144  0.1288
12737TIP3    H159626   0.897   3.124  10.770  0.5344  1.1959 -0.4580
12737TIP3    H259627   1.048   3.111  10.770  0.3601 -2.0353  0.9973
12738TIP3   OH259628   2.116   4.486   5.196  0.1223 -0.3015  0.7547
12738TIP3    H159629   2.083   4.501   5.108  0.3341 -0.1888  0.6958
12738TIP3    H259630   2.067   4.409   5.227 -1.0029  0.5089  1.0796
12739TIP3   OH259631   4.818   1.598  15.667 -0.1997 -0.1677 -0.5212
12739TIP3    H159632   4.877   1.669  15.642  0.6528 -0.7591 -0.2564
12739TIP3    H259633   4.877   1.526  15.691 -1.0100 -0.4963  0.5891
12740TIP3   OH259634   5.083   2.814  14.980 -0.3092 -0.5648 -0.2952
12740TIP3    H159635   5.006   2.861  15.011 -0.6389  0.0095 -1.8929
12740TIP3    H259636   5.093   2.842  14.889  2.5248  0.3614  0.1891
12741TIP3   OH259637   1.156   5.461   4.247  0.0584 -0.1293  0.7087
12741TIP3    H159638   1.229   5.444   4.187  0.4585  1.1246  0.8243
12741TIP3    H259639   1.077   5.449   4.193  0.4015  0.3813  0.0865
12742TIP3   OH259640   1.823   6.325  11.498 -0.3676  0.2585 -0.4205
12742TIP3    H159641   1.890   6.355  11.558 -0.7561 -0.9758  0.6741
12742TIP3    H259642   1.868   6.261  11.442 -0.8063 -1.3050  0.9495
12743TIP3   OH259643   1.659   0.800  16.509  0.2941 -0.2830  0.2192
12743TIP3    H159644   1.679   0.851  16.431  0.2163  0.0931  0.4434
12743TIP3    H259645   1.740   0.753  16.529  0.6938  0.5561  0.6123
12744TIP3   OH259646   3.923   2.367   4.834 -0.6715  0.1177 -0.0653
12744TIP3    H159647   3.854   2.314   4.874 -2.1924  0.8470 -1.5959
12744TIP3    H259648   4.001   2.312   4.838 -1.9379 -1.8129 -0.6255
12745TIP3   OH259649   1.678   0.919  15.179  0.9528  0.1177 -0.1390
12745TIP3    H159650   1.640   0.990  15.127  1.2930  1.1160  0.9482
12745TIP3    H259651   1.618   0.845  15.167  1.2401  0.1632 -2.2830
12746TIP3   OH259652   3.254   0.521  12.466 -0.0993  0.0226  0.1716
12746TIP3    H159653   3.296   0.568  12.394 -0.1559 -1.0086 -0.5471
12746TIP3    H259654   3.304   0.547  12.543  1.6268 -0.8544 -0.5940
12747TIP3   OH259655   1.831   0.189   3.467  0.0015  0.5068 -0.2458
12747TIP3    H159656   1.792   0.101   3.471 -2.2223  1.4250  0.0715
12747TIP3    H259657   1.860   0.198   3.376  2.2870 -1.2932  0.2132
12748TIP3   OH259658   2.932   4.611   2.565 -0.0844 -0.6106  0.5512
12748TIP3    H159659   3.025   4.609   2.544 -0.5558  0.3278 -1.8803
12748TIP3    H259660   2.907   4.519   2.573  1.1018 -0.8695  1.7304
12749TIP3   OH259661   5.901   5.197   5.503  0.2666  0.0810 -0.4962
12749TIP3    H159662   5.873   5.284   5.474  0.2556  0.3400  0.2600
12749TIP3    H259663   5.944   5.213   5.587 -0.7916 -0.7768  0.2468
12750TIP3   OH259664   3.483   0.438   4.796  0.5865 -0.0670 -0.1615
12750TIP3    H159665   3.401   0.424   4.844 -0.1080 -0.9822 -1.5280
12750TIP3    H259666   3.515   0.350   4.776  1.6530  0.2868 -0.0843
12751TIP3   OH259667   1.481   4.895   1.208 -0.0899  0.4355  0.3097
12751TIP3    H159668   1.416   4.853   1.152  0.1793  0.5087 -0.0612
12751TIP3    H259669   1.459   4.865   1.296 -0.1220 -0.2011  0.0935
12752TIP3   OH259670   5.720   6.579  12.006  1.5346  0.1724  0.6546
12752TIP3    H159671   5.728   6.604  12.098 -0.8941  3.9832  0.0646
12752TIP3    H259672   5.790   6.627  11.962  1.0230  0.5390  0.2319
12753TIP3   OH259673   1.888   0.678   3.781  0.3666  0.0112 -0.2808
12753TIP3    H159674   1.976   0.713   3.767  0.2834  1.0610  1.5282
12753TIP3    H259675   1.835   0.756   3.798 -0.6629 -0.7140 -0.1048
12754TIP3   OH259676   5.286   5.527  14.034 -0.0618 -0.4177  1.2492
12754TIP3    H159677   5.267   5.437  14.009 -0.3317 -0.1517  0.4617
12754TIP3    H259678   5.364   5.550  13.982 -0.7748  0.2219  0.4360
12755TIP3   OH259679   0.617   0.362  11.510  0.7952 -0.4523  0.2560
12755TIP3    H159680   0.560   0.428  11.472  0.9438  0.4586  1.5647
12755TIP3    H259681   0.584   0.349  11.599  1.6690 -1.0725  0.5048
12756TIP3   OH259682   4.394   4.250  11.424  0.4879  0.2902 -0.1206
12756TIP3    H159683   4.459   4.180  11.423  1.6471  1.3368 -0.7536
12756TIP3    H259684   4.445   4.331  11.415 -0.8208  1.2188  0.4383
12757TIP3   OH259685   4.501   6.579   2.640 -0.1886  1.0259  0.3239
12757TIP3    H159686   4.407   6.579   2.620 -0.1168  0.4058 -0.0358
12757TIP3    H259687   4.540   6.631   2.570  0.1099 -1.4710 -1.5031
12758TIP3   OH259688   5.255   2.805  16.194 -0.2642 -0.1385  0.0933
12758TIP3    H159689   5.301   2.722  16.185 -0.9264 -0.4940 -0.0583
12758TIP3    H259690   5.162   2.781  16.196 -0.5814  0.7436 -1.8365
12759TIP3   OH259691   3.827   2.261  11.713  0.0763  0.1135 -0.7034
12759TIP3    H159692   3.773   2.292  11.640 -0.2569  0.6154 -0.2529
12759TIP3    H259693   3.908   2.312  11.706 -0.4993  1.1660  0.0765
12760TIP3   OH259694   1.822   3.757   4.528  0.3714 -0.2034  0.5568
12760TIP3    H159695   1.782   3.672   4.513  1.2641 -0.7004  0.9228
12760TIP3    H259696   1.912   3.737   4.553  0.9511  0.8944 -0.5279
12761TIP3   OH259697   4.325   5.895   3.617  0.0621 -0.1321 -0.0422
12761TIP3    H159698   4.299   5.864   3.530  0.1349 -1.2421  0.3132
12761TIP3    H259699   4.246   5.936   3.652 -0.6750 -1.7079  0.2445
12762TIP3   OH259700   4.134   5.867   4.902 -0.0134  0.7362 -0.3692
12762TIP3    H159701   4.088   5.893   4.981  0.5843  4.7038 -1.1066
12762TIP3    H259702   4.217   5.830   4.934 -0.8382 -0.1388  0.8439
12763TIP3   OH259703   5.278   6.822   5.519 -0.2216 -0.4988  0.0400
12763TIP3    H159704   5.291   6.738   5.474 -0.6270 -0.4327 -0.2051
12763TIP3    H259705   5.215   6.869   5.464  0.3307  0.1419 -0.0581
12764TIP3   OH259706   6.406   1.435  11.217  0.3369 -0.4571  0.7504
12764TIP3    H159707   6.317   1.469  11.219  0.3567 -0.4312  1.5756
12764TIP3    H259708   6.459   1.507  11.182 -0.1106 -0.8583 -0.8234
12765TIP3   OH259709   3.204   3.047   6.132  0.1417  0.0724  0.2129
12765TIP3    H159710   3.196   2.993   6.210 -0.6334  0.8485  0.6879
12765TIP3    H259711   3.262   3.119   6.157 -1.9053  1.6056  0.8548
12766TIP3   OH259712   4.951   2.926   4.141 -0.2940 -0.1579  0.2478
12766TIP3    H159713   4.892   2.856   4.116  1.1244 -1.5512  0.6501
12766TIP3    H259714   4.898   3.006   4.134 -2.6552 -1.4476  1.9843
12767TIP3   OH259715   4.824   2.865  16.425 -0.3334 -0.4753 -0.3448
12767TIP3    H159716   4.765   2.849  16.498 -0.2884  0.6135 -0.0485
12767TIP3    H259717   4.911   2.864  16.464 -0.4448  3.8447  0.4554
12768TIP3   OH259718   0.060   6.139   3.260  0.1518 -0.2694  0.6098
12768TIP3    H159719  -0.024   6.095   3.273  0.4122 -0.4272  1.9049
12768TIP3    H259720   0.075   6.136   3.165 -1.7859  0.6862  0.2201
12769TIP3   OH259721   3.001   1.504   4.648  0.3427  0.4185 -0.3662
12769TIP3    H159722   3.062   1.572   4.678  0.3537  1.3030 -2.2687
12769TIP3    H259723   2.922   1.552   4.626 -1.7428 -0.8391  3.4249
12770TIP3   OH259724   6.532   2.095   3.012  0.1302 -0.1798  0.1213
12770TIP3    H159725   6.451   2.043   3.010  1.4415 -2.2963 -0.6285
12770TIP3    H259726   6.601   2.034   2.986  1.5443  2.4182 -2.8648
12771TIP3   OH259727   5.992   5.781   0.803 -0.2991  0.6613  0.1168
12771TIP3    H159728   5.985   5.822   0.717  0.3530  0.5855  0.0161
12771TIP3    H259729   5.967   5.690   0.788  2.3506 -0.0463 -0.6008
12772TIP3   OH259730   5.786   5.250   0.995  0.0994  0.3099  0.0907
12772TIP3    H159731   5.810   5.297   1.074  1.9391 -0.1398 -0.1615
12772TIP3    H259732   5.866   5.206   0.967 -1.1489 -1.6800 -0.5708
12773TIP3   OH259733   5.228   6.149  14.520 -0.3116  0.4849 -0.2335
12773TIP3    H159734   5.133   6.152  14.531 -0.2360  2.7473  0.3608
12773TIP3    H259735   5.243   6.172  14.429 -0.3510 -1.1721 -0.6786
12774TIP3   OH259736   5.643   3.611  14.992 -0.3091 -0.6755 -0.1596
12774TIP3    H159737   5.642   3.526  14.947  0.9394  0.5845 -2.8402
12774TIP3    H259738   5.721   3.655  14.957 -0.8971  1.5694  1.1751
12775TIP3   OH259739   0.593   0.446  11.202  0.2001 -0.3480  0.0540
12775TIP3    H159740   0.602   0.512  11.134 -0.8726 -0.6376 -0.4003
12775TIP3    H259741   0.561   0.494  11.278 -0.3849 -0.3038 -0.2152
12776TIP3   OH259742   6.009   1.541  15.321 -0.1438  0.1242 -0.0810
12776TIP3    H159743   5.964   1.504  15.245  1.2998  0.0780 -0.9525
12776TIP3    H259744   5.941   1.548  15.388 -0.9323 -2.1279 -0.5681
12777TIP3   OH259745   1.772   3.598   4.135  0.0595  0.0979 -0.0406
12777TIP3    H159746   1.702   3.660   4.157 -0.2792 -0.4546  0.4878
12777TIP3    H259747   1.782   3.606   4.040  0.0383  0.9711  0.0204
12778TIP3   OH259748   6.006   2.646   3.727 -0.0608  0.5216 -0.3777
12778TIP3    H159749   5.947   2.638   3.802 -0.5082 -0.3894 -0.8158
12778TIP3    H259750   5.958   2.607   3.654  1.7570 -2.0034 -0.3692
12779TIP3   OH259751   2.312   0.040   2.401  0.4510 -0.0666  0.3502
12779TIP3    H159752   2.370   0.067   2.472  1.3863 -1.0578  0.0041
12779TIP3    H259753   2.257  -0.029   2.439 -1.5648  1.8401  1.0859
12780TIP3   OH259754   0.287   6.016  10.493 -0.2877 -0.3705  0.5003
12780TIP3    H159755   0.292   5.928  10.457 -1.0105  0.0638 -0.6972
12780TIP3    H259756   0.201   6.021  10.535 -0.2625 -0.2244  0.5374
12781TIP3   OH259757   0.204   6.405   1.516 -0.7515 -0.1569 -0.1381
12781TIP3    H159758   0.277   6.356   1.554 -0.2390  0.8241  0.1737
12781TIP3    H259759   0.232   6.426   1.427 -1.5584 -1.6255 -0.7768
12782TIP3   OH259760   3.799   3.320   1.688  0.9015  0.3171 -0.5429
12782TIP3    H159761   3.706   3.326   1.713  1.0720  1.3154 -0.0643
12782TIP3    H259762   3.840   3.276   1.762  0.6183 -1.3383 -1.3371
12783TIP3   OH259763   0.249   0.324  15.190 -0.2211  0.4742  0.0998
12783TIP3    H159764   0.235   0.402  15.137 -0.0776  0.0918 -0.5165
12783TIP3    H259765   0.190   0.258  15.153 -0.1691  0.2187  0.4565
12784TIP3   OH259766   1.266   2.150  15.345 -0.3023 -0.7445 -0.2181
12784TIP3    H159767   1.362   2.154  15.342 -0.3133 -1.1513 -1.8238
12784TIP3    H259768   1.238   2.223  15.289 -0.9739  0.1254  1.1932
12785TIP3   OH259769   2.272   1.490   2.034  0.0725  0.1056 -0.6324
12785TIP3    H159770   2.291   1.476   1.941  0.0906 -0.1558 -0.5901
12785TIP3    H259771   2.187   1.536   2.034  1.1631  2.2403 -0.8530
12786TIP3   OH259772   0.910   6.172   0.969 -0.0735 -0.4955  0.1966
12786TIP3    H159773   0.814   6.175   0.965 -0.0361 -0.6768 -1.1375
12786TIP3    H259774   0.935   6.252   1.014 -0.7608  0.7978 -1.6251
12787TIP3   OH259775   6.741   2.747   4.812  0.2042  0.1613 -0.0297
12787TIP3    H159776   6.714   2.675   4.755  1.7108 -0.1472 -0.4142
12787TIP3    H259777   6.706   2.724   4.898 -0.4822 -0.3361 -0.4314
12788TIP3   OH259778   6.698   3.183   5.415  0.1807  0.2757  0.1828
12788TIP3    H159779   6.745   3.111   5.457 -1.1711 -1.6113 -1.3868
12788TIP3    H259780   6.750   3.203   5.338 -1.0310 -1.2338 -1.0908
12789TIP3   OH259781   5.093   0.847   5.121 -0.2775  0.2392  0.2686
12789TIP3    H159782   5.111   0.912   5.053 -1.8457  1.5451  1.0198
12789TIP3    H259783   5.085   0.764   5.074 -0.3208  0.9352 -0.9924
12790TIP3   OH259784   2.404   0.356   2.309 -0.2775  0.1309  0.2920
12790TIP3    H159785   2.352   0.436   2.317 -0.5784  0.2447 -2.0707
12790TIP3    H259786   2.350   0.298   2.256  0.8576 -0.8275  0.1475
12791TIP3   OH259787   1.106   1.298   4.353 -0.0046  0.0774  0.3741
12791TIP3    H159788   1.117   1.359   4.280 -0.8668  0.7382  0.7791
12791TIP3    H259789   1.033   1.334   4.404  0.5034 -0.4302  1.5005
12792TIP3   OH259790   4.072   0.334   1.459  0.8126 -0.0334 -0.0803
12792TIP3    H159791   4.028   0.256   1.494  0.3154  0.0536 -0.4868
12792TIP3    H259792   4.151   0.344   1.512  0.9935 -0.9433 -0.1637
12793TIP3   OH259793   5.176   2.594  10.753 -0.1850  0.1827  0.3269
12793TIP3    H159794   5.244   2.591  10.820  0.1387  2.2921  0.1618
12793TIP3    H259795   5.109   2.653  10.789 -1.5224 -1.1593  0.1093
12794TIP3   OH259796   2.843   4.061  13.719 -0.6438 -0.5127 -0.0799
12794TIP3    H159797   2.767   4.008  13.696 -1.5843  0.3101  1.0059
12794TIP3    H259798   2.809   4.125  13.782 -0.0025  2.5011 -2.5222
12795TIP3   OH259799   3.144   4.522  14.959  0.2019 -0.1171  0.0510
12795TIP3    H159800   3.229   4.508  14.917  0.2425 -0.2542  0.1796
12795TIP3    H259801   3.080   4.504  14.890  0.2580 -0.7095  0.1491
12796TIP3   OH259802   2.333   4.277   5.297 -0.1763 -0.3406  0.3046
12796TIP3    H159803   2.254   4.227   5.279 -0.6303  0.4124  0.1586
12796TIP3    H259804   2.304   4.369   5.300  0.4668 -0.1444  1.4664
12797TIP3   OH259805   6.183   0.700  10.827 -0.2649 -0.0033  0.0874
12797TIP3    H159806   6.239   0.768  10.865  0.3065 -1.3174  1.7145
12797TIP3    H259807   6.199   0.706  10.732  1.1279  0.9497  0.3533
12798TIP3   OH259808   3.235   3.073  15.287 -0.4512  0.8327 -0.0321
12798TIP3    H159809   3.151   3.049  15.248 -0.1508  0.6897 -0.6102
12798TIP3    H259810   3.300   3.023  15.237 -0.0122  1.0487  0.3120
12799TIP3   OH259811   0.071   3.912  12.519 -0.0301  0.0253 -0.1089
12799TIP3    H159812   0.067   3.842  12.585 -0.7684  0.3210  0.1644
12799TIP3    H259813   0.021   3.878  12.445 -0.1938  0.1734 -0.0662
12800TIP3   OH259814   1.353   0.910  12.633 -0.2483  0.2720  0.4982
12800TIP3    H159815   1.386   1.000  12.641  0.0305  0.1286  1.0335
12800TIP3    H259816   1.303   0.895  12.713  0.2570 -0.2685  0.7217
12801TIP3   OH259817   0.534   3.092  12.732 -0.3670  0.1582  0.3767
12801TIP3    H159818   0.585   3.035  12.790 -1.6809 -1.0181  0.4603
12801TIP3    H259819   0.531   3.176  12.777  0.1041 -0.2299  1.1584
12802TIP3   OH259820   3.488   2.289   3.722  0.1763 -0.4274 -0.0279
12802TIP3    H159821   3.505   2.383   3.718  1.4826 -0.6700 -1.0542
12802TIP3    H259822   3.574   2.248   3.707 -0.2188 -1.7912  1.2303
12803TIP3   OH259823   3.434   5.261   0.811  0.1961  0.3044  0.7860
12803TIP3    H159824   3.416   5.276   0.904 -1.9696 -2.5036  0.9743
12803TIP3    H259825   3.455   5.168   0.806 -0.7276  0.1627 -1.6601
12804TIP3   OH259826   1.449   0.988  15.716  0.2497  0.2009  0.0012
12804TIP3    H159827   1.378   0.952  15.662 -0.9068  1.2480  0.7629
12804TIP3    H259828   1.500   1.043  15.655 -0.7630  0.9926 -0.1639
12805TIP3   OH259829   6.258   5.151   1.140 -0.1702 -0.2735  1.2277
12805TIP3    H159830   6.341   5.107   1.121 -0.0596  0.2540  0.4243
12805TIP3    H259831   6.274   5.243   1.119 -1.2533 -0.3231  0.0583
12806TIP3   OH259832   4.016   4.962   4.116 -0.1697 -0.5718  0.8205
12806TIP3    H159833   3.942   4.973   4.175 -1.1378  1.7214 -0.6628
12806TIP3    H259834   3.998   4.880   4.069 -2.8164  0.7703 -0.7575
12807TIP3   OH259835   2.574   3.593   2.209 -0.1692 -0.5387 -0.0378
12807TIP3    H159836   2.592   3.675   2.255  0.2871 -0.5389 -0.2055
12807TIP3    H259837   2.595   3.612   2.117  0.7953 -1.0849  0.0503
12808TIP3   OH259838   5.758   2.079  14.385 -0.1990 -0.8746 -0.5428
12808TIP3    H159839   5.678   2.097  14.435  0.3066 -1.4353  0.4862
12808TIP3    H259840   5.823   2.055  14.451  0.8945 -0.2075 -1.3392
12809TIP3   OH259841   5.356   6.548   5.434 -0.1695 -0.3074  0.2696
12809TIP3    H159842   5.327   6.530   5.523  0.3409 -2.8176 -0.0092
12809TIP3    H259843   5.393   6.465   5.403 -0.9731  0.2632 -2.5259
12810TIP3   OH259844   0.708   5.079   2.463  0.0274 -0.1157 -0.2273
12810TIP3    H159845   0.727   4.986   2.478  1.6897  0.2717  0.2556
12810TIP3    H259846   0.677   5.111   2.548 -0.6791 -0.2419 -0.4295
12811TIP3   OH259847   3.830   1.942  15.145  0.1829  0.1761  0.5444
12811TIP3    H159848   3.787   2.027  15.154  1.5997  1.3111 -2.2668
12811TIP3    H259849   3.817   1.918  15.053 -0.1997 -2.7456  1.2417
12812TIP3   OH259850   5.953   4.242  10.462 -0.1437 -0.2902  0.5085
12812TIP3    H159851   5.989   4.321  10.502  1.4223 -0.5094 -0.3717
12812TIP3    H259852   6.029   4.196  10.427 -1.0074 -2.2555  1.0862
12813TIP3   OH259853   3.029   5.222   0.470  0.5842  0.0021 -0.3953
12813TIP3    H159854   3.072   5.277   0.536  1.7920  1.1125 -2.0105
12813TIP3    H259855   3.054   5.133   0.493  0.5814  0.3177  0.9129
12814TIP3   OH259856   2.080   3.788   1.269  0.1319  0.0933 -0.4934
12814TIP3    H159857   2.002   3.842   1.258  0.6039  0.8668 -0.1684
12814TIP3    H259858   2.091   3.742   1.186  0.5332  1.6015 -1.2994
12815TIP3   OH259859   1.196   4.574  10.826  0.2218  0.3536  0.3342
12815TIP3    H159860   1.239   4.659  10.817 -0.5001  0.8913  1.6454
12815TIP3    H259861   1.103   4.594  10.829 -0.0278 -0.6021 -0.4014
12816TIP3   OH259862   4.935   6.147  15.003  0.6664 -0.2414  0.6087
12816TIP3    H159863   5.000   6.217  14.994  0.0804  0.1430 -0.9801
12816TIP3    H259864   4.948   6.093  14.925  0.6725 -1.5439  1.4978
12817TIP3   OH259865   0.013   4.856  15.509 -0.0244  0.3551  0.3072
12817TIP3    H159866  -0.075   4.840  15.541 -0.6156  2.4103 -0.1752
12817TIP3    H259867   0.063   4.881  15.587  1.0328 -3.7180  1.1613
12818TIP3   OH259868   4.507   6.282   1.529 -0.5233 -0.3941 -0.0758
12818TIP3    H159869   4.420   6.321   1.534  0.4636  2.3352 -1.5290
12818TIP3    H259870   4.564   6.356   1.506  1.9821 -2.2994 -0.3751
12819TIP3   OH259871   3.814   0.583  13.160  0.1556 -0.2368  0.0905
12819TIP3    H159872   3.898   0.622  13.135  1.8440 -3.5084  0.1524
12819TIP3    H259873   3.795   0.619  13.246  0.3782  2.0801 -0.7523
12820TIP3   OH259874   0.300   6.750  14.153 -0.3250 -0.0957  0.0120
12820TIP3    H159875   0.366   6.795  14.206  0.2546  0.3471 -1.0531
12820TIP3    H259876   0.348   6.680  14.108 -0.6898 -0.1112 -0.3651
12821TIP3   OH259877   1.837   4.048   4.681  0.0158 -0.5745  0.1904
12821TIP3    H159878   1.798   3.971   4.722 -0.4167  0.3665  1.6068
12821TIP3    H259879   1.931   4.037   4.694 -0.0123 -1.0625  0.0053
12822TIP3   OH259880   1.441   3.221   0.205 -0.3267  0.5800 -0.6791
12822TIP3    H159881   1.378   3.159   0.240 -1.5289  1.5643 -0.9970
12822TIP3    H259882   1.392   3.269   0.138  0.3026  2.3620  0.0632
12823TIP3   OH259883   6.589   1.353   0.064  0.0807 -0.6201 -0.5084
12823TIP3    H159884   6.617   1.341   0.155 -0.4164 -1.4985 -0.4607
12823TIP3    H259885   6.669   1.370   0.016  0.3185  0.1380  0.1426
12824TIP3   OH259886   3.412   1.046  13.217 -0.1304  0.6414  0.3014
12824TIP3    H159887   3.413   0.967  13.270  0.8227  0.6128  0.2590
12824TIP3    H259888   3.350   1.104  13.261 -1.4149 -0.4042 -0.0951
12825TIP3   OH259889   4.280   5.394   3.432 -0.0520 -0.6796  0.0829
12825TIP3    H159890   4.219   5.468   3.429  0.7483 -0.0189 -1.8195
12825TIP3    H259891   4.325   5.403   3.516 -0.3832  0.6592  0.1447
12826TIP3   OH259892   2.368   0.934  16.967  0.7202  0.4896 -0.1630
12826TIP3    H159893   2.422   0.902  17.039 -0.2918 -0.4548  0.2002
12826TIP3    H259894   2.327   1.014  17.001  1.1482  0.6964 -0.1207
12827TIP3   OH259895   3.528   1.523   4.843 -0.1429 -0.2767  0.3030
12827TIP3    H159896   3.514   1.548   4.752  1.3603 -0.7149 -0.0642
12827TIP3    H259897   3.440   1.504   4.876 -0.9610  1.9594 -0.4085
12828TIP3   OH259898   4.801   1.070  12.092 -0.5751 -0.4645 -0.3237
12828TIP3    H159899   4.847   1.125  12.029 -0.5240  1.0992  1.0052
12828TIP3    H259900   4.736   1.022  12.040  0.4747 -0.3653 -1.7546
12829TIP3   OH259901   4.632   5.553   4.872  0.4184  0.0750 -0.0831
12829TIP3    H159902   4.672   5.466   4.867 -0.7859 -0.5681  1.0024
12829TIP3    H259903   4.573   5.556   4.797  0.4857 -0.0310 -0.1407
12830TIP3   OH259904   4.437   2.845  16.316  0.1251  0.7316 -0.2973
12830TIP3    H159905   4.414   2.768  16.265  0.6701  0.6473 -0.4171
12830TIP3    H259906   4.358   2.864  16.368 -0.4580  0.8692 -1.2210
12831TIP3   OH259907   2.290   0.775   4.873 -0.1564  0.0341 -0.2454
12831TIP3    H159908   2.306   0.829   4.951 -1.7874  0.8426 -0.4266
12831TIP3    H259909   2.255   0.837   4.808 -1.3189 -1.0864 -0.7290
12832TIP3   OH259910   2.908   3.409  16.636  0.1127 -0.5192 -0.0041
12832TIP3    H159911   2.846   3.441  16.570  0.1288 -0.1738  0.1447
12832TIP3    H259912   2.979   3.370  16.585  1.8660  2.7795 -0.4127
12833TIP3   OH259913   3.852   2.462  15.690  0.3327 -0.2381  0.8823
12833TIP3    H159914   3.835   2.478  15.783 -0.2638  2.3397  0.4201
12833TIP3    H259915   3.947   2.473  15.681  0.2200  0.9732  0.9891
12834TIP3   OH259916   4.024   6.766  12.842 -0.5018  0.3246  0.1279
12834TIP3    H159917   4.009   6.758  12.748 -0.5221  1.5361  0.0144
12834TIP3    H259918   4.071   6.686  12.866  0.6267  0.5829 -1.1419
12835TIP3   OH259919   3.561   1.274  12.565  0.5593 -0.1910 -0.0097
12835TIP3    H159920   3.636   1.216  12.575  0.1613 -0.8259 -0.5826
12835TIP3    H259921   3.556   1.291  12.471  0.9169  1.1305  0.1842
12836TIP3   OH259922   6.290   6.270  14.857 -0.6046  0.0150 -0.1858
12836TIP3    H159923   6.235   6.218  14.916 -3.1160  1.6451 -0.9474
12836TIP3    H259924   6.246   6.265  14.772  1.5242 -0.1492 -1.3450
12837TIP3   OH259925   5.327   2.298  16.219  0.3641  0.0769 -0.0691
12837TIP3    H159926   5.287   2.224  16.174  0.9920 -0.9542  1.0250
12837TIP3    H259927   5.421   2.280  16.215  0.6494  1.6259 -1.1626
12838TIP3   OH259928   0.537   5.338  16.580  0.0944  0.7102 -0.1552
12838TIP3    H159929   0.544   5.245  16.599  0.6090  0.6082 -0.8159
12838TIP3    H259930   0.444   5.358  16.595 -0.2116 -0.0997 -0.8472
12839TIP3   OH259931   3.159   4.649  14.537  0.5089 -0.2292 -0.0863
12839TIP3    H159932   3.151   4.727  14.592  1.9886  0.5235 -0.8867
12839TIP3    H259933   3.085   4.656  14.476 -0.1719 -0.2043  0.7210
12840TIP3   OH259934   1.954   3.473  15.002 -0.0651  0.2023 -0.1231
12840TIP3    H159935   2.016   3.426  15.058  0.4705 -0.3060 -1.1324
12840TIP3    H259936   1.874   3.421  15.005 -0.8854  1.4183  2.0596
12841TIP3   OH259937   0.871   4.749  15.240  0.5306  0.3410  0.3217
12841TIP3    H159938   0.781   4.740  15.272  0.8746 -0.9259  1.0117
12841TIP3    H259939   0.913   4.666  15.264  1.9130  0.9556  0.1161
12842TIP3   OH259940   0.887   5.045  15.160 -0.2049 -0.0669 -0.2436
12842TIP3    H159941   0.923   4.989  15.092 -1.1741  1.4078 -2.0686
12842TIP3    H259942   0.811   4.998  15.193  0.8873 -1.2840  0.6712
12843TIP3   OH259943   1.070   3.816   5.042 -0.4591  0.3712 -0.1422
12843TIP3    H159944   0.998   3.756   5.062 -1.4252  1.4096 -0.4139
12843TIP3    H259945   1.071   3.878   5.115  1.3362 -0.6628  0.7748
12844TIP3   OH259946   5.886   5.773  12.953  0.0650  0.6267  0.0233
12844TIP3    H159947   5.920   5.686  12.972 -1.2819 -0.2675 -1.4711
12844TIP3    H259948   5.961   5.820  12.915  0.7351  0.0865  0.6326
12845TIP3   OH259949   4.735   3.526   1.077  0.1936 -0.3447  0.4139
12845TIP3    H159950   4.794   3.520   1.002 -2.1738  0.4952 -1.6680
12845TIP3    H259951   4.760   3.608   1.120  1.7628 -0.9788  0.7797
12846TIP3   OH259952   4.423   3.938   2.457 -0.1528  0.3067 -0.4632
12846TIP3    H159953   4.349   3.907   2.404  0.4763 -1.5829 -0.3088
12846TIP3    H259954   4.397   4.025   2.487 -2.7476 -0.6937  0.4106
12847TIP3   OH259955   5.389   5.010   2.695 -0.3063 -0.0482 -0.0105
12847TIP3    H159956   5.342   4.976   2.619 -0.3870  1.6485 -0.7655
12847TIP3    H259957   5.322   5.047   2.752 -0.0440  0.8973 -0.3023
12848TIP3   OH259958   5.290   2.549  13.192 -0.0356 -0.6155  0.4917
12848TIP3    H159959   5.332   2.635  13.183 -1.6326  0.2740  1.2346
12848TIP3    H259960   5.350   2.500  13.248  0.0059  0.6751  1.6407
12849TIP3   OH259961   4.941   1.285  16.677  0.3473  0.5614  0.0585
12849TIP3    H159962   4.963   1.333  16.597 -1.0754  0.9084 -0.1505
12849TIP3    H259963   5.021   1.238  16.700  0.5542 -0.1635 -1.9939
12850TIP3   OH259964   4.313   5.596   0.240  0.1425  0.3140 -0.2240
12850TIP3    H159965   4.306   5.504   0.265  1.7795  0.2675  0.1188
12850TIP3    H259966   4.225   5.619   0.210 -1.0468 -0.6107  2.2467
12851TIP3   OH259967   3.469   0.867   2.522 -0.6148  0.1945 -0.1077
12851TIP3    H159968   3.437   0.957   2.516 -2.0382 -0.1061  1.8226
12851TIP3    H259969   3.402   0.814   2.479  0.1796  0.0259 -1.1706
12852TIP3   OH259970   0.853   4.241  16.007  0.1387  0.1063  0.4900
12852TIP3    H159971   0.833   4.319  15.956 -0.8792  0.4645  1.4143
12852TIP3    H259972   0.771   4.217  16.049  1.0561  0.2585  2.5319
12853TIP3   OH259973   0.226   2.814  13.521  0.4876 -0.0488 -0.1360
12853TIP3    H159974   0.234   2.720  13.510  0.8684 -0.1232  0.6783
12853TIP3    H259975   0.261   2.851  13.440 -0.7140 -0.6219 -0.9346
12854TIP3   OH259976   2.810   5.647  13.135  1.0673  0.8051 -0.0606
12854TIP3    H159977   2.890   5.605  13.104  1.9407  0.5143  2.3153
12854TIP3    H259978   2.823   5.740  13.117  0.7694  0.5120 -1.9737
12855TIP3   OH259979   6.226   4.765  13.546 -0.8989  0.3890  0.1980
12855TIP3    H159980   6.291   4.833  13.529  1.2982 -1.8183 -0.9237
12855TIP3    H259981   6.261   4.716  13.620 -1.3570 -0.7316 -0.3095
12856TIP3   OH259982   6.416   0.713  14.628 -0.2633  0.0881  0.3119
12856TIP3    H159983   6.432   0.683  14.538 -2.4367  0.4605 -0.2470
12856TIP3    H259984   6.502   0.709  14.670  0.5665 -1.3901 -1.3852
12857TIP3   OH259985   5.353   5.850   1.151 -0.7439  0.3657 -0.4323
12857TIP3    H159986   5.414   5.893   1.210  0.4417  0.4885 -1.7187
12857TIP3    H259987   5.282   5.820   1.208  0.3737  0.4499  1.0543
12858TIP3   OH259988   2.143   1.506  12.016 -0.2700 -0.2344 -0.4669
12858TIP3    H159989   2.169   1.435  12.075  0.6209 -1.0455 -1.7788
12858TIP3    H259990   2.215   1.570  12.023  1.0722 -1.4199 -2.3676
12859TIP3   OH259991   1.048   0.340   5.261 -0.4904 -0.1141  0.1583
12859TIP3    H159992   1.020   0.328   5.170  0.4570 -0.6925 -0.0758
12859TIP3    H259993   1.013   0.425   5.286 -0.7235  0.0733 -0.7630
12860TIP3   OH259994   2.186   0.451  15.984 -0.0237  0.0130  0.6532
12860TIP3    H159995   2.122   0.470  15.914 -0.0310 -1.8297  0.1136
12860TIP3    H259996   2.143   0.481  16.064 -0.4207  1.2672  0.0069
12861TIP3   OH259997   2.403   1.720   2.054 -0.3179  0.8772  0.0978
12861TIP3    H159998   2.381   1.793   2.112  0.7513  1.6370 -0.4225
12861TIP3    H259999   2.377   1.642   2.103 -1.6607  1.5912  0.5981
12862TIP3   OH260000   3.421   2.722   4.560 -0.2382  0.1920  0.4316
12862TIP3    H160001   3.327   2.709   4.547 -0.0375  0.5698 -1.9526
12862TIP3    H260002   3.427   2.784   4.632 -1.8149  0.0464  0.7183
12863TIP3   OH260003   4.648   1.624   5.058 -0.1345  0.0426 -0.1257
12863TIP3    H160004   4.623   1.622   5.150 -1.5059  0.7403 -0.4642
12863TIP3    H260005   4.698   1.543   5.045 -0.4517 -0.3588  1.0743
12864TIP3   OH260006   1.133   6.030  11.978  0.2088 -0.0187  0.5570
12864TIP3    H160007   1.192   6.031  12.054 -0.8193  0.9195  1.3766
12864TIP3    H260008   1.085   5.947  11.986  1.2945 -0.7373 -0.0556
12865TIP3   OH260009   3.609   4.312  16.117 -0.1677  0.0007 -0.7949
12865TIP3    H160010   3.591   4.248  16.186 -0.0027 -0.1431 -0.8829
12865TIP3    H260011   3.701   4.336  16.131 -0.9266  2.1861  0.8506
12866TIP3   OH260012   5.521   1.092   0.815  0.3860  0.4659  0.4149
12866TIP3    H160013   5.568   1.048   0.886 -0.3846 -0.5692  0.3113
12866TIP3    H260014   5.580   1.085   0.739 -0.6430 -2.5960 -0.2435
12867TIP3   OH260015   4.120   4.270  14.197  0.3867  0.1659  0.3225
12867TIP3    H160016   4.121   4.364  14.216 -0.3094  0.1411  0.5028
12867TIP3    H260017   4.028   4.250  14.180  0.9268  0.1777 -3.2585
12868TIP3   OH260018   1.116   3.574   0.260  0.0152 -0.6685  0.4447
12868TIP3    H160019   1.123   3.589   0.354 -0.4613  2.4291  0.1044
12868TIP3    H260020   1.199   3.608   0.225 -0.6523  0.1855 -0.3708
12869TIP3   OH260021   1.554   3.600   2.903  0.0632  0.1341 -0.4803
12869TIP3    H160022   1.508   3.681   2.882 -0.7437  0.1135  1.0835
12869TIP3    H260023   1.634   3.628   2.947 -0.6210  0.1110  0.8418
12870TIP3   OH260024   4.379   2.081  14.044  0.0477 -0.4074 -0.1953
12870TIP3    H160025   4.332   1.997  14.039 -2.0851  0.7151  0.1322
12870TIP3    H260026   4.313   2.147  14.027  1.1433  1.3840  2.0353
12871TIP3   OH260027   3.275   1.573   4.396  0.5589 -0.6148  0.2170
12871TIP3    H160028   3.255   1.617   4.313 -2.7999 -0.3075  1.0504
12871TIP3    H260029   3.198   1.519   4.414  1.3930 -1.0573  2.8953
12872TIP3   OH260030   5.818   0.878  11.801 -0.1385  0.4651 -0.5935
12872TIP3    H160031   5.780   0.792  11.780  0.3523  0.6464 -2.3768
12872TIP3    H260032   5.912   0.863  11.798  0.0738  1.6142 -3.9123
12873TIP3   OH260033   4.098   5.570   6.317 -0.4741  0.6101  0.0359
12873TIP3    H160034   4.016   5.534   6.350  0.0180 -1.1128 -0.5515
12873TIP3    H260035   4.124   5.511   6.246  0.5279  1.9732 -0.7816
12874TIP3   OH260036   2.061   5.761   0.841 -0.0293 -0.5065  0.0338
12874TIP3    H160037   2.140   5.765   0.894  0.6176 -0.3602 -0.9219
12874TIP3    H260038   2.012   5.840   0.865  1.2483  0.6928 -1.0783
12875TIP3   OH260039   0.174   0.404   2.939 -0.0785  0.0459 -0.4565
12875TIP3    H160040   0.251   0.427   2.992  0.1216 -1.0436 -0.2464
12875TIP3    H260041   0.128   0.487   2.926 -0.2380  0.3355  1.5950
12876TIP3   OH260042   3.026   4.014   5.846  0.0730  0.4102  0.2167
12876TIP3    H160043   2.968   4.085   5.817  0.5502  0.6809 -0.0803
12876TIP3    H260044   2.970   3.960   5.902 -0.3455  0.9275  0.3164
12877TIP3   OH260045   3.511   3.950   3.647  0.1559 -0.3712  0.3710
12877TIP3    H160046   3.429   3.911   3.618 -0.2649  0.0165  0.9912
12877TIP3    H260047   3.560   3.878   3.685 -1.0635 -0.1698  2.4915
12878TIP3   OH260048   3.385   2.319   5.033  0.0542 -0.3974 -0.2773
12878TIP3    H160049   3.314   2.316   4.969  0.2646  2.4864 -0.7784
12878TIP3    H260050   3.341   2.315   5.118 -1.0859  3.3784 -0.5147
12879TIP3   OH260051   4.296   1.447  11.571  0.3121 -0.4799 -0.1865
12879TIP3    H160052   4.298   1.524  11.628  0.7926 -0.4343 -0.2606
12879TIP3    H260053   4.281   1.483  11.484 -1.0973 -0.6011 -0.0108
12880TIP3   OH260054   1.503   5.463  14.175 -0.5645 -0.1259 -0.0605
12880TIP3    H160055   1.545   5.443  14.091  0.8507 -0.0596  0.6140
12880TIP3    H260056   1.538   5.397  14.236 -1.4806 -0.0964  0.5211
12881TIP3   OH260057   3.939   0.946   2.754  0.2359 -0.1727  0.4572
12881TIP3    H160058   3.905   0.968   2.840  0.2047 -1.0626  0.6887
12881TIP3    H260059   4.034   0.949   2.763  0.2644  1.7463 -0.0374
12882TIP3   OH260060   6.602   5.957  10.754 -0.1389  0.1667  0.0272
12882TIP3    H160061   6.553   5.928  10.677 -1.0959  0.6861  0.4339
12882TIP3    H260062   6.660   5.883  10.774 -0.6442 -0.3991 -0.5462
12883TIP3   OH260063   4.611   6.723   2.397 -0.1464 -0.0463 -0.1081
12883TIP3    H160064   4.571   6.803   2.361  0.6107  0.4214  0.0701
12883TIP3    H260065   4.692   6.753   2.437  0.5016 -1.0129 -0.6671
12884TIP3   OH260066   1.954   2.611   2.893  0.0181  0.3032 -0.3392
12884TIP3    H160067   2.019   2.543   2.904 -0.6998 -0.3903 -0.2940
12884TIP3    H260068   1.883   2.587   2.953  0.0507  1.4722  0.2072
12885TIP3   OH260069   2.049   1.609   1.922  0.3523  0.3023  0.3699
12885TIP3    H160070   2.042   1.700   1.892 -1.7042 -0.0521 -0.3667
12885TIP3    H260071   1.960   1.575   1.916  1.0868 -1.7836  0.6395
12886TIP3   OH260072   3.187   1.624   1.972 -0.1838 -0.1073 -0.0025
12886TIP3    H160073   3.182   1.540   2.020 -0.2809  0.0326  0.2369
12886TIP3    H260074   3.280   1.638   1.957 -0.2065 -0.5771 -0.6117
12887TIP3   OH260075   1.901   6.227   5.301 -0.5061  0.8416 -0.4307
12887TIP3    H160076   1.868   6.312   5.330 -1.1117  1.6293 -3.1915
12887TIP3    H260077   1.957   6.247   5.226  0.3148 -1.1392 -0.4164
12888TIP3   OH260078   5.135   4.023   1.647 -0.5329 -0.0941 -0.3053
12888TIP3    H160079   5.103   3.944   1.690  1.3377 -0.8656 -0.2265
12888TIP3    H260080   5.152   4.085   1.719  1.8217 -1.0973  0.0964
12889TIP3   OH260081   6.408   0.417  16.090  0.1302  0.4301 -0.0904
12889TIP3    H160082   6.415   0.503  16.050  0.5803 -0.3075 -1.6681
12889TIP3    H260083   6.318   0.389  16.071  0.0191  0.4946  0.3254
12890TIP3   OH260084   5.418   5.751   2.134 -0.2488 -0.4793  0.1612
12890TIP3    H160085   5.363   5.762   2.057  1.8048 -0.6470 -1.4121
12890TIP3    H260086   5.462   5.835   2.145 -1.4372 -0.0388  1.9623
12891TIP3   OH260087   6.673   3.316  15.686 -0.4032  0.1757  0.2013
12891TIP3    H160088   6.694   3.406  15.710  2.1782 -0.1493 -0.5840
12891TIP3    H260089   6.725   3.262  15.745 -0.3792 -0.7530 -0.6401
12892TIP3   OH260090   6.293   1.591   5.479 -0.1537 -0.4778  0.0321
12892TIP3    H160091   6.327   1.520   5.424 -1.7673 -0.0151 -1.6737
12892TIP3    H260092   6.328   1.573   5.566 -1.1490 -3.8730 -0.1163
12893TIP3   OH260093   6.674   1.124   6.013 -0.1735  0.0513  0.1062
12893TIP3    H160094   6.603   1.063   6.032 -0.1928  0.1131  0.2375
12893TIP3    H260095   6.752   1.081   6.047 -0.3070  0.4702  0.9823
12894TIP3   OH260096   1.175   1.871  14.778  0.1734 -0.0806  0.1020
12894TIP3    H160097   1.180   1.905  14.689 -0.7426  0.3641  0.2168
12894TIP3    H260098   1.203   1.943  14.833  1.8290 -0.6953  0.1360
12895TIP3   OH260099   6.398   0.367  16.587  0.4498 -0.4407 -0.1001
12895TIP3    H160100   6.349   0.288  16.612  1.6339 -1.5317 -1.0538
12895TIP3    H260101   6.446   0.341  16.509 -0.6226  1.8583 -1.6114
12896TIP3   OH260102   1.224   1.558   4.697  0.2960 -0.0474 -0.4061
12896TIP3    H160103   1.217   1.463   4.695  0.2116 -0.0352 -0.6981
12896TIP3    H260104   1.299   1.576   4.753 -0.5241 -0.2552  0.8049
12897TIP3   OH260105   3.957   1.859   2.988 -0.3195 -0.1580  0.0605
12897TIP3    H160106   3.965   1.918   3.064 -1.1872 -0.6021  0.5165
12897TIP3    H260107   3.866   1.870   2.959  0.0709  0.1935 -1.0851
12898TIP3   OH260108   0.358   1.795  12.089  0.2239  0.3865  0.1176
12898TIP3    H160109   0.287   1.854  12.062 -0.5330 -0.2971  0.5663
12898TIP3    H260110   0.313   1.719  12.125  1.1985 -0.0791  0.3772
12899TIP3   OH260111   3.462   0.654  12.290  0.2699 -0.1792  0.6658
12899TIP3    H160112   3.546   0.699  12.295 -0.1572  0.7869 -0.5315
12899TIP3    H260113   3.405   0.715  12.244 -1.1004 -0.8164  1.4649
12900TIP3   OH260114   0.666   2.715   1.733 -0.2634 -0.1046  0.5807
12900TIP3    H160115   0.639   2.629   1.766 -2.4659  0.0489 -0.6129
12900TIP3    H260116   0.714   2.695   1.652  1.7780 -0.2767  1.7467
12901TIP3   OH260117   4.800   4.973   4.729 -0.3852  0.1871 -0.4256
12901TIP3    H160118   4.765   5.014   4.651  0.4111  0.3220 -0.7270
12901TIP3    H260119   4.739   4.997   4.799 -0.0940  1.6704 -0.6441
12902TIP3   OH260120   1.542   1.364  11.165 -0.6027 -0.1543 -0.7916
12902TIP3    H160121   1.479   1.415  11.214  0.2515 -0.4770  0.6987
12902TIP3    H260122   1.554   1.285  11.216 -0.7805 -1.2049 -2.2973
12903TIP3   OH260123   5.526   2.036   3.975 -0.2953  0.1653  0.4825
12903TIP3    H160124   5.582   2.060   4.049 -0.6090  1.0631  0.4350
12903TIP3    H260125   5.442   2.078   3.994 -0.2069  0.9125 -0.6672
12904TIP3   OH260126   2.016   4.683   1.931  0.3543 -0.2789  0.0495
12904TIP3    H160127   2.043   4.625   1.860  2.6975  0.4086  0.2913
12904TIP3    H260128   2.097   4.722   1.962 -0.8949  1.3835  1.4310
12905TIP3   OH260129   4.833   5.949   0.044 -0.1456 -0.1761 -0.4776
12905TIP3    H160130   4.860   5.864   0.007 -1.8076 -0.6941 -0.5813
12905TIP3    H260131   4.858   5.944   0.136 -0.3597 -0.8496 -0.4472
12906TIP3   OH260132   3.851   6.801  16.332  0.6014 -0.0013 -0.3176
12906TIP3    H160133   3.905   6.723  16.319  0.9369  0.4577 -1.9817
12906TIP3    H260134   3.866   6.826  16.423  1.5279 -1.1189 -0.1430
12907TIP3   OH260135   1.306   1.300   0.601 -0.0586 -0.4282 -0.5518
12907TIP3    H160136   1.227   1.255   0.571 -1.1866  0.8731  0.3503
12907TIP3    H260137   1.378   1.255   0.556 -1.1367 -2.8061 -0.0322
12908TIP3   OH260138   5.884   4.545   4.060 -0.2299  0.4071 -0.1879
12908TIP3    H160139   5.861   4.631   4.024 -2.0450  1.1771  2.4537
12908TIP3    H260140   5.964   4.561   4.110 -0.3995  0.5010  0.0556
12909TIP3   OH260141   2.001   5.363   4.549  0.2069 -0.1503 -0.0590
12909TIP3    H160142   2.057   5.303   4.598 -0.2139 -0.4581  0.0453
12909TIP3    H260143   1.967   5.424   4.615  0.1386 -0.1802 -0.0662
12910TIP3   OH260144   3.590   5.495  13.777  0.1233  0.3779  0.0812
12910TIP3    H160145   3.599   5.587  13.801  1.1691 -0.0734  1.6386
12910TIP3    H260146   3.617   5.447  13.856 -0.2026 -1.2638 -0.7479
12911TIP3   OH260147   0.962   1.893  12.566 -0.3808  0.4075  0.1955
12911TIP3    H160148   0.963   1.821  12.503 -0.5122  1.8895 -1.6156
12911TIP3    H260149   1.002   1.966  12.518 -0.2600  1.5394  1.9524
12912TIP3   OH260150   6.068   6.809   0.282 -0.7394  0.1554 -0.6293
12912TIP3    H160151   6.119   6.819   0.202 -2.3867  1.0299 -1.6164
12912TIP3    H260152   6.047   6.716   0.287 -1.7263  0.2758 -1.9605
12913TIP3   OH260153   6.330   2.841   4.699  0.1189  0.0879  0.1675
12913TIP3    H160154   6.255   2.896   4.722  0.7336  0.5429  1.1373
12913TIP3    H260155   6.323   2.766   4.758 -0.9299 -1.1070 -1.4045
12914TIP3   OH260156   4.984   0.639   2.183 -0.0675  0.3498 -0.3632
12914TIP3    H160157   4.930   0.574   2.228 -0.2630  0.9201  0.2449
12914TIP3    H260158   4.950   0.641   2.094 -0.5348  0.1362 -0.1946
12915TIP3   OH260159   6.271   1.829   2.032  0.1868  0.3501  0.0778
12915TIP3    H160160   6.274   1.881   2.112 -1.6035 -0.2101  0.5572
12915TIP3    H260161   6.362   1.823   2.004  0.5230  3.8886 -0.1354
12916TIP3   OH260162   0.328   1.283  12.200  0.6424 -0.9034  0.0118
12916TIP3    H160163   0.374   1.270  12.117  0.8767  0.1351 -0.0409
12916TIP3    H260164   0.236   1.293  12.174  0.6605 -0.9889 -0.0863
12917TIP3   OH260165   2.117   3.825   5.775  0.0581 -0.5893  0.2925
12917TIP3    H160166   2.198   3.869   5.752 -0.6128  0.3120 -0.4552
12917TIP3    H260167   2.143   3.736   5.800  1.2587 -0.3031  0.0839
12918TIP3   OH260168   3.053   0.502   2.035  0.1653  0.3486 -0.3055
12918TIP3    H160169   3.029   0.592   2.013 -2.0187 -0.3327 -0.9868
12918TIP3    H260170   3.050   0.499   2.130  0.7423  1.0999 -0.2492
12919TIP3   OH260171   6.617   2.793  10.883 -0.6239  0.0781  0.3834
12919TIP3    H160172   6.648   2.794  10.793 -0.4413 -0.3080  0.4398
12919TIP3    H260173   6.691   2.760  10.934 -0.6680  0.4518  0.6951
12920TIP3   OH260174   1.970   5.899  11.603 -0.5623  0.1546 -0.0487
12920TIP3    H160175   1.890   5.949  11.617  0.0440  1.0830  0.1489
12920TIP3    H260176   2.037   5.945  11.654 -0.3409 -1.8354  1.6049
12921TIP3   OH260177   6.689   0.659  11.484 -0.9040  0.1645  0.0923
12921TIP3    H160178   6.765   0.680  11.430  0.0761 -0.6429  1.1070
12921TIP3    H260179   6.645   0.587  11.438 -0.5461  0.0409 -0.0579
12922TIP3   OH260180   1.964   3.376  11.933 -0.7165 -0.0170 -0.0494
12922TIP3    H160181   1.941   3.469  11.940 -2.0759 -0.3923  1.0875
12922TIP3    H260182   2.018   3.370  11.854  0.7240  1.9763  0.6931
12923TIP3   OH260183   4.756   0.738  12.675  0.3325 -0.5881 -0.0389
12923TIP3    H160184   4.831   0.721  12.731  0.4285 -1.2726 -0.3656
12923TIP3    H260185   4.790   0.729  12.586  0.2279  0.6864 -0.2271
12924TIP3   OH260186   0.271   4.980  14.296 -0.3812 -0.8718 -0.1983
12924TIP3    H160187   0.239   4.945  14.212  0.5598  0.1812 -1.0317
12924TIP3    H260188   0.366   4.978  14.287 -0.2832  0.6780  0.2276
12925TIP3   OH260189   6.236   1.976   1.738 -0.5570  0.4298 -0.0807
12925TIP3    H160190   6.294   1.951   1.666 -0.2315  1.0653 -0.0484
12925TIP3    H260191   6.230   1.898   1.793 -1.1430 -0.2043 -1.0071
12926TIP3   OH260192   6.803   2.145  16.445 -0.1153  0.3550 -0.1184
12926TIP3    H160193   6.827   2.193  16.365  0.1737  0.4712  0.0356
12926TIP3    H260194   6.878   2.156  16.503 -1.5152  2.9407  1.3973
12927TIP3   OH260195   5.446   0.915   2.428  0.0657  0.3067 -0.6752
12927TIP3    H160196   5.498   0.923   2.349 -0.8446 -1.0858 -1.4634
12927TIP3    H260197   5.357   0.939   2.401 -0.3893 -0.8445 -0.2846
12928TIP3   OH260198   5.425   5.831   3.430  0.4608 -0.4546  0.1652
12928TIP3    H160199   5.417   5.918   3.392  0.5033  0.4528  2.0954
12928TIP3    H260200   5.370   5.775   3.375 -0.7328  1.0901 -0.2751
12929TIP3   OH260201   4.763   0.550   0.426 -0.4194  0.3574 -0.5853
12929TIP3    H160202   4.743   0.616   0.492 -0.7266  0.4263 -0.7418
12929TIP3    H260203   4.678   0.511   0.406 -0.0020 -1.6060  1.0852
12930TIP3   OH260204   1.243   1.282  11.297 -0.0874  0.4146 -0.3842
12930TIP3    H160205   1.294   1.201  11.299  1.4495  1.2768 -2.0022
12930TIP3    H260206   1.305   1.350  11.324 -1.1573  1.1498  0.2810
12931TIP3   OH260207   4.007   4.353   2.430 -0.2839 -0.1497 -0.6845
12931TIP3    H160208   3.922   4.397   2.440  0.5070  1.5609 -1.0192
12931TIP3    H260209   4.033   4.373   2.340  0.3909 -0.7979 -0.6332
12932TIP3   OH260210   5.727   6.323  13.997  0.2895 -0.0756  0.4521
12932TIP3    H160211   5.676   6.323  14.079 -1.7480  0.5015 -0.7257
12932TIP3    H260212   5.804   6.376  14.017 -1.9218  3.2450  1.1066
12933TIP3   OH260213   2.209   3.573   5.934  0.4840  0.4721 -0.1277
12933TIP3    H160214   2.176   3.502   5.990  0.7009  0.8007  0.4257
12933TIP3    H260215   2.246   3.529   5.858 -1.9707  0.0988 -1.1983
12934TIP3   OH260216   1.848   2.921   4.144  0.4607  0.4512  0.3886
12934TIP3    H160217   1.767   2.972   4.136 -0.2880 -0.7561  0.0717
12934TIP3    H260218   1.842   2.855   4.075  2.3832  1.1887 -0.5677
12935TIP3   OH260219   3.019   1.300  16.929  0.2755  0.6998 -0.1738
12935TIP3    H160220   2.954   1.252  16.877  1.4995  0.1224 -1.2277
12935TIP3    H260221   2.993   1.392  16.920  0.8474  0.6908 -2.4359
12936TIP3   OH260222   3.461   4.491   5.179  0.0367 -0.7229  0.1813
12936TIP3    H160223   3.389   4.533   5.132 -0.8048 -2.0899  0.1941
12936TIP3    H260224   3.540   4.520   5.133 -0.6652 -0.9730 -1.2349
12937TIP3   OH260225   4.800   6.076   5.680 -0.0932  0.2854 -0.4528
12937TIP3    H160226   4.772   6.030   5.601  1.2018 -0.6396 -0.4055
12937TIP3    H260227   4.886   6.039   5.701 -0.7698 -0.1495  1.8929
12938TIP3   OH260228   6.774   1.817   2.655 -0.1616 -0.2516 -0.5539
12938TIP3    H160229   6.679   1.804   2.650 -0.3299  0.7268 -0.2253
12938TIP3    H260230   6.811   1.729   2.651 -1.1024 -0.6729 -0.2921
12939TIP3   OH260231   5.120   2.730   5.125 -0.1323  0.2060 -0.0293
12939TIP3    H160232   5.099   2.698   5.038  0.3527  1.1564 -0.5121
12939TIP3    H260233   5.035   2.754   5.163 -0.5189 -1.6631  0.3814
12940TIP3   OH260234   6.053   5.359   0.244  0.2584  0.5451  0.4357
12940TIP3    H160235   6.115   5.412   0.193 -1.2065  1.2067 -0.7364
12940TIP3    H260236   5.977   5.349   0.187 -0.0058 -1.8547  1.1019
12941TIP3   OH260237   4.785   2.167  12.769  0.1699 -0.6835  0.1583
12941TIP3    H160238   4.775   2.133  12.681  1.3426  1.7817 -1.0259
12941TIP3    H260239   4.695   2.187  12.797 -0.1246 -0.3151 -1.0041
12942TIP3   OH260240   0.032   4.504   3.993  0.1100  0.4120 -0.1073
12942TIP3    H160241   0.080   4.577   3.953  0.8872  0.6813  1.2677
12942TIP3    H260242   0.020   4.442   3.921  2.7252  0.2357 -0.4817
12943TIP3   OH260243   1.466   2.416   4.986  0.4778  0.4702 -0.4175
12943TIP3    H160244   1.540   2.476   4.993  1.6617 -1.0420  0.6709
12943TIP3    H260245   1.407   2.441   5.057  1.4132 -0.2013  0.6280
12944TIP3   OH260246   4.777   5.662  13.476 -0.1902 -0.2411  0.2161
12944TIP3    H160247   4.817   5.583  13.511  1.7419  0.6638  0.2094
12944TIP3    H260248   4.757   5.715  13.554 -1.1611 -0.5867  0.2054
12945TIP3   OH260249   5.969   0.692   4.102 -0.3243  0.0343  0.4002
12945TIP3    H160250   5.960   0.710   4.196  0.2411  0.6345  0.3435
12945TIP3    H260251   5.899   0.743   4.061 -0.2871  0.1302  0.4563
12946TIP3   OH260252   1.355   1.522  16.660 -0.2745  0.2181  0.7427
12946TIP3    H160253   1.440   1.493  16.694  1.1111  2.7281 -0.3053
12946TIP3    H260254   1.322   1.581  16.728 -0.7171  0.0237  0.6985
12947TIP3   OH260255   5.827   6.057  16.284  0.2404  0.0913 -0.4849
12947TIP3    H160256   5.846   5.969  16.252 -2.0745 -1.1292  1.1568
12947TIP3    H260257   5.881   6.066  16.362  0.0285 -0.1516 -0.3065
12948TIP3   OH260258   1.144   6.759  14.448  0.3789  0.7079 -0.1238
12948TIP3    H160259   1.060   6.754  14.492  0.2639 -0.7925 -0.4651
12948TIP3    H260260   1.208   6.767  14.518  0.2505 -2.2370  0.4460
12949TIP3   OH260261   0.366   6.518  14.029 -0.1851  0.4147  0.2505
12949TIP3    H160262   0.418   6.463  13.970 -0.2608  0.4560  0.1468
12949TIP3    H260263   0.292   6.462  14.054  0.7742 -0.2504  1.7137
12950TIP3   OH260264   4.899   5.356   1.546  0.9924 -0.5538 -0.1065
12950TIP3    H160265   4.942   5.288   1.494  0.4689 -1.1357  0.2076
12950TIP3    H260266   4.961   5.376   1.616  2.0481  0.7996 -1.3567
12951TIP3   OH260267   5.271   0.724  11.802 -0.1029  0.0042  0.1064
12951TIP3    H160268   5.352   0.683  11.833  0.2623 -0.6671 -1.6110
12951TIP3    H260269   5.284   0.734  11.707 -2.1306 -0.3551 -0.2522
12952TIP3   OH260270   5.057   4.329   0.862  0.4701  0.0208 -0.1303
12952TIP3    H160271   4.985   4.391   0.845  0.8238  0.7437  0.8744
12952TIP3    H260272   5.044   4.259   0.799  1.1778  2.0469 -2.7084
12953TIP3   OH260273   2.915   4.135  12.911  0.0787 -0.1093 -0.2974
12953TIP3    H160274   2.948   4.097  12.830 -0.7294  0.5423 -0.9552
12953TIP3    H260275   2.971   4.211  12.926 -0.2717  0.2306 -0.6885
12954TIP3   OH260276   1.466   2.985  16.627 -0.3711 -0.0059  0.5487
12954TIP3    H160277   1.418   3.032  16.695 -1.0255 -0.9934  0.7948
12954TIP3    H260278   1.504   3.054  16.572 -1.4978  0.8079  0.7594
12955TIP3   OH260279   1.123   2.917  16.664  0.4243 -0.1207  0.4244
12955TIP3    H160280   1.113   2.952  16.752 -2.2584  0.0928  0.1249
12955TIP3    H260281   1.124   2.995  16.608  1.1503 -0.2915  0.1989
12956TIP3   OH260282   2.779   6.168   4.220 -0.1597  0.7392  0.5501
12956TIP3    H160283   2.728   6.225   4.277  0.2060  0.2796  1.3434
12956TIP3    H260284   2.833   6.228   4.168 -0.8308  1.1786  0.3447
12957TIP3   OH260285   3.019   2.435  13.374  0.1794 -0.5602  0.2773
12957TIP3    H160286   3.085   2.366  13.381  2.5366  1.4379 -1.0855
12957TIP3    H260287   3.046   2.501  13.438 -2.4746 -1.0836  2.1208
12958TIP3   OH260288   1.551   3.155   1.257 -0.0975 -0.0988 -0.7353
12958TIP3    H160289   1.560   3.157   1.352  2.6543 -0.7802 -0.8945
12958TIP3    H260290   1.524   3.065   1.238 -1.4874  0.2722 -0.5746
12959TIP3   OH260291   6.750   5.292   2.129 -0.1107 -0.1485 -0.1963
12959TIP3    H160292   6.664   5.316   2.095 -0.2139  0.0684  0.2142
12959TIP3    H260293   6.810   5.311   2.056  0.1255  3.4031  0.7146
12960TIP3   OH260294   6.181   3.538  12.779  0.3619  0.3529  0.0126
12960TIP3    H160295   6.107   3.512  12.725  1.7760  1.0504 -2.4548
12960TIP3    H260296   6.180   3.634  12.777  0.8485  0.3761  0.6414
12961TIP3   OH260297   1.409   0.397  14.742 -0.3485  0.3158  0.3730
12961TIP3    H160298   1.445   0.467  14.689  1.5771 -1.5437 -0.9287
12961TIP3    H260299   1.484   0.343  14.766 -1.6339 -0.8574  2.0481
12962TIP3   OH260300   3.645   3.231   2.051  0.6392 -0.2810 -0.1426
12962TIP3    H160301   3.715   3.293   2.032  0.9972  0.1276  2.1820
12962TIP3    H260302   3.600   3.268   2.127 -0.9054 -1.5114 -0.3935
12963TIP3   OH260303   2.047   2.576  12.839 -0.1051  0.5919 -0.4247
12963TIP3    H160304   2.121   2.547  12.893  0.0211  0.7282 -0.5267
12963TIP3    H260305   2.071   2.663  12.808  0.8232 -0.3772 -2.5524
12964TIP3   OH260306   6.679   2.306  13.032 -0.0664  0.1143 -0.3657
12964TIP3    H160307   6.627   2.383  13.009  0.0336 -0.2974 -2.1181
12964TIP3    H260308   6.655   2.241  12.966  0.6531 -1.0040  0.4377
12965TIP3   OH260309   1.220   0.124  13.595 -0.4906 -0.0349  0.3510
12965TIP3    H160310   1.224   0.216  13.572 -0.5616 -0.1231 -0.0367
12965TIP3    H260311   1.312   0.097  13.605 -0.4781  0.1173  0.6223
12966TIP3   OH260312   0.690   4.752   2.104  0.5530 -0.5306  0.5001
12966TIP3    H160313   0.686   4.846   2.122 -1.2761 -0.3540 -0.5346
12966TIP3    H260314   0.650   4.711   2.181 -0.3922 -0.3154  0.1300
12967TIP3   OH260315   0.931   1.788  12.016  0.6188 -0.1966 -0.0591
12967TIP3    H160316   0.928   1.791  12.112  0.4166 -0.6828 -0.0447
12967TIP3    H260317   0.924   1.879  11.988 -0.5498 -0.1473  0.3546
12968TIP3   OH260318   5.598   2.565   3.213  0.3301 -0.0160 -0.6745
12968TIP3    H160319   5.629   2.569   3.303  1.1133  2.0016 -0.9795
12968TIP3    H260320   5.582   2.472   3.197 -0.5996 -0.3498  1.7706
12969TIP3   OH260321   2.442   0.419   5.915 -0.3868 -0.1707 -0.4949
12969TIP3    H160322   2.470   0.427   6.006 -0.4931 -1.2149 -0.3559
12969TIP3    H260323   2.478   0.497   5.872  0.0601  0.0957  0.3360
12970TIP3   OH260324   2.940   1.026   2.197 -0.2105 -0.1389 -0.8392
12970TIP3    H160325   2.998   1.034   2.274 -1.8419  1.6486  0.2814
12970TIP3    H260326   2.997   0.992   2.128  1.5065 -1.0797  0.9338
12971TIP3   OH260327   6.029   2.291  11.222  0.6145 -0.5623 -0.2785
12971TIP3    H160328   5.937   2.290  11.196  0.6240  1.5035 -0.5455
12971TIP3    H260329   6.030   2.255  11.311 -0.5034 -0.2742 -0.1416
12972TIP3   OH260330   5.391   6.281  10.826 -0.0373 -0.1017 -0.7748
12972TIP3    H160331   5.439   6.200  10.845  1.3921  0.7975 -0.4235
12972TIP3    H260332   5.453   6.335  10.779 -0.1820  1.6755  0.9381
12973TIP3   OH260333   0.796   1.930   4.107 -0.1936  0.0231 -0.6004
12973TIP3    H160334   0.766   1.852   4.059 -0.3645  0.0483 -0.5364
12973TIP3    H260335   0.890   1.935   4.089 -0.2499  0.0130 -0.9037
12974TIP3   OH260336   2.416   2.025   2.415 -0.0164 -0.1896 -0.5197
12974TIP3    H160337   2.493   2.081   2.420 -0.2240  0.1041 -0.5815
12974TIP3    H260338   2.345   2.078   2.452  0.0892 -0.9498  0.8294
12975TIP3   OH260339   2.324   0.559  13.013  0.5449  0.3940 -0.4083
12975TIP3    H160340   2.243   0.554  12.963  0.0765  0.9476  0.2720
12975TIP3    H260341   2.339   0.469  13.044  0.2130  0.2829 -0.5723
12976TIP3   OH260342   4.335   2.213  15.799 -0.0595 -0.2052  0.0578
12976TIP3    H160343   4.304   2.193  15.711  0.0337 -0.2159  0.0266
12976TIP3    H260344   4.349   2.308  15.798  2.8400 -0.5418 -0.9027
12977TIP3   OH260345   5.622   2.941  14.630 -0.3932 -0.1246  0.0496
12977TIP3    H160346   5.625   2.993  14.710 -0.7923  0.7068 -0.4592
12977TIP3    H260347   5.604   2.852  14.659 -0.8757  0.2320  0.8581
12978TIP3   OH260348   1.119   1.986   3.058  0.5269 -0.2971  0.0356
12978TIP3    H160349   1.024   1.982   3.064  0.5412  0.9871  2.0780
12978TIP3    H260350   1.137   2.070   3.017  0.7642  0.3879  1.4739
12979TIP3   OH260351   2.790   1.903  15.981  0.1391  0.1308  0.2273
12979TIP3    H160352   2.767   1.812  16.003 -0.5560  0.1675 -0.2945
12979TIP3    H260353   2.840   1.934  16.057  0.8534 -0.8513  0.1900
12980TIP3   OH260354   5.291   5.383  13.169  0.0362  0.0845  0.5226
12980TIP3    H160355   5.255   5.471  13.156  1.9935  0.8028 -0.3097
12980TIP3    H260356   5.215   5.331  13.194 -1.1293  2.0706  1.4321
12981TIP3   OH260357   0.076   2.861   3.402 -0.3147 -0.2381  0.0735
12981TIP3    H160358   0.161   2.879   3.362 -0.0425  0.4361  0.9426
12981TIP3    H260359   0.041   2.787   3.351  1.5092 -1.6557  0.7452
12982TIP3   OH260360   4.458   0.777   0.401  0.1089 -0.2798 -0.2915
12982TIP3    H160361   4.442   0.688   0.431 -0.8783 -0.0139  0.0210
12982TIP3    H260362   4.516   0.768   0.326  0.6880 -1.1240  0.2487
12983TIP3   OH260363   2.800   1.215   0.407  0.0512 -0.3891  0.0962
12983TIP3    H160364   2.793   1.139   0.349 -0.5121 -1.2928  1.3140
12983TIP3    H260365   2.748   1.192   0.484  0.6077  0.8651  0.8841
12984TIP3   OH260366   4.281   6.337   5.527 -0.1381 -0.1846 -0.1632
12984TIP3    H160367   4.328   6.256   5.509 -0.8227 -1.1945  2.1816
12984TIP3    H260368   4.307   6.360   5.616 -2.6674  0.1634  0.5592
12985TIP3   OH260369   6.009   4.892   2.834 -0.1635 -0.1142  0.4477
12985TIP3    H160370   6.080   4.956   2.830 -0.1929 -0.0769  0.5242
12985TIP3    H260371   6.029   4.830   2.763 -0.1309 -0.0263  0.3798
12986TIP3   OH260372   2.543   6.759   0.742 -0.6160 -0.1008 -0.5159
12986TIP3    H160373   2.609   6.811   0.697  1.6821 -1.2272  1.3693
12986TIP3    H260374   2.541   6.676   0.693  0.2683 -0.5002  0.0993
12987TIP3   OH260375   5.347   1.474   0.811  0.3681  0.4494 -0.2475
12987TIP3    H160376   5.431   1.451   0.771 -0.5029 -0.6237 -1.5273
12987TIP3    H260377   5.341   1.569   0.801  0.4086  0.2688 -2.2791
12988TIP3   OH260378   5.325   5.818   5.000  0.2022  0.6675 -0.1722
12988TIP3    H160379   5.268   5.880   5.045  0.5124  1.6922 -1.1495
12988TIP3    H260380   5.413   5.853   5.014  0.5129 -0.3053  0.4009
12989TIP3   OH260381   1.305   0.291  13.823  0.0399  0.9627 -0.0067
12989TIP3    H160382   1.355   0.298  13.742  2.5718 -0.0138  1.3547
12989TIP3    H260383   1.219   0.328  13.802  0.4351  0.3211 -3.2140
12990TIP3   OH260384   1.435   1.416   0.828  0.1490  0.4341  0.0559
12990TIP3    H160385   1.390   1.382   0.751  0.0309  0.7785 -0.0305
12990TIP3    H260386   1.518   1.450   0.795 -0.0999  1.0058  0.0001
12991TIP3   OH260387   0.477   3.498   5.466  0.1305  0.0573 -0.2228
12991TIP3    H160388   0.449   3.432   5.403  0.0156 -0.1740  0.0729
12991TIP3    H260389   0.465   3.458   5.551 -1.5643  1.0764  0.0554
12992TIP3   OH260390   2.291   0.827  13.045 -0.0758  0.0502  0.4351
12992TIP3    H160391   2.197   0.833  13.030  0.0888  3.0368  0.1266
12992TIP3    H260392   2.320   0.755  12.988 -2.0302 -0.4199 -0.0279
12993TIP3   OH260393   1.876   4.971  12.858  0.2050 -0.0383  0.5533
12993TIP3    H160394   1.821   4.920  12.918  2.6159 -0.1655  2.8219
12993TIP3    H260395   1.965   4.938  12.873  1.0584  0.5943 -2.4979
12994TIP3   OH260396   4.426   6.368   2.964  0.0823 -0.2204 -0.0114
12994TIP3    H160397   4.430   6.460   2.989  3.0049 -0.4303  0.7135
12994TIP3    H260398   4.442   6.321   3.045  0.6990 -1.2620 -0.7106
12995TIP3   OH260399   1.540   2.241   0.240 -0.0481 -0.1526 -0.0742
12995TIP3    H160400   1.461   2.295   0.237 -0.1436 -0.1045  1.8610
12995TIP3    H260401   1.577   2.257   0.328  1.8576 -0.5382 -0.7490
12996TIP3   OH260402   2.287   5.782  13.415  0.2737  0.3909 -0.3425
12996TIP3    H160403   2.281   5.705  13.359 -0.8289  0.8502 -0.8822
12996TIP3    H260404   2.263   5.750  13.502  1.4879 -0.2179 -0.2191
12997TIP3   OH260405   2.281   3.551  13.651 -0.2129 -0.1426 -0.8403
12997TIP3    H160406   2.309   3.467  13.688  1.8981  0.5743 -0.6579
12997TIP3    H260407   2.235   3.528  13.571  0.0346 -1.4967 -0.6218
12998TIP3   OH260408   5.945   5.675  15.069  0.4144 -0.3954  0.6632
12998TIP3    H160409   5.878   5.735  15.035 -0.7441 -2.1629 -0.3391
12998TIP3    H260410   5.921   5.663  15.161 -0.7515 -1.0784  0.2958
12999TIP3   OH260411   6.035   0.056  10.725  0.2980 -0.4989 -0.4425
12999TIP3    H160412   5.965   0.000  10.759 -1.9306  2.2769 -0.1281
12999TIP3    H260413   6.105   0.051  10.790 -0.9319 -0.8842  0.8749
13000TIP3   OH260414   0.929   1.115  16.675 -0.5987  0.3155 -0.1413
13000TIP3    H160415   1.001   1.072  16.721 -0.3271  0.8339 -0.0794
13000TIP3    H260416   0.857   1.052  16.679 -1.0161  0.8745  2.1747
13001TIP3   OH260417   4.039   4.255   5.032  0.5486  0.2947 -0.3160
13001TIP3    H160418   4.088   4.208   4.965  1.5509 -0.4498  0.8911
13001TIP3    H260419   4.106   4.293   5.089 -0.2623  1.8589 -0.3437
13002TIP3   OH260420   2.352   4.909   3.006 -0.1994  0.2815 -0.1157
13002TIP3    H160421   2.356   4.985   3.064 -0.2678 -0.1569  0.4737
13002TIP3    H260422   2.376   4.835   3.062 -0.1822 -0.1367 -0.6712
13003TIP3   OH260423   1.608   0.462  16.983 -0.1171 -0.8552  0.1737
13003TIP3    H160424   1.658   0.531  17.027 -0.3908 -0.5052 -0.0583
13003TIP3    H260425   1.582   0.500  16.899  0.2845 -1.4699 -0.2420
13004TIP3   OH260426   2.311   4.080  13.576 -0.0793 -0.3448  0.0323
13004TIP3    H160427   2.334   3.987  13.569 -0.4664 -0.5853  1.5474
13004TIP3    H260428   2.336   4.104  13.666 -0.2554  0.9456 -0.2421
13005TIP3   OH260429   1.238   1.753  14.463 -0.2596 -0.1976  0.1537
13005TIP3    H160430   1.150   1.760  14.428 -0.4214 -1.5581  0.2091
13005TIP3    H260431   1.271   1.670  14.427  0.8021  0.0445  0.5298
13006TIP3   OH260432   2.663   5.808   3.006 -0.0602  0.4563  0.5717
13006TIP3    H160433   2.653   5.732   2.949 -0.7785  2.1548 -1.7285
13006TIP3    H260434   2.601   5.793   3.077 -0.2347 -1.0366  0.1429
13007TIP3   OH260435   5.568   1.032  12.823 -0.0572  0.3481 -0.0189
13007TIP3    H160436   5.578   1.126  12.808 -2.1098  0.7414  0.7525
13007TIP3    H260437   5.566   1.023  12.919  2.9037 -0.8837  0.0501
13008TIP3   OH260438   0.379   1.448  16.236  0.0886 -0.0452 -0.4257
13008TIP3    H160439   0.366   1.469  16.144 -0.5548  0.5839 -0.1982
13008TIP3    H260440   0.317   1.503  16.283 -1.1272 -1.8876  0.2447
13009TIP3   OH260441   2.946   3.648   3.247 -0.2795  0.7194 -0.3244
13009TIP3    H160442   2.907   3.709   3.310 -1.6400 -0.1191 -0.3156
13009TIP3    H260443   2.988   3.581   3.301  0.3866  1.1125 -0.3364
13010TIP3   OH260444   3.182   5.546   4.084  0.3283 -0.0225 -1.0188
13010TIP3    H160445   3.093   5.576   4.063  0.4877  2.7233  1.5378
13010TIP3    H260446   3.232   5.562   4.005 -1.2991 -1.1348 -2.3418
13011TIP3   OH260447   4.621   6.556   0.163 -0.0617 -0.5491  0.3721
13011TIP3    H160448   4.657   6.606   0.090  1.0526 -0.8950  0.6500
13011TIP3    H260449   4.692   6.556   0.228 -1.2657  0.3761  1.7721
13012TIP3   OH260450   0.905   6.750   5.320  0.2467 -0.7989  1.1724
13012TIP3    H160451   0.887   6.659   5.343 -0.4260 -0.9070  0.2427
13012TIP3    H260452   0.819   6.790   5.308  0.5434 -0.5434 -0.3182
13013TIP3   OH260453   1.353   5.381   6.100  0.7725 -0.0253  0.2987
13013TIP3    H160454   1.423   5.443   6.077  0.4145  0.1063 -0.4760
13013TIP3    H260455   1.282   5.403   6.040  0.0988 -0.2269  1.0121
13014TIP3   OH260456   4.548   2.170  15.415  0.2926  0.4869  0.3937
13014TIP3    H160457   4.534   2.264  15.402 -0.1942  0.4738  0.7972
13014TIP3    H260458   4.590   2.164  15.501  0.7101  0.3619  0.1843
13015TIP3   OH260459   2.347   6.764  11.477 -0.1727 -0.4625  0.6073
13015TIP3    H160460   2.393   6.722  11.405 -0.4435 -2.0878  1.3349
13015TIP3    H260461   2.408   6.831  11.509  1.0162 -1.4679  0.5071
13016TIP3   OH260462   6.203   2.832  10.894  0.6873  0.0013 -0.3721
13016TIP3    H160463   6.113   2.856  10.912  1.0102  0.4586  0.7534
13016TIP3    H260464   6.199   2.774  10.818 -0.7800 -1.8386  1.0320
13017TIP3   OH260465   3.157   3.387  14.483 -0.1851  0.1441  0.6843
13017TIP3    H160466   3.235   3.331  14.483  0.4064  0.9502 -0.0168
13017TIP3    H260467   3.141   3.405  14.390  0.0164  1.6657  0.9310
13018TIP3   OH260468   0.347   2.411   2.133 -0.0628  0.1664  0.1878
13018TIP3    H160469   0.333   2.369   2.048 -0.5272 -1.0740  0.8469
13018TIP3    H260470   0.422   2.468   2.120 -0.5095  0.4748 -1.2185
13019TIP3   OH260471   2.359   6.090   0.854  0.0566  0.0390  0.1674
13019TIP3    H160472   2.426   6.099   0.921  0.1915  0.6033 -0.0396
13019TIP3    H260473   2.354   5.996   0.837  3.1900  0.1557 -2.2333
13020TIP3   OH260474   6.593   4.633  12.961  0.0944 -0.6495  0.2711
13020TIP3    H160475   6.645   4.575  12.906  0.7628 -1.0035  1.2463
13020TIP3    H260476   6.529   4.575  13.003 -0.0230 -0.4833  0.3216
13021TIP3   OH260477   3.253   4.820  10.518 -0.0082  0.3682  0.2018
13021TIP3    H160478   3.200   4.786  10.446 -0.7927 -0.8550  1.3144
13021TIP3    H260479   3.218   4.777  10.596 -0.7185  3.3513  1.6646
13022TIP3   OH260480   6.742   6.013   2.230  0.1515 -0.2440  0.0321
13022TIP3    H160481   6.774   5.997   2.141 -1.2969  0.7524 -0.7171
13022TIP3    H260482   6.671   5.949   2.241 -0.5503  0.5075 -0.0526
13023TIP3   OH260483   5.350   3.316   2.706  0.0458  0.1639 -0.0841
13023TIP3    H160484   5.352   3.304   2.612 -0.3980 -1.8901  0.1359
13023TIP3    H260485   5.440   3.300   2.735  0.5216  2.2160 -0.2590
13024TIP3   OH260486   3.598   2.891  12.472 -0.2147  0.1080 -0.1664
13024TIP3    H160487   3.540   2.823  12.508 -0.7689  1.4917  1.7253
13024TIP3    H260488   3.679   2.881  12.522  0.4228 -0.3832 -1.2610
13025TIP3   OH260489   1.673   1.936  11.206  0.1151 -0.1010 -0.3343
13025TIP3    H160490   1.718   1.954  11.288 -2.7233 -0.2224  1.3863
13025TIP3    H260491   1.719   1.861  11.169 -0.9814 -2.8592  3.3344
13026TIP3   OH260492   5.040   1.569   5.339 -0.6208 -0.0288 -0.3057
13026TIP3    H160493   5.036   1.494   5.279 -2.5247  0.1686 -0.4781
13026TIP3    H260494   4.975   1.550   5.406  0.9606  0.1062  1.3496
13027TIP3   OH260495   0.188   5.858   4.978  0.2608  0.6725  0.2550
13027TIP3    H160496   0.123   5.850   4.908  1.7693 -1.0134 -1.0417
13027TIP3    H260497   0.166   5.788   5.039  0.0790  0.9506  0.5123
13028TIP3   OH260498   0.572   1.473   0.924  0.3108 -0.2596 -0.0327
13028TIP3    H160499   0.556   1.545   0.985 -0.3740 -0.6121  0.2192
13028TIP3    H260500   0.541   1.395   0.971  0.1220 -0.5862 -0.6888
13029TIP3   OH260501   3.381   6.815   2.623  0.3563  0.0036 -0.1311
13029TIP3    H160502   3.349   6.815   2.713  0.1678  1.2464 -0.1893
13029TIP3    H260503   3.382   6.907   2.597  1.6867 -0.2052 -0.9442
13030TIP3   OH260504   6.061   1.782   0.216  0.2331  0.1180 -0.0454
13030TIP3    H160505   6.001   1.809   0.286  0.4279  2.1564 -0.5915
13030TIP3    H260506   6.106   1.706   0.250 -0.9322  0.0117  1.3415
13031TIP3   OH260507   4.180   6.028  13.184  0.2959  0.4572 -0.1379
13031TIP3    H160508   4.176   6.124  13.180  0.5526  0.5890  1.8078
13031TIP3    H260509   4.091   6.000  13.167  0.4978  0.9307 -2.2170
13032TIP3   OH260510   2.906   0.354   0.549 -0.1794 -0.2710  0.1764
13032TIP3    H160511   2.951   0.387   0.627 -0.7802  0.8801  0.0592
13032TIP3    H260512   2.973   0.351   0.481  0.1356 -0.3744  0.4903
13033TIP3   OH260513   6.136   6.309   5.321  0.0048  0.1653  0.3429
13033TIP3    H160514   6.047   6.339   5.336  0.4956  1.1771  1.4461
13033TIP3    H260515   6.169   6.367   5.252 -0.5525 -0.9899 -0.9219
13034TIP3   OH260516   5.705   5.657   0.868 -0.2458  0.0638  0.2788
13034TIP3    H160517   5.667   5.706   0.795  1.3178  1.8994  0.5919
13034TIP3    H260518   5.636   5.653   0.934 -0.2742  2.5002  0.4823
13035TIP3   OH260519   4.729   3.667  13.408  0.4714  0.4397  0.0095
13035TIP3    H160520   4.675   3.746  13.420 -0.4863 -0.1060 -0.6417
13035TIP3    H260521   4.768   3.652  13.494 -0.1027  1.0729  0.3892
13036TIP3   OH260522   2.728   1.597   4.606  0.0368  0.4450  0.4901
13036TIP3    H160523   2.754   1.689   4.617 -0.3879  0.9115 -1.8456
13036TIP3    H260524   2.635   1.601   4.582 -0.3551 -0.7206  1.6827
13037TIP3   OH260525   6.068   4.684   2.672 -0.0151 -0.1281 -0.0224
13037TIP3    H160526   6.077   4.617   2.604  0.9481 -0.4488  0.4024
13037TIP3    H260527   6.157   4.717   2.685 -0.3837  0.8233  0.2044
13038TIP3   OH260528   0.816   0.142  17.038  0.5948  0.5257 -0.7015
13038TIP3    H160529   0.843   0.167  17.126  0.2595 -1.3243 -0.0233
13038TIP3    H260530   0.784   0.223  16.999 -1.0924  1.0556  1.5591
13039TIP3   OH260531   1.671   0.264  14.885 -0.0646 -0.1222  0.1369
13039TIP3    H160532   1.746   0.306  14.843 -0.9302  1.5761  0.1738
13039TIP3    H260533   1.652   0.188  14.831  1.3817 -0.3201 -0.1410
13040TIP3   OH260534   2.876   5.761  13.690  0.4340 -0.2623  0.8041
13040TIP3    H160535   2.953   5.808  13.658  0.4231 -1.9790 -2.0627
13040TIP3    H260536   2.809   5.829  13.699  0.4724  0.4629 -2.9849
13041TIP3   OH260537   0.218   2.133  13.362  0.2113 -0.1171 -0.2910
13041TIP3    H160538   0.298   2.186  13.372 -0.5218  1.0687 -0.4956
13041TIP3    H260539   0.148   2.188  13.397 -0.3803 -1.6253  1.0367
13042TIP3   OH260540   2.925   1.776  15.628 -0.0549 -0.1375 -0.3431
13042TIP3    H160541   2.978   1.730  15.562  0.8840  0.1254  0.2047
13042TIP3    H260542   2.990   1.816  15.686 -0.8362 -1.2082  1.3465
13043TIP3   OH260543   6.809   2.435   4.088 -0.5285  0.4733  0.6878
13043TIP3    H160544   6.878   2.500   4.104  1.2489 -1.0550 -0.2489
13043TIP3    H260545   6.823   2.408   3.997 -2.0643 -0.2524  0.6451
13044TIP3   OH260546   0.727   5.491  16.224  0.2886 -0.2647  0.7655
13044TIP3    H160547   0.810   5.454  16.196  0.0353 -1.0042  0.9802
13044TIP3    H260548   0.718   5.571  16.172  1.0401 -0.2735  0.6067
13045TIP3   OH260549   4.360   2.544   1.141  0.0925 -0.3571 -0.2086
13045TIP3    H160550   4.303   2.510   1.210  1.7382 -0.2854  1.2372
13045TIP3    H260551   4.410   2.614   1.183  1.6494 -0.7843 -1.2756
13046TIP3   OH260552   4.670   0.127   5.211 -0.2971  0.4552  0.5118
13046TIP3    H160553   4.705   0.051   5.163 -3.9633 -0.4811 -0.9877
13046TIP3    H260554   4.635   0.089   5.292 -0.5981  0.8598  0.5703
13047TIP3   OH260555   4.758   6.411  14.890  0.3364 -0.1804 -0.0077
13047TIP3    H160556   4.698   6.477  14.856  0.2246  0.1052  0.7138
13047TIP3    H260557   4.741   6.333  14.837 -0.1148  0.1297 -0.3245
13048TIP3   OH260558   4.530   2.622  11.745 -0.1671 -0.5393 -0.1159
13048TIP3    H160559   4.504   2.555  11.682  1.0908 -0.7965 -0.3923
13048TIP3    H260560   4.500   2.704  11.706 -3.1098 -1.0045  0.9543
13049TIP3   OH260561   3.331   0.079  14.840 -0.0027 -0.2196  0.2217
13049TIP3    H160562   3.238   0.055  14.841  0.2007 -1.1362 -0.8843
13049TIP3    H260563   3.375   0.005  14.880  0.3333 -0.1944 -0.0968
13050TIP3   OH260564   1.619   2.219   4.434 -0.8097 -0.2516 -0.5758
13050TIP3    H160565   1.711   2.239   4.422 -1.3462  2.8839 -0.2595
13050TIP3    H260566   1.578   2.242   4.350 -1.5240  0.1508 -0.1281
13051TIP3   OH260567   6.263   3.248   1.674 -0.6111 -0.1837 -0.1331
13051TIP3    H160568   6.188   3.215   1.723  0.4536 -1.3521  0.7628
13051TIP3    H260569   6.227   3.318   1.619 -2.2792 -0.4995  0.5109
13052TIP3   OH260570   6.201   3.197   4.850  0.6848  0.2088 -0.0745
13052TIP3    H160571   6.245   3.122   4.890  0.4819  0.3473  0.4281
13052TIP3    H260572   6.227   3.195   4.758 -0.3966 -1.2734 -0.3795
13053TIP3   OH260573   5.684   2.668  13.066 -0.1880 -0.0193  0.4840
13053TIP3    H160574   5.602   2.680  13.114  0.2300  1.4688  0.8774
13053TIP3    H260575   5.740   2.622  13.128 -0.2186  0.3683  0.8077
13054TIP3   OH260576   6.135   6.036   1.278 -0.0917 -0.5275  0.1085
13054TIP3    H160577   6.182   5.988   1.210 -0.1345  0.0294 -0.3217
13054TIP3    H260578   6.142   5.980   1.356 -0.2353 -1.2747 -0.4057
13055TIP3   OH260579   0.040   0.250   2.228 -0.9979 -0.0880  0.0515
13055TIP3    H160580  -0.032   0.191   2.204  0.3301 -0.6765 -3.0778
13055TIP3    H260581   0.008   0.338   2.206 -0.6631 -0.4048 -1.9381
13056TIP3   OH260582   5.585   5.414   4.486 -0.0281 -0.1190  0.0656
13056TIP3    H160583   5.566   5.321   4.496 -0.2412 -0.0423  0.3630
13056TIP3    H260584   5.512   5.459   4.528  0.4170  0.1793  0.5285
13057TIP3   OH260585   0.682   5.881  16.209 -0.1030  0.3615 -0.0642
13057TIP3    H160586   0.645   5.894  16.296 -1.9956  0.5110 -0.8371
13057TIP3    H260587   0.643   5.951  16.156 -0.4946 -0.8530 -1.4386
13058TIP3   OH260588   4.408   5.252   0.407 -0.4513 -0.0392 -0.2775
13058TIP3    H160589   4.354   5.265   0.485 -1.8547  0.0821 -1.2408
13058TIP3    H260590   4.498   5.261   0.439 -0.9423 -0.9560  1.4986
13059TIP3   OH260591   1.304   5.829  15.472 -0.2527 -0.5703  0.3399
13059TIP3    H160592   1.285   5.755  15.415  1.6703  0.7053 -2.1261
13059TIP3    H260593   1.229   5.888  15.460 -0.6288 -1.0189  0.4381
13060TIP3   OH260594   0.144   5.372   1.596  0.4476 -0.7901  0.2653
13060TIP3    H160595   0.138   5.316   1.519  0.5682  1.8633 -1.8259
13060TIP3    H260596   0.238   5.390   1.606  0.2581  0.9235 -0.6380
13061TIP3   OH260597   5.677   0.281   6.388 -0.2507 -0.4518  0.2729
13061TIP3    H160598   5.700   0.213   6.451 -4.8320 -0.8651  1.9571
13061TIP3    H260599   5.657   0.357   6.443  0.2887  0.7929 -1.1866
13062TIP3   OH260600   5.174   5.741   1.327  0.0386  0.7270  0.4352
13062TIP3    H160601   5.079   5.738   1.337  0.1063 -0.7154  0.8865
13062TIP3    H260602   5.207   5.756   1.416  0.2163  3.5812 -0.0084
13063TIP3   OH260603   1.709   0.489  11.552  0.3120  0.9662 -0.0613
13063TIP3    H160604   1.619   0.468  11.577  1.0798 -1.1782  1.1909
13063TIP3    H260605   1.739   0.414  11.501  0.4818  3.0100 -3.2475
13064TIP3   OH260606   2.981   4.580   4.840 -0.2583 -0.2874  0.2379
13064TIP3    H160607   2.902   4.566   4.787  0.3730 -0.5924 -0.6600
13064TIP3    H260608   2.952   4.568   4.930 -1.3380  0.0753 -0.0430
13065TIP3   OH260609   2.184   4.444  16.934 -0.2228 -0.4849 -0.1562
13065TIP3    H160610   2.197   4.354  16.904  1.2304  0.2077 -1.7619
13065TIP3    H260611   2.197   4.498  16.856  0.4594  1.2160  1.0582
13066TIP3   OH260612   0.093   4.862  11.112  0.3634  0.1230  0.2866
13066TIP3    H160613   0.075   4.900  11.198 -0.6746 -0.9489  0.5815
13066TIP3    H260614   0.048   4.920  11.051  1.6539  1.2619  0.3785
13067TIP3   OH260615   5.875   4.920  11.523 -0.5883 -0.0491  0.3072
13067TIP3    H160616   5.933   4.983  11.565  0.3253 -0.7289  0.0984
13067TIP3    H260617   5.858   4.956  11.436 -0.4389  0.1263  0.3514
13068TIP3   OH260618   0.670   0.744  11.671 -0.0849  0.4395 -0.0877
13068TIP3    H160619   0.607   0.805  11.708  0.8037  1.2654  0.1245
13068TIP3    H260620   0.618   0.681  11.622 -0.9362  2.6573 -2.2168
13069TIP3   OH260621   4.677   5.507  12.792 -0.0795 -0.3630 -0.6935
13069TIP3    H160622   4.646   5.448  12.723 -0.8587 -0.0719 -0.5960
13069TIP3    H260623   4.609   5.503  12.859 -0.0071  0.4573 -0.5701
13070TIP3   OH260624   5.061   4.182  15.231 -0.2240  0.3436 -0.0353
13070TIP3    H160625   5.104   4.256  15.274  1.0499 -0.7594  0.6733
13070TIP3    H260626   5.130   4.116  15.223 -1.5181 -1.0845  0.1247
13071TIP3   OH260627   4.642   4.665   6.396 -0.5265 -0.4168  0.1458
13071TIP3    H160628   4.620   4.581   6.356  1.2636 -0.4560 -0.8362
13071TIP3    H260629   4.734   4.680   6.374 -0.5993  1.4815  0.8861
13072TIP3   OH260630   4.415   2.258  17.013  0.6006  0.1620  1.0279
13072TIP3    H160631   4.340   2.238  17.069  0.9140  0.1414  1.4550
13072TIP3    H260632   4.479   2.190  17.033 -0.0016 -0.9887 -0.7923
13073TIP3   OH260633   4.741   5.794   0.442 -0.1744 -0.5277  0.4218
13073TIP3    H160634   4.695   5.774   0.361  1.2645  2.0726 -1.2064
13073TIP3    H260635   4.693   5.868   0.479  0.9254  0.3394  0.2035
13074TIP3   OH260636   4.747   5.511   0.114 -0.4673  0.1860  0.3566
13074TIP3    H160637   4.735   5.584   0.054  1.6260 -0.2325 -0.6894
13074TIP3    H260638   4.832   5.527   0.155 -0.7616 -0.7771  1.4003
13075TIP3   OH260639   6.583   5.224   0.654  0.2103 -0.4243  0.3323
13075TIP3    H160640   6.554   5.306   0.616  0.0751 -0.0053  1.3200
13075TIP3    H260641   6.579   5.238   0.749 -1.6651 -2.1876  0.5835
13076TIP3   OH260642   0.346   1.671   2.556  0.4789 -0.8079 -0.1424
13076TIP3    H160643   0.368   1.620   2.635 -0.7241 -0.1083  0.6787
13076TIP3    H260644   0.381   1.759   2.574 -1.7024 -0.0301  0.6296
13077TIP3   OH260645   5.227   1.159   5.096  0.1829 -0.0174  0.5464
13077TIP3    H160646   5.313   1.127   5.069 -0.3781 -0.3360 -0.9715
13077TIP3    H260647   5.215   1.240   5.046  0.4528  1.1701  2.3234
13078TIP3   OH260648   0.547   3.118  11.780 -0.5851 -0.1493  0.8275
13078TIP3    H160649   0.536   3.196  11.834  0.3929  0.2450  0.4632
13078TIP3    H260650   0.491   3.052  11.822 -0.8374  0.5226  1.5690
13079TIP3   OH260651   4.823   3.362   3.026 -0.0451 -0.2793  0.5234
13079TIP3    H160652   4.820   3.322   3.113  3.2258 -1.4809  0.2563
13079TIP3    H260653   4.854   3.291   2.969  1.7110  1.4465 -0.8145
13080TIP3   OH260654   2.635   2.519   5.467 -0.4331  0.7986  0.3231
13080TIP3    H160655   2.602   2.495   5.554 -2.8592 -3.5301 -1.4727
13080TIP3    H260656   2.557   2.538   5.416  0.2283 -2.6325 -2.2805
13081TIP3   OH260657   1.101   4.324  14.809 -0.0905  0.1584 -0.5272
13081TIP3    H160658   1.124   4.398  14.752 -0.4032  1.2636  0.7192
13081TIP3    H260659   1.148   4.250  14.773  0.0546  0.9114 -1.9695
13082TIP3   OH260660   2.360   1.352  10.285 -0.2453  0.5629  0.1368
13082TIP3    H160661   2.357   1.444  10.310 -1.6606  0.6187 -0.1398
13082TIP3    H260662   2.399   1.307  10.360  0.5735  1.3847  0.2192
13083TIP3   OH260663   3.697   5.615   2.201 -0.5362  0.2394 -0.2092
13083TIP3    H160664   3.650   5.657   2.273  0.1477  1.1330 -0.2704
13083TIP3    H260665   3.677   5.521   2.211 -0.2064  0.3112  1.3197
13084TIP3   OH260666   5.027   4.280   3.306 -0.1086  0.1771  0.2444
13084TIP3    H160667   5.111   4.311   3.340 -0.2419 -0.1488  0.8877
13084TIP3    H260668   5.014   4.195   3.349 -1.0893  0.5389  0.6753
13085TIP3   OH260669   1.258   2.653   2.076  0.0751 -0.5621  0.4795
13085TIP3    H160670   1.209   2.592   2.021  1.0888 -0.1652 -0.9239
13085TIP3    H260671   1.326   2.599   2.116  1.4785 -0.2750 -1.3925
13086TIP3   OH260672   6.520   0.508  13.033 -0.0103 -0.0435  0.0209
13086TIP3    H160673   6.503   0.507  12.938  0.2321  1.5851 -0.0747
13086TIP3    H260674   6.594   0.448  13.045  0.5398  0.4146 -0.9572
13087TIP3   OH260675   2.296   0.178  16.713 -0.8454 -0.2028 -0.2004
13087TIP3    H160676   2.212   0.131  16.703 -1.1265  0.4142 -0.8140
13087TIP3    H260677   2.277   0.267  16.685 -0.8585  0.8962  2.9065
13088TIP3   OH260678   0.100   1.394   5.090  0.6645 -0.5492 -0.6296
13088TIP3    H160679   0.135   1.470   5.043  0.1086 -1.3360 -2.3539
13088TIP3    H260680   0.177   1.343   5.114  0.9425 -0.1791 -0.7243
13089TIP3   OH260681   1.071   6.469  12.954  0.3027 -0.2668  0.0565
13089TIP3    H160682   1.110   6.395  13.000 -0.9018 -1.1254 -0.2384
13089TIP3    H260683   1.077   6.542  13.015  0.7179 -0.8373  0.7021
13090TIP3   OH260684   5.132   2.783   1.925 -0.8080  0.5342 -0.0697
13090TIP3    H160685   5.041   2.808   1.938 -1.6351 -1.2525 -1.9030
13090TIP3    H260686   5.137   2.755   1.833  1.1501 -1.0578  0.4404
13091TIP3   OH260687   5.917   5.151  14.738 -0.0349  0.4587  0.4683
13091TIP3    H160688   5.934   5.062  14.768  1.8229  0.5047 -0.3081
13091TIP3    H260689   5.835   5.175  14.780 -1.7820 -2.3697 -1.0261
13092TIP3   OH260690   3.019   1.620   0.151 -0.5452 -0.8334 -0.2026
13092TIP3    H160691   3.108   1.616   0.187 -0.0411  0.9343 -1.1712
13092TIP3    H260692   2.978   1.538   0.180  0.4028 -0.3687  2.8491
13093TIP3   OH260693   5.895   6.450  16.913 -0.5242 -0.7901  0.2448
13093TIP3    H160694   5.988   6.470  16.927 -0.1732 -0.6157 -1.9892
13093TIP3    H260695   5.854   6.472  16.996  0.9127  2.6316  0.2320
13094TIP3   OH260696   1.855   6.770  14.825  0.1055 -0.4310 -0.0540
13094TIP3    H160697   1.882   6.743  14.737  0.9422  0.3672 -0.0571
13094TIP3    H260698   1.826   6.689  14.867  0.0800 -0.8868 -0.9236
13095TIP3   OH260699   3.713   0.144  13.512  0.2807 -0.1295  0.1724
13095TIP3    H160700   3.685   0.113  13.426 -1.3436  0.9480  0.2662
13095TIP3    H260701   3.703   0.068  13.569  0.8395 -0.6966 -0.4617
13096TIP3   OH260702   6.260   4.178   4.674  0.5327  0.1674  0.2892
13096TIP3    H160703   6.271   4.273   4.676  0.4532  0.1699  0.7995
13096TIP3    H260704   6.269   4.155   4.582 -1.4442  0.9077 -0.1391
13097TIP3   OH260705   1.017   2.641  11.282  0.3906 -0.5382 -0.4741
13097TIP3    H160706   1.085   2.709  11.283  2.0266 -2.0765  0.7964
13097TIP3    H260707   1.043   2.583  11.210  0.6090 -1.2575  0.1620
13098TIP3   OH260708   6.420   3.985  12.608 -0.2936 -0.2564 -0.7673
13098TIP3    H160709   6.380   3.958  12.690 -1.3270 -0.8194 -1.4332
13098TIP3    H260710   6.467   4.065  12.629 -3.0333  1.3267 -0.2652
13099TIP3   OH260711   1.173   2.595  15.016  0.0757  0.1650 -0.6202
13099TIP3    H160712   1.228   2.611  14.939 -0.2350  1.3462 -0.6178
13099TIP3    H260713   1.132   2.680  15.034  1.5456  0.4017  1.9820
13100TIP3   OH260714   0.370   3.902  12.702  0.4306 -0.7003 -0.1069
13100TIP3    H160715   0.454   3.925  12.663  0.5602 -0.0594  0.5320
13100TIP3    H260716   0.388   3.894  12.795 -0.0829 -1.2096 -0.0490
13101TIP3   OH260717   2.323   2.671  12.328  0.2229  0.0431  0.2275
13101TIP3    H160718   2.415   2.690  12.306  0.3882 -0.0671  0.8095
13101TIP3    H260719   2.275   2.749  12.300  0.7413  0.8689  1.5635
13102TIP3   OH260720   4.667   4.791   3.131 -0.2701 -0.1668  0.9854
13102TIP3    H160721   4.613   4.828   3.201  1.1207  1.2077  1.3955
13102TIP3    H260722   4.748   4.765   3.174  1.0631  1.7266 -0.2113
13103TIP3   OH260723   5.116   0.580   5.244 -0.7580  0.4333 -0.0242
13103TIP3    H160724   5.081   0.644   5.306  0.7083  0.2879  1.0211
13103TIP3    H260725   5.045   0.564   5.183 -1.8054  1.6083  0.8326
13104TIP3   OH260726   0.144   3.235  12.011 -0.3600 -0.0072  0.0511
13104TIP3    H160727   0.165   3.300  12.078 -0.2869 -0.9260  0.9408
13104TIP3    H260728   0.051   3.247  11.995 -0.7669 -0.8784  1.5616
13105TIP3   OH260729   2.281   4.157  14.111  0.2852 -0.0721  0.1327
13105TIP3    H160730   2.220   4.180  14.040  0.5391 -0.0768 -0.0904
13105TIP3    H260731   2.229   4.164  14.191  0.2401  0.8132  0.0276
13106TIP3   OH260732   5.477   6.436  15.158  0.2915 -0.1395 -0.0858
13106TIP3    H160733   5.547   6.426  15.093  0.3796 -2.7119  0.3068
13106TIP3    H260734   5.518   6.487  15.228  0.6588  1.3613 -1.3082
13107TIP3   OH260735   4.414   2.484   3.397  0.0271  0.0683 -0.4395
13107TIP3    H160736   4.340   2.441   3.355 -1.3721  1.5288  0.4665
13107TIP3    H260737   4.381   2.568   3.427  2.1706  0.9804 -0.3994
13108TIP3   OH260738   0.884   0.584   5.119  0.0259 -0.5454  0.1958
13108TIP3    H160739   0.800   0.610   5.081  0.0157 -0.5487  0.2163
13108TIP3    H260740   0.909   0.658   5.175 -0.3876 -0.9131  0.8794
13109TIP3   OH260741   2.569   4.338   0.458 -0.3872 -0.1409  0.2487
13109TIP3    H160742   2.649   4.293   0.486  0.2597 -0.5370 -1.9794
13109TIP3    H260743   2.515   4.268   0.420 -0.7040  0.4808 -0.4655
13110TIP3   OH260744   1.335   5.711   1.840  0.6477 -0.1578  0.1917
13110TIP3    H160745   1.321   5.735   1.749  0.1753  1.2685  0.6070
13110TIP3    H260746   1.248   5.718   1.880  0.2716 -3.4860  0.2101
13111TIP3   OH260747   1.425   3.328  17.001  0.1843  0.2882  0.1960
13111TIP3    H160748   1.437   3.422  17.015  1.6803 -0.1178  2.0913
13111TIP3    H260749   1.506   3.300  16.959 -0.6454 -0.0409 -1.2452
13112TIP3   OH260750   4.662   3.726   3.421 -0.0758 -0.1560 -0.5141
13112TIP3    H160751   4.681   3.687   3.506 -0.5456  0.2388 -0.2273
13112TIP3    H260752   4.569   3.707   3.406 -0.1155  0.1919 -0.7188
13113TIP3   OH260753   0.569   1.296  10.300  0.4495 -0.2423 -0.0495
13113TIP3    H160754   0.526   1.375  10.335  0.0326 -0.5240  0.0837
13113TIP3    H260755   0.615   1.327  10.222  0.4772  0.1796  0.1286
13114TIP3   OH260756   3.663   5.195  13.839 -0.0424 -0.2165  0.2381
13114TIP3    H160757   3.598   5.226  13.902  2.1045 -1.1613  3.1211
13114TIP3    H260758   3.683   5.106  13.867  1.7811 -0.2930 -1.1324
13115TIP3   OH260759   2.345   1.995   1.408 -0.3644 -0.4105 -0.0367
13115TIP3    H160760   2.301   1.925   1.456 -0.1736  0.2802  1.1691
13115TIP3    H260761   2.434   1.996   1.442  0.1966 -0.8052 -1.3981
13116TIP3   OH260762   6.516   4.603   5.621 -0.5624 -0.2365 -0.4481
13116TIP3    H160763   6.438   4.601   5.676 -1.1997  2.2268 -1.1312
13116TIP3    H260764   6.568   4.676   5.656 -0.8438  1.2043 -2.8525
13117TIP3   OH260765   3.114   3.747   4.590  0.2966  0.0468 -0.7208
13117TIP3    H160766   3.172   3.770   4.662  0.3192  0.1312 -0.7656
13117TIP3    H260767   3.029   3.733   4.631  0.7327 -1.8734 -0.3950
13118TIP3   OH260768   3.967   1.949   1.017  0.1959  0.6689  0.1488
13118TIP3    H160769   4.026   2.011   0.974 -0.4018  0.5943 -0.8107
13118TIP3    H260770   3.898   2.003   1.054 -0.0912  0.6277 -0.3099
13119TIP3   OH260771   1.606   6.809  14.169 -0.1847  0.0653 -0.2694
13119TIP3    H160772   1.596   6.796  14.263 -0.3467  0.6013 -0.2089
13119TIP3    H260773   1.616   6.903  14.159 -0.6776  0.0655 -0.8338
13120TIP3   OH260774   3.622   0.415  11.234  0.1254  0.1661  0.3674
13120TIP3    H160775   3.572   0.395  11.155 -2.8321 -2.2089  2.6235
13120TIP3    H260776   3.682   0.340  11.244  0.2956  0.3246  0.5504
13121TIP3   OH260777   5.558   5.582   5.467 -0.1592  0.4220  0.1396
13121TIP3    H160778   5.598   5.535   5.540  0.1381  0.8185  0.2283
13121TIP3    H260779   5.473   5.538   5.455 -1.4976  2.0882  2.5563
13122TIP3   OH260780   6.329   1.725  11.310 -0.1913  0.0156 -0.3345
13122TIP3    H160781   6.288   1.811  11.321  2.0269  1.2345 -0.9090
13122TIP3    H260782   6.363   1.704  11.398  0.9454  0.6901 -0.5892
13123TIP3   OH260783   6.537   6.508   1.490  0.2289  0.6455 -0.5069
13123TIP3    H160784   6.564   6.425   1.452  0.2091  0.9192 -1.1310
13123TIP3    H260785   6.617   6.561   1.492  0.8027 -0.1874  2.1213
13124TIP3   OH260786   5.116   5.650  12.369 -0.3654  0.1629 -0.6273
13124TIP3    H160787   5.148   5.654  12.279  0.9128 -0.1779 -0.2140
13124TIP3    H260788   5.031   5.606  12.363  0.6814 -1.8637 -1.4501
13125TIP3   OH260789   1.234   3.478   1.994  0.2315  0.3950  0.3727
13125TIP3    H160790   1.303   3.413   1.982 -0.4956 -0.2534 -0.4843
13125TIP3    H260791   1.163   3.447   1.938 -1.3211  0.2295  2.3334
13126TIP3   OH260792   5.935   6.007   3.740  0.1943  0.3010 -0.4382
13126TIP3    H160793   5.868   5.966   3.686 -0.6191  3.9183 -2.4338
13126TIP3    H260794   5.931   5.958   3.823 -4.0863 -0.4346 -0.8387
13127TIP3   OH260795   2.326   1.715  14.941 -0.0898  0.0623 -0.1431
13127TIP3    H160796   2.324   1.619  14.949  1.1878 -0.2005 -2.1844
13127TIP3    H260797   2.394   1.743  15.002 -0.1608 -0.3865  0.1454
13128TIP3   OH260798   4.857   3.264  11.991  0.1244 -0.0291 -0.1167
13128TIP3    H160799   4.865   3.334  12.056 -3.2227  0.3224  0.1019
13128TIP3    H260800   4.780   3.288  11.940 -0.5002 -2.9996 -0.7651
13129TIP3   OH260801   5.191   0.402  12.787  0.5146 -0.3900  0.0949
13129TIP3    H160802   5.238   0.320  12.797  1.8851  0.3705  0.1620
13129TIP3    H260803   5.184   0.415  12.692 -0.0474 -0.7666  0.0831
13130TIP3   OH260804   1.127   5.089   0.749 -0.1278 -0.0199 -0.7578
13130TIP3    H160805   1.168   5.003   0.737 -0.3041 -0.3170  0.6634
13130TIP3    H260806   1.037   5.069   0.771 -1.2402  0.6315 -4.1048
13131TIP3   OH260807   2.915   2.776  11.473 -0.2335 -0.1446 -0.2916
13131TIP3    H160808   2.891   2.817  11.556  0.7898  0.6553 -0.3776
13131TIP3    H260809   2.869   2.828  11.407 -1.0305 -0.7680 -0.2514
13132TIP3   OH260810   3.227   5.683   0.039  0.3354  0.7177 -0.1059
13132TIP3    H160811   3.218   5.599  -0.006 -1.9104  0.3382  0.9530
13132TIP3    H260812   3.154   5.736   0.007  0.9272  1.7969  0.2657
13133TIP3   OH260813   4.325   3.975   4.297  0.3494 -0.6940 -0.0979
13133TIP3    H160814   4.362   4.032   4.364  2.2311  0.4430 -1.9579
13133TIP3    H260815   4.251   4.025   4.261  0.9918 -0.1038 -0.6300
13134TIP3   OH260816   0.736   1.999   5.688  0.2141 -0.0119  0.1860
13134TIP3    H160817   0.819   2.046   5.698  0.0406  0.0675  1.3806
13134TIP3    H260818   0.710   1.976   5.778 -0.0138 -1.8658 -0.3088
13135TIP3   OH260819   3.038   3.764  16.820 -0.4429  0.2044  0.3685
13135TIP3    H160820   3.107   3.710  16.859  0.8076  0.5772 -1.2455
13135TIP3    H260821   2.958   3.714  16.834  0.3704 -0.9931  0.8840
13136TIP3   OH260822   6.428   3.233  16.216 -0.3073  0.1261  0.4521
13136TIP3    H160823   6.336   3.208  16.206 -0.4463 -0.1304  2.1384
13136TIP3    H260824   6.435   3.265  16.306  1.3033 -0.0295  0.4148
13137TIP3   OH260825   1.843   4.948   0.157  0.0117  0.2047 -0.3257
13137TIP3    H160826   1.768   4.912   0.205  0.4623  0.1774  0.3817
13137TIP3    H260827   1.919   4.906   0.197  0.3808 -0.3112 -1.5173
13138TIP3   OH260828   3.342   0.011  13.615  0.8825 -0.3771  0.0965
13138TIP3    H160829   3.299   0.094  13.638  0.4146 -0.2868 -1.0594
13138TIP3    H260830   3.428   0.016  13.657  0.3499  0.1016  1.1646
13139TIP3   OH260831   3.403   2.401  13.167  1.1461  0.2757 -0.1654
13139TIP3    H160832   3.352   2.444  13.099  0.1123 -0.4745  0.0943
13139TIP3    H260833   3.438   2.322  13.126 -2.1751 -1.9637  0.8771
13140TIP3   OH260834   2.601   6.341   2.724  0.0030  0.3389  0.3934
13140TIP3    H160835   2.592   6.295   2.808  2.5017  0.0463  0.5778
13140TIP3    H260836   2.600   6.272   2.658 -2.4355  0.6036  0.0549
13141TIP3   OH260837   4.805   6.476   3.083 -0.3772 -0.5999  0.3257
13141TIP3    H160838   4.795   6.566   3.115 -0.4068 -0.8043  0.9050
13141TIP3    H260839   4.717   6.439   3.087 -0.5823 -0.3003 -1.0245
13142TIP3   OH260840   2.079   1.182  11.531  0.6245  0.2971 -0.3683
13142TIP3    H160841   2.012   1.248  11.512 -0.8019 -0.6167  1.1645
13142TIP3    H260842   2.162   1.224  11.510 -0.3891  1.5669 -2.1199
13143TIP3   OH260843   2.859   3.733  10.905  0.3124 -0.6266  0.6206
13143TIP3    H160844   2.862   3.745  11.000 -2.5041  0.5977  0.6395
13143TIP3    H260845   2.782   3.679  10.890 -0.7907  1.2992 -1.0986
13144TIP3   OH260846   1.521   0.384   4.960 -0.4595 -0.1588 -0.1201
13144TIP3    H160847   1.475   0.311   5.002  1.4284 -0.1669  2.1765
13144TIP3    H260848   1.473   0.461   4.988 -0.8983 -0.3538 -0.3331
13145TIP3   OH260849   0.001   1.750  14.087 -0.1089 -0.3904 -0.0777
13145TIP3    H160850  -0.073   1.765  14.146 -0.3721 -0.9699 -0.2550
13145TIP3    H260851  -0.004   1.657  14.066  1.3560 -0.7165  0.8480
13146TIP3   OH260852   0.466   5.095   2.181  0.0051  0.4381  0.1530
13146TIP3    H160853   0.560   5.112   2.187  0.4006 -0.9561 -1.2903
13146TIP3    H260854   0.449   5.033   2.252  0.3093  0.1954  0.0170
13147TIP3   OH260855   2.489   6.552   5.527 -0.0463  0.0807  0.0119
13147TIP3    H160856   2.447   6.466   5.535  0.5153 -0.2362 -0.4386
13147TIP3    H260857   2.439   6.608   5.587  0.7285 -0.9923  1.7605
13148TIP3   OH260858   4.712   3.930  12.145  0.2242 -0.0914  0.1094
13148TIP3    H160859   4.778   3.999  12.144 -0.4795  0.5847 -0.3430
13148TIP3    H260860   4.630   3.974  12.123 -0.2498 -1.0592 -0.1314
13149TIP3   OH260861   1.312   3.494   4.007  0.7292  0.2585  0.1606
13149TIP3    H160862   1.401   3.467   4.029 -0.3135 -3.1879  0.7229
13149TIP3    H260863   1.310   3.494   3.912  1.1897 -0.2601  0.1445
13150TIP3   OH260864   1.327   2.909  11.004 -0.2448 -0.0374  0.3067
13150TIP3    H160865   1.253   2.848  10.994  0.6228 -1.0557 -0.1140
13150TIP3    H260866   1.402   2.861  10.970  0.6407  0.9430  0.8200
13151TIP3   OH260867   0.306   6.734  12.076  0.0588 -0.3629  0.1030
13151TIP3    H160868   0.325   6.644  12.048  0.6789  0.1329 -1.1415
13151TIP3    H260869   0.392   6.770  12.099 -0.3545 -0.5467  2.1355
13152TIP3   OH260870   3.069   3.106   4.390  0.3334 -0.3064  0.0709
13152TIP3    H160871   3.141   3.167   4.374  0.2005 -0.2320 -0.2548
13152TIP3    H260872   2.991   3.153   4.360  0.2548 -0.7080 -0.3600
13153TIP3   OH260873   5.096   4.608  13.285  0.1277 -0.5783 -0.5681
13153TIP3    H160874   5.099   4.625  13.380 -1.4331 -0.7913 -0.4489
13153TIP3    H260875   5.170   4.658  13.250  0.2437  0.1838  0.6730
13154TIP3   OH260876   4.505   0.676  11.139 -0.8667 -0.6664 -0.4862
13154TIP3    H160877   4.557   0.741  11.186 -0.5180 -2.2718  1.4912
13154TIP3    H260878   4.495   0.712  11.051  0.0990  1.5906  0.2524
13155TIP3   OH260879   3.612   2.893   3.964 -0.8726  0.3998  0.0721
13155TIP3    H160880   3.692   2.933   3.998 -0.3209 -0.9182  0.3709
13155TIP3    H260881   3.614   2.804   3.998 -2.3416  0.2693 -0.1460
13156TIP3   OH260882   5.585   0.030   3.829 -0.1705  0.0796  0.1521
13156TIP3    H160883   5.583  -0.044   3.768  0.6882  0.7682 -0.7374
13156TIP3    H260884   5.499   0.028   3.871 -1.1277  0.1091 -1.7251
13157TIP3   OH260885   2.735   1.439  12.137 -0.8700 -0.0661 -0.2614
13157TIP3    H160886   2.814   1.477  12.098  0.6985  0.2577  2.9096
13157TIP3    H260887   2.713   1.499  12.208 -2.2366 -1.6844  0.7417
13158TIP3   OH260888   0.287   0.979  12.833  0.5861 -0.2677 -0.1169
13158TIP3    H160889   0.308   1.017  12.748 -0.1536 -0.7520 -0.5228
13158TIP3    H260890   0.362   0.924  12.854  1.3339  0.7978  0.1322
13159TIP3   OH260891   0.541   2.275  10.536 -0.4343  0.7547  0.0483
13159TIP3    H160892   0.486   2.339  10.581  0.6718  1.3336  0.6356
13159TIP3    H260893   0.485   2.197  10.526 -1.0004  0.9178  1.6431
13160TIP3   OH260894   4.412   6.106  11.292 -0.1487 -0.6793 -0.5209
13160TIP3    H160895   4.473   6.160  11.342 -0.2085 -1.2936  0.2225
13160TIP3    H260896   4.453   6.098  11.205  0.1853 -0.0050 -0.4300
13161TIP3   OH260897   5.512   2.067   3.282 -0.1942 -0.0892  0.3756
13161TIP3    H160898   5.466   2.068   3.197 -1.8893  0.6338  1.2542
13161TIP3    H260899   5.596   2.027   3.262 -0.9427 -0.9100 -1.4563
13162TIP3   OH260900   2.909   5.711   1.955  0.2147  0.0456 -0.2153
13162TIP3    H160901   2.989   5.695   2.005  0.3061 -0.4875 -0.5306
13162TIP3    H260902   2.894   5.630   1.906 -1.6062 -0.6683  1.3584
13163TIP3   OH260903   0.212   6.739  10.914  0.6195 -0.4673 -0.4547
13163TIP3    H160904   0.300   6.770  10.891  0.2790  1.4644  0.6351
13163TIP3    H260905   0.208   6.747  11.009  0.2326 -3.3441 -0.1427
13164TIP3   OH260906   3.397   4.934  11.110  0.4610  0.1126 -0.3949
13164TIP3    H160907   3.339   4.862  11.086 -1.2768  0.6804  1.7597
13164TIP3    H260908   3.455   4.897  11.176  1.2369  0.0748 -1.0846
13165TIP3   OH260909   3.963   5.138  14.650 -0.0273 -0.5493  0.6536
13165TIP3    H160910   3.876   5.144  14.691 -0.4589 -2.0826  0.0139
13165TIP3    H260911   3.992   5.049  14.670  0.8312 -0.4812 -0.2605
13166TIP3   OH260912   4.186   0.046   1.306 -0.0124  0.0742 -0.0815
13166TIP3    H160913   4.096   0.031   1.335 -0.0791  1.3626  0.4632
13166TIP3    H260914   4.233   0.073   1.385  0.8401 -0.4641 -0.3791
13167TIP3   OH260915   5.768   4.366  16.412 -0.4829  0.3792 -0.2864
13167TIP3    H160916   5.836   4.432  16.398 -0.7425  0.8634  0.6626
13167TIP3    H260917   5.687   4.416  16.423 -0.5831 -0.0360  1.0799
13168TIP3   OH260918   3.642   2.697   5.292  0.2146  0.2160  0.1798
13168TIP3    H160919   3.723   2.666   5.251 -0.4313 -0.3381 -0.7141
13168TIP3    H260920   3.646   2.661   5.381  0.4165 -0.7860 -0.2187
13169TIP3   OH260921   1.627   1.276   2.938  0.1237 -0.5514 -0.3812
13169TIP3    H160922   1.609   1.185   2.962  0.6274 -1.0890 -1.9035
13169TIP3    H260923   1.610   1.279   2.844 -0.2313  1.0364 -0.2915
13170TIP3   OH260924   4.365   5.193  14.749  0.3084 -0.6203  0.4606
13170TIP3    H160925   4.426   5.251  14.704  0.4170  0.0457  1.4374
13170TIP3    H260926   4.380   5.107  14.710  1.8621 -0.4728  0.6578
13171TIP3   OH260927   4.679   6.160  13.261  0.3009 -0.5195  0.0722
13171TIP3    H160928   4.772   6.162  13.242  0.1840  1.9944 -0.5890
13171TIP3    H260929   4.673   6.157  13.357  1.1126  0.6934  0.1797
13172TIP3   OH260930   1.657   3.952  10.858 -0.7521  0.2352  1.1404
13172TIP3    H160931   1.597   3.993  10.797 -1.0579  0.4585  1.5830
13172TIP3    H260932   1.655   3.859  10.834  0.0013  0.4778  0.0914
13173TIP3   OH260933   3.284   5.932   0.377  0.4032 -0.2136  0.4074
13173TIP3    H160934   3.236   5.850   0.382  0.2849 -0.2767 -1.1959
13173TIP3    H260935   3.306   5.953   0.468 -2.2818 -0.3877  1.2030
13174TIP3   OH260936   0.504   6.018   2.888  0.1168  0.2844 -0.1555
13174TIP3    H160937   0.578   5.965   2.860 -0.2739 -0.7429  0.6662
13174TIP3    H260938   0.436   6.001   2.823 -0.1793 -0.6586  0.3803
13175TIP3   OH260939   6.465   6.675  14.746 -0.1858  0.2671  0.5064
13175TIP3    H160940   6.494   6.593  14.784  0.7422 -0.1263 -0.9820
13175TIP3    H260941   6.514   6.743  14.793  2.5059 -0.3186 -1.2349
13176TIP3   OH260942   3.171   3.170  13.940 -0.1957  0.0561 -0.1614
13176TIP3    H160943   3.250   3.157  13.888 -0.0947 -2.0477  0.4187
13176TIP3    H260944   3.144   3.260  13.921 -0.3270 -0.6172 -4.0566
13177TIP3   OH260945   4.703   6.774   4.258  0.2519 -0.1544  0.5319
13177TIP3    H160946   4.626   6.832   4.262  0.2348 -0.2195  1.1662
13177TIP3    H260947   4.776   6.831   4.280  0.3279 -0.2051  0.4109
13178TIP3   OH260948   6.113   6.700  16.985 -0.0037  0.2006 -0.0538
13178TIP3    H160949   6.081   6.646  17.057  1.2572 -0.4565  0.0408
13178TIP3    H260950   6.112   6.789  17.020 -1.0644  0.1206  0.1595
13179TIP3   OH260951   0.831   2.659  11.518  0.6722  0.2334  0.0546
13179TIP3    H160952   0.907   2.653  11.461 -0.4002  0.0209 -1.4123
13179TIP3    H260953   0.783   2.736  11.487 -0.6765 -0.7120 -0.3142
13180TIP3   OH260954   5.216   3.175   6.502  0.7984  0.0279 -0.7194
13180TIP3    H160955   5.213   3.126   6.584 -0.0331  0.8472 -0.2404
13180TIP3    H260956   5.298   3.225   6.506  0.3704  0.6882 -0.0085
13181TIP3   OH260957   0.069   4.128   1.566 -0.0730  0.0479  0.3016
13181TIP3    H160958   0.066   4.219   1.536 -3.3486 -0.7271 -2.2808
13181TIP3    H260959  -0.010   4.118   1.619 -1.1489 -1.8224 -1.5228
13182TIP3   OH260960   4.573   2.529  14.100  0.4496 -0.2700  0.2640
13182TIP3    H160961   4.623   2.583  14.162  0.7099  1.5783 -1.4334
13182TIP3    H260962   4.564   2.585  14.022  0.2684 -2.5096 -1.4262
13183TIP3   OH260963   2.437   4.376   4.200  0.0880 -0.4849  0.2263
13183TIP3    H160964   2.515   4.394   4.149  0.2806  1.3478  1.1010
13183TIP3    H260965   2.365   4.412   4.148  0.0698 -0.2772  0.3953
13184TIP3   OH260966   3.091   4.462   0.764  0.2912 -0.2337  0.0404
13184TIP3    H160967   3.068   4.406   0.689 -0.1362 -0.8495  0.6184
13184TIP3    H260968   3.180   4.436   0.786 -0.3264 -1.5809  1.0679
13185TIP3   OH260969   3.072   0.714   1.863 -0.2058  0.7049  0.4272
13185TIP3    H160970   3.140   0.752   1.807  1.0889 -0.8982  0.8166
13185TIP3    H260971   3.055   0.628   1.824 -1.7738  0.9334  0.5548
13186TIP3   OH260972   5.782   2.497   2.435 -0.0300  0.0880 -0.0892
13186TIP3    H160973   5.741   2.560   2.493 -0.2837  0.9171 -1.1356
13186TIP3    H260974   5.844   2.549   2.383 -0.5112 -0.4288 -1.2249
13187TIP3   OH260975   3.397   4.974   4.184  0.1145 -0.7092  0.4097
13187TIP3    H160976   3.415   5.019   4.102 -0.5652  0.2552  0.7712
13187TIP3    H260977   3.389   4.881   4.160  1.9836 -0.7497 -0.2871
13188TIP3   OH260978   0.095   4.256   5.628  0.0412  0.2003  0.9678
13188TIP3    H160979   0.003   4.254   5.604 -0.0318  1.9839  1.0084
13188TIP3    H260980   0.135   4.319   5.568  0.7255  1.3326  2.5518
13189TIP3   OH260981   4.536   3.469  14.937  0.4714 -0.0781  0.2131
13189TIP3    H160982   4.617   3.480  14.887  0.2104  1.3432  0.0717
13189TIP3    H260983   4.566   3.437  15.023  0.9292 -2.3577 -0.7224
13190TIP3   OH260984   2.443   1.149   3.392 -0.0951  0.1263 -0.1174
13190TIP3    H160985   2.481   1.183   3.474  0.3427 -0.3850 -0.0997
13190TIP3    H260986   2.401   1.067   3.417 -1.2705  0.7128 -0.1337
13191TIP3   OH260987   6.798   6.479  15.299  0.1003 -0.1203  0.2724
13191TIP3    H160988   6.737   6.513  15.233 -1.4896  0.9082  2.1813
13191TIP3    H260989   6.873   6.538  15.295  0.7623 -0.9902 -1.6284
13192TIP3   OH260990   0.570   5.998   0.575  0.5942 -0.5064 -0.6767
13192TIP3    H160991   0.620   6.080   0.578  0.4876 -0.4598 -0.2163
13192TIP3    H260992   0.590   5.962   0.488  1.0335 -0.2398 -0.6915
13193TIP3   OH260993   6.038   2.641   1.106 -0.1311  0.7768 -0.2174
13193TIP3    H160994   6.102   2.657   1.175 -0.4246  2.4621 -0.2980
13193TIP3    H260995   6.078   2.572   1.052  1.3899  1.4478  0.0005
13194TIP3   OH260996   1.998   1.602   5.313 -0.1441  0.3855 -0.0120
13194TIP3    H160997   1.938   1.553   5.369  0.0406  2.4069  2.0843
13194TIP3    H260998   1.941   1.659   5.261 -0.2028 -0.0753 -0.4596
13195TIP3   OH260999   0.216   2.034   1.291 -0.5209 -0.0143  0.4573
13195TIP3    H161000   0.129   2.027   1.251 -1.0304  0.1710  1.4926
13195TIP3    H261001   0.240   2.127   1.281 -0.9575  0.1827  1.1937
13196TIP3   OH261002   2.294   4.512   3.272 -0.1606  0.2422 -0.1248
13196TIP3    H161003   2.218   4.467   3.235 -0.1120  0.1530 -0.1141
13196TIP3    H261004   2.280   4.510   3.366 -0.8208  1.3937 -0.1780
13197TIP3   OH261005   1.687   1.042  15.865 -0.0865 -0.2229 -0.2899
13197TIP3    H161006   1.602   1.025  15.824 -0.5959  1.1222  0.1480
13197TIP3    H261007   1.668   1.109  15.932  1.3687  0.3325 -0.4058
13198TIP3   OH261008   1.582   3.876   2.627  0.8517  0.0159  0.1336
13198TIP3    H161009   1.651   3.812   2.611 -0.4911 -1.1824 -1.0589
13198TIP3    H261010   1.590   3.939   2.555  1.1315  0.2909  0.3984
13199TIP3   OH261011   4.490   6.274  15.520 -0.2641 -0.6045 -0.0532
13199TIP3    H161012   4.464   6.302  15.608  1.2525 -1.4389  0.6926
13199TIP3    H261013   4.454   6.342  15.462 -3.4206 -1.2589  0.9017
13200TIP3   OH261014   5.647   3.229  15.817 -0.7828 -0.2583 -0.5898
13200TIP3    H161015   5.570   3.285  15.824 -0.9969 -0.2888 -2.2856
13200TIP3    H261016   5.617   3.151  15.771  0.3681  0.0374 -1.9217
13201TIP3   OH261017   0.880   2.103  14.874 -0.2567  0.2707  0.2264
13201TIP3    H161018   0.787   2.090  14.891 -0.2879  0.7291  0.3939
13201TIP3    H261019   0.921   2.022  14.905 -0.8413 -0.9711 -1.9620
13202TIP3   OH261020   1.478   4.258   3.167  0.0887 -0.3056 -0.2710
13202TIP3    H161021   1.526   4.333   3.131 -0.1361  0.0080  0.0633
13202TIP3    H261022   1.543   4.210   3.217  0.3327 -0.5753 -0.8425
13203TIP3   OH261023   2.806   2.699   1.170  0.4168 -0.2798 -0.0719
13203TIP3    H161024   2.869   2.679   1.239 -2.1585 -0.3201  2.4329
13203TIP3    H261025   2.742   2.757   1.211 -0.8773  0.2813 -2.6614
13204TIP3   OH261026   1.462   6.413   3.781  0.6751 -0.0791  0.2946
13204TIP3    H161027   1.416   6.330   3.794  0.1449  0.4655  2.0994
13204TIP3    H261028   1.406   6.462   3.721  0.2180 -0.4383  0.4182
13205TIP3   OH261029   4.847   5.073  12.370 -0.2124 -0.0535  0.2162
13205TIP3    H161030   4.934   5.041  12.392 -0.5774  0.3021  2.3641
13205TIP3    H261031   4.855   5.104  12.279  1.3705 -1.7375 -0.2787
13206TIP3   OH261032   4.248   4.303  16.514  0.2220 -0.1653  0.0194
13206TIP3    H161033   4.328   4.356  16.505  2.0422 -2.9471 -1.9879
13206TIP3    H261034   4.249   4.275  16.605  1.9064 -0.5438 -0.0674
13207TIP3   OH261035   4.833   2.738  12.488  0.4811  0.7199  0.0292
13207TIP3    H161036   4.807   2.794  12.415 -1.9343 -0.1212  0.1519
13207TIP3    H261037   4.787   2.655  12.472  3.9247 -1.3650 -0.1607
13208TIP3   OH261038   3.461   5.266   2.639  0.0372 -0.1997 -0.0949
13208TIP3    H161039   3.523   5.335   2.616  1.1034 -1.3470 -0.7655
13208TIP3    H261040   3.496   5.188   2.597  0.1449 -1.6667  2.5142
13209TIP3   OH261041   4.583   5.002  10.368 -0.2310 -0.2744  0.0161
13209TIP3    H161042   4.498   5.045  10.358  0.6517  1.0403 -2.5822
13209TIP3    H261043   4.637   5.037  10.297  2.5780 -0.9192  1.6633
13210TIP3   OH261044   5.447   3.734   2.719  0.2074  0.2256  0.3703
13210TIP3    H161045   5.507   3.709   2.789  0.3581 -0.1415  0.1095
13210TIP3    H261046   5.465   3.673   2.648  0.6155  1.0991 -0.2952
13211TIP3   OH261047   5.706   2.540  17.052  0.4026  0.4727  0.2589
13211TIP3    H161048   5.725   2.545  17.146  1.3033  0.6126  0.0778
13211TIP3    H261049   5.624   2.490  17.047  0.7730 -0.2520  1.0733
13212TIP3   OH261050   0.078   3.879  10.860 -0.2015 -0.5629 -0.0484
13212TIP3    H161051   0.016   3.914  10.796  0.2325  0.3767  0.0291
13212TIP3    H261052   0.041   3.904  10.945 -0.0474 -0.5570  0.0179
13213TIP3   OH261053   1.059   3.032   4.563  0.5609 -0.5686  0.2672
13213TIP3    H161054   1.111   3.032   4.644 -1.0651 -1.4092  1.3644
13213TIP3    H261055   1.068   2.943   4.529  0.2522 -0.5715  0.1904
13214TIP3   OH261056   4.302   4.391  14.566  0.4254 -0.2287 -0.0929
13214TIP3    H161057   4.291   4.396  14.471 -1.0041  0.2416  0.0762
13214TIP3    H261058   4.370   4.455  14.585  0.9350 -0.5342 -0.8199
13215TIP3   OH261059   3.103   5.398  14.330 -0.4349 -0.1934 -0.1586
13215TIP3    H161060   3.134   5.378  14.419 -1.4233  3.2335  1.0908
13215TIP3    H261061   3.180   5.432  14.285 -0.5474  0.7794  0.3574
13216TIP3   OH261062   1.088   6.784   4.014  0.9443 -0.1141  0.5155
13216TIP3    H161063   1.172   6.750   4.044  1.1468  1.2454  1.5954
13216TIP3    H261064   1.064   6.728   3.940  1.5138 -2.1943  1.8420
13217TIP3   OH261065   2.110   1.494   3.957 -0.3056  0.1665 -0.0262
13217TIP3    H161066   2.054   1.419   3.976  0.4572 -0.7330 -1.1760
13217TIP3    H261067   2.195   1.469   3.992  0.4075 -0.3262 -1.9626
13218TIP3   OH261068   6.771   1.164  13.197 -0.1255 -0.6628  0.1878
13218TIP3    H161069   6.722   1.247  13.193  1.1438  0.2322  2.0374
13218TIP3    H261070   6.708   1.102  13.234 -0.1775  0.2884  1.8133
13219TIP3   OH261071   2.781   0.676  14.392  0.6239 -0.1389 -0.1610
13219TIP3    H161072   2.718   0.732  14.347 -0.1460  0.2458  1.2987
13219TIP3    H261073   2.727   0.624  14.452  1.5435 -0.9626 -0.0357
13220TIP3   OH261074   2.807   1.340  10.934 -0.3472 -0.4077  0.4919
13220TIP3    H161075   2.773   1.398  10.866  2.4490 -0.4214 -1.0566
13220TIP3    H261076   2.824   1.397  11.009 -0.4710  0.2087  0.0531
13221TIP3   OH261077   3.906   6.078   6.075 -0.1494  0.0242  0.2868
13221TIP3    H161078   3.992   6.086   6.117 -0.0359  0.4882 -0.0240
13221TIP3    H261079   3.913   6.001   6.019 -0.5789 -1.1301  1.7566
13222TIP3   OH261080   1.714   6.477   2.418  0.1668  0.2386 -0.7334
13222TIP3    H161081   1.684   6.500   2.506 -0.5768  1.2576 -1.2423
13222TIP3    H261082   1.677   6.544   2.361  0.8685 -0.2490 -1.7987
13223TIP3   OH261083   3.909   4.239   0.597 -0.3085 -0.1101 -0.2057
13223TIP3    H161084   3.984   4.282   0.637  0.1790 -1.2580  0.1752
13223TIP3    H261085   3.841   4.242   0.664  1.0133 -3.4880  1.5579
13224TIP3   OH261086   0.956   3.934  15.803  0.6859  0.2957 -0.0382
13224TIP3    H161087   1.041   3.893  15.793  0.7754  0.8767 -2.0009
13224TIP3    H261088   0.904   3.902  15.729 -0.7922  0.0190  1.0684
13225TIP3   OH261089   6.171   5.533   2.914  0.3150  0.5853 -0.0888
13225TIP3    H161090   6.174   5.597   2.985 -1.7587  1.2385 -0.5053
13225TIP3    H261091   6.186   5.585   2.835  1.3466  0.0740 -0.2445
13226TIP3   OH261092   3.845   1.196  13.444  0.1362 -0.3917  0.4669
13226TIP3    H161093   3.795   1.169  13.521  0.1065 -0.1310  0.5399
13226TIP3    H261094   3.779   1.218  13.379  0.1189  1.2088  0.9880
13227TIP3   OH261095   5.270   5.795  16.818  0.6663 -0.2818  0.0007
13227TIP3    H161096   5.361   5.820  16.804 -0.0224  1.7766 -1.2143
13227TIP3    H261097   5.268   5.762  16.908  2.9771 -2.4527 -0.6158
13228TIP3   OH261098   1.082   3.880  11.902 -0.2734 -0.6325 -0.0239
13228TIP3    H161099   1.051   3.873  11.993 -1.1298  1.8683 -0.0376
13228TIP3    H261100   1.178   3.873  11.909 -0.1970  1.0576  1.3354
13229TIP3   OH261101   3.651   4.194   5.318 -0.5999 -0.4170  0.4663
13229TIP3    H161102   3.689   4.229   5.237  0.9959  1.3043  1.8629
13229TIP3    H261103   3.701   4.114   5.335  0.5404  0.3436  0.8121
13230TIP3   OH261104   4.715   1.453   1.595 -0.0271  0.5535 -0.2973
13230TIP3    H161105   4.698   1.513   1.522  0.2809 -1.2787 -1.9702
13230TIP3    H261106   4.722   1.367   1.554  1.8632 -0.3405  1.7109
13231TIP3   OH261107   5.696   5.673   3.876  0.0871  0.0127  0.5273
13231TIP3    H161108   5.634   5.624   3.822 -0.4382  0.8024  0.3859
13231TIP3    H261109   5.642   5.714   3.943  0.6803 -0.6138  1.3985
13232TIP3   OH261110   5.289   6.456  16.450 -0.4659  0.1282  0.2638
13232TIP3    H161111   5.216   6.463  16.511 -0.3602  1.5056  0.2733
13232TIP3    H261112   5.304   6.546  16.420  0.1113 -0.3701 -1.0483
13233TIP3   OH261113   1.318   1.324  12.210  0.1454 -0.0377 -0.4284
13233TIP3    H161114   1.398   1.377  12.218 -1.4195  2.2643  1.7192
13233TIP3    H261115   1.270   1.364  12.136 -1.5524  2.6022  1.8706
13234TIP3   OH261116   3.449   2.649  12.195 -0.0654  0.4018 -0.1805
13234TIP3    H161117   3.458   2.733  12.240  0.9482  0.3757 -0.3165
13234TIP3    H261118   3.417   2.589  12.263 -0.9046  0.9130 -0.1123
13235TIP3   OH261119   0.943   5.517   1.730 -0.2427 -0.0725 -0.6996
13235TIP3    H161120   1.025   5.564   1.711  1.1331 -1.3318  1.7051
13235TIP3    H261121   0.964   5.425   1.716 -1.5860 -0.3635 -0.9775
13236TIP3   OH261122   1.781   0.469   5.076 -0.7796  0.2263  0.5679
13236TIP3    H161123   1.724   0.503   5.007 -0.8013 -0.7900  0.0610
13236TIP3    H261124   1.726   0.467   5.154 -0.5202  2.1615  0.8457
13237TIP3   OH261125   6.726   4.517   2.310  0.4855  0.4096  0.0135
13237TIP3    H161126   6.779   4.526   2.390 -0.8796 -1.0485  1.1326
13237TIP3    H261127   6.790   4.501   2.241  1.5959 -0.1114  1.1191
13238TIP3   OH261128   0.264   4.356  15.628  0.1011  0.4299  0.1392
13238TIP3    H161129   0.194   4.399  15.579  0.1671  1.5852  1.0020
13238TIP3    H261130   0.307   4.427  15.675  1.3549 -0.3698  0.2457
13239TIP3   OH261131   3.939   3.121   1.834  0.1745  0.5462 -0.3553
13239TIP3    H161132   3.930   3.097   1.742  1.4355  1.0423 -0.6293
13239TIP3    H261133   3.926   3.040   1.882  0.2734  0.1284 -1.0206
13240TIP3   OH261134   3.931   5.710   1.682 -0.4648  0.5487  0.3089
13240TIP3    H161135   3.863   5.776   1.674 -2.4667 -1.5440 -1.1421
13240TIP3    H261136   3.997   5.751   1.738 -1.7539  3.5692 -0.1736
13241TIP3   OH261137   2.264   3.542  14.866  0.0791  0.1282 -0.3909
13241TIP3    H161138   2.236   3.450  14.863  0.1118 -0.1049  2.6506
13241TIP3    H261139   2.183   3.591  14.884  0.1971  0.6257 -1.1657
13242TIP3   OH261140   3.392   2.363   0.657  0.2147  0.1667  0.0467
13242TIP3    H161141   3.450   2.387   0.730  0.5751 -1.0995  0.2014
13242TIP3    H261142   3.323   2.312   0.698 -0.2286  0.4406 -0.3505
13243TIP3   OH261143   0.740   1.492   4.610 -0.2745  0.3001  0.4330
13243TIP3    H161144   0.799   1.562   4.584  0.3625  0.0575  1.1727
13243TIP3    H261145   0.655   1.518   4.575 -0.3342  2.1138  1.7959
13244TIP3   OH261146   3.049   6.761   4.977 -0.2209 -0.0956  0.0688
13244TIP3    H161147   2.963   6.740   4.939 -0.4293 -0.4036  0.6993
13244TIP3    H261148   3.098   6.679   4.971  0.0348  0.0841 -0.3028
13245TIP3   OH261149   6.248   3.493  11.646 -0.0986  0.0966 -0.1444
13245TIP3    H161150   6.272   3.495  11.739 -1.8518  0.5478  0.3326
13245TIP3    H261151   6.261   3.582  11.615  1.5056 -0.2766 -0.6490
13246TIP3   OH261152   3.578   5.010  12.714  0.2101  0.3032 -0.0834
13246TIP3    H161153   3.537   5.064  12.782 -1.2147 -0.6229 -0.1795
13246TIP3    H261154   3.671   5.010  12.737 -0.0385  1.1834  1.0327
13247TIP3   OH261155   2.604   3.739  14.891  0.1709  0.0472  0.7738
13247TIP3    H161156   2.627   3.814  14.836  1.6943 -0.1198  1.1380
13247TIP3    H261157   2.554   3.776  14.964 -0.6394  0.4524  0.0330
13248TIP3   OH261158   1.603   2.763   2.634  0.3921  0.1165  0.1470
13248TIP3    H161159   1.638   2.836   2.685 -0.6024 -0.1857  1.2972
13248TIP3    H261160   1.546   2.805   2.569  0.6096  0.4136  0.1426
13249TIP3   OH261161   1.999   0.080  11.123  0.4117 -0.7879 -0.1181
13249TIP3    H161162   1.969   0.020  11.191 -1.2362 -0.0431 -0.1542
13249TIP3    H261163   1.935   0.070  11.052  0.5043  0.5124 -0.3979
13250TIP3   OH261164   1.571   2.756  13.159  0.5539 -0.4329 -0.4307
13250TIP3    H161165   1.520   2.828  13.123  0.1817 -0.2741  0.3949
13250TIP3    H261166   1.652   2.797  13.189 -0.8067  0.2578  2.7387
13251TIP3   OH261167   2.624   0.735   5.585 -0.2305 -0.0911 -0.0554
13251TIP3    H161168   2.717   0.730   5.562  0.0581  0.9699  0.8051
13251TIP3    H261169   2.581   0.764   5.504  0.1431 -0.8162 -0.5237
13252TIP3   OH261170   2.603   1.827  11.898  0.5011 -0.2710  0.2911
13252TIP3    H161171   2.597   1.867  11.985 -0.6274 -0.0799  0.1454
13252TIP3    H261172   2.528   1.863  11.851  1.6669  0.4336 -1.1016
13253TIP3   OH261173   3.588   2.203   1.483  0.3531  0.0756 -0.6170
13253TIP3    H161174   3.541   2.285   1.468 -2.0415 -1.0147  0.3349
13253TIP3    H261175   3.681   2.227   1.481 -0.2202  2.4656 -2.0740
13254TIP3   OH261176   2.183   0.143  12.774  0.1469 -0.0158  0.3982
13254TIP3    H161177   2.177   0.167  12.681  0.9053 -0.4541  0.2277
13254TIP3    H261178   2.097   0.166  12.810 -0.1251  0.2465 -0.3888
13255TIP3   OH261179   6.006   0.614   5.546  0.5679  0.0498 -0.2177
13255TIP3    H161180   6.053   0.533   5.523  1.5050  1.0321 -1.9325
13255TIP3    H261181   5.946   0.587   5.615  1.4760 -1.9322 -0.1191
13256TIP3   OH261182   4.077   5.802   3.107  0.6498 -0.2252  0.0620
13256TIP3    H161183   4.100   5.873   3.168 -0.6766 -0.3870  0.7910
13256TIP3    H261184   4.137   5.814   3.033  0.7478  1.4032  0.3604
13257TIP3   OH261185   3.581   1.005  13.511 -0.3472  0.7297  0.0835
13257TIP3    H161186   3.488   1.025  13.499 -0.4356 -0.5526 -2.1573
13257TIP3    H261187   3.592   0.992  13.605 -3.1261 -1.8951  0.1927
13258TIP3   OH261188   0.882   4.667   1.907 -0.0722 -0.0690  0.2465
13258TIP3    H161189   0.898   4.574   1.922  1.9349  0.0629 -0.6980
13258TIP3    H261190   0.810   4.689   1.965 -1.0115 -2.3468  0.0362
13259TIP3   OH261191   3.054   0.456   0.033  0.6562 -0.3484 -0.1947
13259TIP3    H161192   3.011   0.444  -0.051  0.4801 -1.9054  0.0909
13259TIP3    H261193   3.146   0.433   0.017  0.5204 -1.1523  0.1415
13260TIP3   OH261194   5.156   6.331  13.685 -0.1862  0.4583  0.3139
13260TIP3    H161195   5.243   6.348  13.721  0.5573  0.0014 -1.1475
13260TIP3    H261196   5.148   6.393  13.612 -1.2951  0.8212  0.7348
13261TIP3   OH261197   4.545   0.231   4.976 -0.2261  0.3801 -0.0639
13261TIP3    H161198   4.556   0.145   5.016 -0.1708  0.0852 -0.6985
13261TIP3    H261199   4.630   0.251   4.938 -0.5134  0.2697 -0.7770
13262TIP3   OH261200   5.704   0.812  15.689  0.0791 -0.2406  0.7064
13262TIP3    H161201   5.744   0.891  15.726  0.1701 -0.1688  0.4558
13262TIP3    H261202   5.771   0.745  15.697  0.2328 -0.1322  0.3311
13263TIP3   OH261203   3.689   6.180   5.275 -0.0616  0.2201 -0.4944
13263TIP3    H161204   3.705   6.189   5.181  1.6205 -2.4239 -0.5631
13263TIP3    H261205   3.751   6.240   5.316 -1.0764  1.6859 -1.0249
13264TIP3   OH261206   3.807   6.045  15.629  0.2812  0.2855  0.2571
13264TIP3    H161207   3.851   6.062  15.545  0.8488 -2.7285 -0.1771
13264TIP3    H261208   3.874   6.002  15.682 -1.3537 -2.2386  0.4607
13265TIP3   OH261209   2.375   1.317  14.207 -0.2154  0.4981 -0.0075
13265TIP3    H161210   2.349   1.406  14.183  1.1945  1.1273  0.6857
13265TIP3    H261211   2.400   1.277  14.124 -1.3052  0.5776 -0.3898
13266TIP3   OH261212   5.031   0.073  16.441  0.7728 -0.1442  0.2796
13266TIP3    H161213   5.022   0.010  16.370 -1.7083  0.3393  0.0708
13266TIP3    H261214   5.024   0.020  16.521 -1.0680 -0.2219  0.1070
13267TIP3   OH261215   1.267   0.988  12.054 -0.0588 -0.7169 -0.1727
13267TIP3    H161216   1.197   1.046  12.081  1.4265  1.3644 -0.5791
13267TIP3    H261217   1.238   0.953  11.970 -1.5648 -1.6935  0.7092
13268TIP3   OH261218   3.966   4.086  16.358 -0.6880 -0.8705 -0.5632
13268TIP3    H161219   3.967   4.156  16.292  4.1556  0.1173  0.1399
13268TIP3    H261220   3.955   4.132  16.441  0.9281 -1.0486 -0.2174
13269TIP3   OH261221   5.190   0.346  15.704 -0.1018  0.4335  0.0516
13269TIP3    H161222   5.204   0.333  15.610 -1.9957 -0.5157 -0.1441
13269TIP3    H261223   5.235   0.273  15.746 -0.5878 -0.0360 -0.2369
13270TIP3   OH261224   1.588   3.294   5.333  0.0614  0.0488  0.1871
13270TIP3    H161225   1.684   3.290   5.331  0.0489 -0.5930 -2.4023
13270TIP3    H261226   1.567   3.383   5.305 -0.1429  0.2101  0.8173
13271TIP3   OH261227   0.885   0.809  16.414  0.2564 -0.0222  0.1883
13271TIP3    H161228   0.840   0.731  16.381 -0.6126  0.2914  0.6049
13271TIP3    H261229   0.841   0.829  16.496  0.7813  0.6425  0.3149
13272TIP3   OH261230   3.294   5.507  12.084  0.3775 -0.2816 -0.6279
13272TIP3    H161231   3.383   5.474  12.081  0.2120 -0.7509 -0.3979
13272TIP3    H261232   3.304   5.601  12.098  0.8400 -0.2786 -0.9382
13273TIP3   OH261233   3.022   2.590  16.180 -0.2980 -0.8295  0.1108
13273TIP3    H161234   3.053   2.632  16.260 -1.0323 -0.1663  0.0690
13273TIP3    H261235   3.091   2.606  16.116 -0.2718 -0.2355  0.2764
13274TIP3   OH261236   2.870   3.420  14.068  0.3364 -0.3167  0.2834
13274TIP3    H161237   2.838   3.426  13.978 -0.1748 -0.9917  0.4132
13274TIP3    H261238   2.812   3.477  14.119  1.7967  1.5954 -0.0937
13275TIP3   OH261239   6.433   6.446   3.417 -0.0594 -0.9010  0.2725
13275TIP3    H161240   6.423   6.541   3.420 -1.3629 -0.9966 -0.6144
13275TIP3    H261241   6.515   6.432   3.369 -0.5385 -0.2461 -0.7474
13276TIP3   OH261242   5.644   5.941  12.135  0.3499  0.4736  0.1235
13276TIP3    H161243   5.737   5.921  12.148  0.2502  0.9361  1.7913
13276TIP3    H261244   5.630   6.022  12.184 -1.0139  0.2090  0.2090
13277TIP3   OH261245   2.573   6.007   1.696 -0.7642  0.8674 -0.3874
13277TIP3    H161246   2.492   5.961   1.719 -0.8851  1.2625  0.0022
13277TIP3    H261247   2.557   6.098   1.723  0.0283  0.8282  0.2500
13278TIP3   OH261248   5.534   5.333  17.076  0.1104 -0.4167  0.4020
13278TIP3    H161249   5.544   5.302  17.166  1.6856 -1.8832 -0.2081
13278TIP3    H261250   5.440   5.327  17.058  0.0927 -3.0348  1.0085
13279TIP3   OH261251   1.036   1.474   5.269 -0.8160 -0.4408 -0.4833
13279TIP3    H161252   1.107   1.536   5.251  0.9743 -1.8914  1.0350
13279TIP3    H261253   1.016   1.434   5.184  0.9617 -0.7319 -0.8014
13280TIP3   OH261254   1.959   4.370  16.685 -0.5238 -0.2371  0.8427
13280TIP3    H161255   1.909   4.335  16.611 -0.9393 -0.8484  1.3961
13280TIP3    H261256   1.978   4.461  16.662 -2.4708  0.2237  0.8963
13281TIP3   OH261257   5.193   5.354   5.753 -0.2274 -0.8076  0.3549
13281TIP3    H161258   5.195   5.440   5.796  1.9321  0.0154 -1.1663
13281TIP3    H261259   5.277   5.314   5.778 -0.5965 -1.8725 -0.0897
13282TIP3   OH261260   5.415   6.677  11.593  0.3322  0.2247  0.2049
13282TIP3    H161261   5.413   6.666  11.689 -0.1815 -0.3819  0.1312
13282TIP3    H261262   5.372   6.598  11.559 -2.3910  1.8446 -0.4153
13283TIP3   OH261263   4.242   0.455  14.459 -0.0260  0.4904  0.2912
13283TIP3    H161264   4.309   0.471  14.392 -0.8340  0.8564 -0.4417
13283TIP3    H261265   4.289   0.406  14.527  0.5922 -0.8045 -0.9941
13284TIP3   OH261266   0.555   1.918  13.877 -0.7818 -0.0156 -0.1051
13284TIP3    H161267   0.478   1.903  13.933 -0.5270 -0.1053  0.2253
13284TIP3    H261268   0.535   1.871  13.796  0.1368 -2.5815  1.0300
13285TIP3   OH261269   4.483   0.590   3.706 -0.1930  0.0317  0.2253
13285TIP3    H161270   4.454   0.546   3.626  0.1851 -0.4994  0.3813
13285TIP3    H261271   4.536   0.663   3.674 -0.4856  0.1394 -0.0214
13286TIP3   OH261272   1.849   0.583  16.003 -0.1826 -0.2424  0.2984
13286TIP3    H161273   1.832   0.545  15.916 -0.2639 -0.0920  0.2495
13286TIP3    H261274   1.796   0.531  16.063  0.0258 -0.4759  0.2854
13287TIP3   OH261275   5.992   2.369   0.523  0.1294 -0.5661 -0.1990
13287TIP3    H161276   6.017   2.437   0.585 -2.5613  0.8786 -0.5685
13287TIP3    H261277   6.052   2.381   0.450 -0.4534  1.7165 -0.3992
13288TIP3   OH261278   3.569   4.382   1.055  0.0330  0.0946 -0.2148
13288TIP3    H161279   3.535   4.339   1.133  1.5156 -1.2609 -0.2575
13288TIP3    H261280   3.631   4.319   1.018 -0.5162  0.7473 -2.4223
13289TIP3   OH261281   6.456   2.194  10.893  0.3059  0.5513  0.3179
13289TIP3    H161282   6.388   2.261  10.897 -0.8540 -0.0293 -4.2582
13289TIP3    H261283   6.409   2.111  10.895  1.2506  0.0100  0.8598
13290TIP3   OH261284   6.428   0.148   1.854 -0.2753 -0.1409  0.5413
13290TIP3    H161285   6.499   0.193   1.808 -1.5162  0.9621 -0.3946
13290TIP3    H261286   6.383   0.218   1.902  0.7167 -1.1945  3.1996
13291TIP3   OH261287   6.049   1.377  14.896 -0.2136  0.8597 -0.4103
13291TIP3    H161288   6.105   1.303  14.919 -1.3608  0.0224 -0.1874
13291TIP3    H261289   6.043   1.374  14.800  1.6531  2.1367 -0.5974
13292TIP3   OH261290   0.903   0.534  15.149  0.2473 -0.4018 -0.2775
13292TIP3    H161291   0.813   0.524  15.181  0.9403 -0.0155  2.0195
13292TIP3    H261292   0.928   0.446  15.120 -0.7945 -0.5510 -0.7719
13293TIP3   OH261293   1.644   6.104  14.503 -0.0377  0.1816  0.2307
13293TIP3    H161294   1.725   6.093  14.452 -0.4152 -1.4353 -0.0954
13293TIP3    H261295   1.575   6.109  14.436 -0.2175  1.7842  0.4994
13294TIP3   OH261296   3.193   0.955  12.724 -0.3718  0.0245  0.0753
13294TIP3    H161297   3.190   1.005  12.806  2.6747  2.1221 -0.9265
13294TIP3    H261298   3.271   0.899  12.733 -0.4654 -0.3212 -1.0662
13295TIP3   OH261299   1.958   1.012   0.469 -0.0963  0.4356  0.5149
13295TIP3    H161300   1.940   0.918   0.478  0.9898  0.3140  1.6463
13295TIP3    H261301   1.936   1.049   0.554 -1.7038  1.4559 -0.2881
13296TIP3   OH261302   3.703   4.553  14.969  0.6668  0.1921  0.3370
13296TIP3    H161303   3.738   4.471  14.935 -1.0727 -0.1970 -0.6252
13296TIP3    H261304   3.671   4.599  14.892 -1.7795  0.0776  1.1947
13297TIP3   OH261305   6.003   0.321   5.362  0.1683 -0.4128 -0.0296
13297TIP3    H161306   6.026   0.301   5.453  0.1523 -0.4098 -0.0246
13297TIP3    H261307   6.061   0.266   5.310  0.9367  0.3663 -0.0354
13298TIP3   OH261308   5.110   6.145  10.994 -0.2323 -0.0422  0.0651
13298TIP3    H161309   5.160   6.221  10.964 -2.0101  0.9963 -0.4424
13298TIP3    H261310   5.022   6.158  10.957 -0.7682 -2.0192  0.5172
13299TIP3   OH261311   5.545   1.627  14.587  0.1890 -0.6846  0.0746
13299TIP3    H161312   5.519   1.600  14.499  1.7200 -1.3342 -0.2206
13299TIP3    H261313   5.639   1.606  14.591 -0.2058 -2.3740  2.4671
13300TIP3   OH261314   1.375   5.168   1.010  0.1930 -0.1323 -0.0405
13300TIP3    H161315   1.371   5.217   0.927 -0.5905 -1.1444 -0.6101
13300TIP3    H261316   1.397   5.079   0.984  3.2895  0.1735  1.1158
13301TIP3   OH261317   6.773   2.367  14.230  0.1074  0.2115 -0.1455
13301TIP3    H161318   6.726   2.449  14.216 -1.0408 -0.3635  0.1631
13301TIP3    H261319   6.738   2.334  14.314 -0.2939 -1.1225 -0.8114
13302TIP3   OH261320   2.601   2.063   1.492  0.5341 -0.7246 -0.3681
13302TIP3    H161321   2.619   2.064   1.586  0.8780  0.4699 -0.4323
13302TIP3    H261322   2.651   1.988   1.459 -0.1178 -1.5635  0.4776
13303TIP3   OH261323   3.688   1.667  11.253 -0.3011  0.3740  0.3947
13303TIP3    H161324   3.658   1.713  11.175  0.3332  1.8865  1.0064
13303TIP3    H261325   3.669   1.575  11.235 -2.7683  0.9468 -0.3774
13304TIP3   OH261326   6.515   0.934   4.107 -0.2132 -0.3696 -0.3301
13304TIP3    H161327   6.430   0.937   4.152 -0.4178 -0.7771 -0.6792
13304TIP3    H261328   6.561   0.861   4.147  1.1915  1.6154  1.9427
13305TIP3   OH261329   2.194   5.845  13.984  0.2252  1.0692  0.3849
13305TIP3    H161330   2.284   5.813  13.994  0.3441  0.7398 -1.4831
13305TIP3    H261331   2.148   5.775  13.938 -1.1797  0.9883  1.8365
13306TIP3   OH261332   2.002   1.500  15.973 -0.5150  0.7132 -0.0257
13306TIP3    H161333   2.038   1.587  15.991 -0.1870  0.7174 -0.6704
13306TIP3    H261334   2.078   1.444  15.959 -0.7359  0.7751 -1.6428
13307TIP3   OH261335   1.003   0.897  14.634 -0.3249 -0.1999  0.0579
13307TIP3    H161336   1.056   0.845  14.574 -0.2698  1.3001 -1.2843
13307TIP3    H261337   0.961   0.833  14.691  0.1590 -1.6648 -1.1525
13308TIP3   OH261338   2.814   4.358   2.619 -0.1048  0.3962 -0.1637
13308TIP3    H161339   2.837   4.341   2.711  3.7553  0.2212 -0.9877
13308TIP3    H261340   2.769   4.278   2.591 -1.0604  0.3158  1.4461
13309TIP3   OH261341   4.192   3.933   3.675 -0.1589  0.5127 -0.2286
13309TIP3    H161342   4.115   3.919   3.620 -0.5278 -0.2783  0.4600
13309TIP3    H261343   4.218   4.023   3.658  0.0624  0.1399 -2.0907
13310TIP3   OH261344   4.472   2.881   4.900  0.5637 -0.0084  0.6251
13310TIP3    H161345   4.399   2.940   4.917  1.3345  1.1140  0.1305
13310TIP3    H261346   4.459   2.850   4.810  0.3595 -0.3220  0.7590
13311TIP3   OH261347   3.477   3.086   0.802 -0.3605 -0.2953 -0.4015
13311TIP3    H161348   3.464   2.992   0.816  4.0398 -1.1345 -0.6279
13311TIP3    H261349   3.430   3.104   0.721 -1.6766 -2.1632 -0.1342
13312TIP3   OH261350   3.493   1.312   2.192 -0.5732  0.0292  0.3736
13312TIP3    H161351   3.533   1.292   2.277  0.7117  1.2312  0.0781
13312TIP3    H261352   3.482   1.407   2.191 -1.7510 -0.0835 -0.3201
13313TIP3   OH261353   2.606   5.875  14.998 -0.8264  0.0276 -0.3519
13313TIP3    H161354   2.567   5.962  15.012 -0.1487  0.7153 -2.3065
13313TIP3    H261355   2.582   5.853  14.907  0.3337 -1.1207 -0.4040
13314TIP3   OH261356   3.588   5.131   3.748  0.9115  0.7970 -0.2849
13314TIP3    H161357   3.594   5.037   3.731 -0.0191  0.4546  1.0907
13314TIP3    H261358   3.658   5.169   3.695  2.0158 -0.7848 -0.0527
13315TIP3   OH261359   3.744   5.510   5.048 -0.2243  0.0517  0.0702
13315TIP3    H161360   3.668   5.452   5.040 -0.8495  0.7919  0.4893
13315TIP3    H261361   3.724   5.585   4.992  0.9227 -0.4595 -1.0765
13316TIP3   OH261362   0.963   5.284  15.893 -0.2754  0.2365  0.4000
13316TIP3    H161363   0.940   5.369  15.930 -1.2893 -0.1568  0.7110
13316TIP3    H261364   0.915   5.281  15.810  1.9275  1.0896 -0.9806
13317TIP3   OH261365   1.511   2.610  14.355 -0.5835  0.0192  0.3705
13317TIP3    H161366   1.452   2.644  14.288  0.7970  1.0187 -0.3874
13317TIP3    H261367   1.499   2.515  14.352 -2.9578  0.2406  1.0417
13318TIP3   OH261368   1.183   5.974  17.038  0.1332 -0.9432  0.1261
13318TIP3    H161369   1.106   5.974  17.094  0.7535 -2.1553  1.0449
13318TIP3    H261370   1.188   6.063  17.003 -1.6846 -0.8644  0.0160
13319TIP3   OH261371   6.376   0.228   4.890  0.6254 -0.3040 -0.0673
13319TIP3    H161372   6.299   0.197   4.937 -0.1063  2.2898  0.6058
13319TIP3    H261373   6.372   0.182   4.806 -2.5745  0.7959 -0.6815
13320TIP3   OH261374   2.545   3.080  13.972 -0.5224  0.0018  0.0509
13320TIP3    H161375   2.615   3.125  14.019 -1.4570 -0.6455  2.1989
13320TIP3    H261376   2.468   3.136  13.984 -0.9631 -0.5821 -0.0113
13321TIP3   OH261377   1.175   2.170   2.044 -0.5079 -0.3488 -0.3374
13321TIP3    H161378   1.215   2.141   2.126 -0.6107 -2.0764 -0.8742
13321TIP3    H261379   1.210   2.110   1.978 -1.1514  0.4360 -1.4185
13322TIP3   OH261380   4.612   5.368  13.180 -0.2447 -0.1482  0.1339
13322TIP3    H161381   4.647   5.320  13.254  0.9177 -0.3679 -0.5236
13322TIP3    H261382   4.583   5.452  13.216 -0.6391 -0.6465  0.9871
13323TIP3   OH261383   3.606   0.598   2.663  0.2374 -1.2080  0.6858
13323TIP3    H161384   3.555   0.528   2.622  0.8789 -0.8939 -0.7311
13323TIP3    H261385   3.689   0.557   2.687  1.4463 -0.5626 -2.0330
13324TIP3   OH261386   5.708   3.891  11.103  0.0174 -0.5672  0.2090
13324TIP3    H161387   5.785   3.858  11.056  1.5120  1.4367  1.1071
13324TIP3    H261388   5.745   3.943  11.174 -2.1791 -1.8980  2.4573
13325TIP3   OH261389   1.253   6.195  13.037  0.5435 -0.1403 -0.2523
13325TIP3    H161390   1.331   6.204  13.092  0.4819 -0.6480 -0.0827
13325TIP3    H261391   1.180   6.194  13.099  0.2125  2.2762 -0.4793
13326TIP3   OH261392   0.718   4.530  17.015 -0.0635 -0.0556  0.9102
13326TIP3    H161393   0.800   4.579  17.006 -0.2529 -0.0480 -1.2420
13326TIP3    H261394   0.656   4.577  16.959 -1.3281 -0.5626  1.8343
13327TIP3   OH261395   3.793   5.264   3.976  0.7513 -0.0808  0.0521
13327TIP3    H161396   3.768   5.172   3.962  0.4738  0.0252 -0.1503
13327TIP3    H261397   3.874   5.274   3.926  0.4131 -0.0323 -0.4908
13328TIP3   OH261398   0.212   4.348  15.247 -0.1558 -0.4563 -0.1651
13328TIP3    H161399   0.234   4.255  15.253 -0.5548 -0.5296  0.1452
13328TIP3    H261400   0.142   4.361  15.311 -0.4610 -0.0501 -0.5798
13329TIP3   OH261401   2.815   1.325   3.135  0.1403 -0.0056  0.0532
13329TIP3    H161402   2.873   1.263   3.178 -0.1137  0.6628  1.4179
13329TIP3    H261403   2.802   1.289   3.047  0.0230 -1.8605  0.7813
13330TIP3   OH261404   6.314   5.648  11.359  0.0123  0.1275  0.0027
13330TIP3    H161405   6.299   5.671  11.267  0.4199 -0.3211 -0.1858
13330TIP3    H261406   6.348   5.558  11.355 -0.2076  0.0155  0.6115
13331TIP3   OH261407   4.718   0.686  15.233  0.0103 -0.1141 -0.2313
13331TIP3    H161408   4.734   0.707  15.325  2.0422 -0.4594 -0.4581
13331TIP3    H261409   4.661   0.757  15.203  1.2905  1.3982  0.7022
13332TIP3   OH261410   5.461   3.126   3.911 -0.1218 -0.1414 -0.4245
13332TIP3    H161411   5.426   3.158   3.994  0.4435  1.4310 -0.7553
13332TIP3    H261412   5.422   3.183   3.845 -1.9411 -2.4561 -1.4882
13333TIP3   OH261413   1.370   1.786  15.023 -0.2339 -0.9717 -0.6966
13333TIP3    H161414   1.451   1.836  15.012  1.2157 -2.8641  0.7057
13333TIP3    H261415   1.300   1.852  15.018  1.4084  0.8188 -1.2180
13334TIP3   OH261416   3.978   3.357   0.201 -0.1567 -0.2870 -0.1231
13334TIP3    H161417   4.057   3.305   0.190 -0.8946 -1.0224 -2.5415
13334TIP3    H261418   3.919   3.302   0.254  1.1092  0.5635  2.3318
13335TIP3   OH261419   1.544   6.639  13.089  0.3134 -0.8126  0.0705
13335TIP3    H161420   1.470   6.592  13.051 -0.0518  0.6796 -1.1828
13335TIP3    H261421   1.532   6.730  13.060  2.6313 -0.5228 -0.1737
13336TIP3   OH261422   1.901   1.787   3.353  0.4107  0.5848  0.2502
13336TIP3    H161423   1.936   1.737   3.427  0.1680  1.3280  0.8755
13336TIP3    H261424   1.930   1.739   3.276  0.6810 -0.1958  0.8265
13337TIP3   OH261425   5.610   5.279   2.001 -0.3025  0.2665  0.2103
13337TIP3    H161426   5.688   5.233   2.031  0.6782  2.3872  1.1531
13337TIP3    H261427   5.599   5.252   1.910  1.4680 -0.1926  0.0950
13338TIP3   OH261428   4.708   6.338   5.662  0.4461  0.4257 -0.4427
13338TIP3    H161429   4.777   6.388   5.708 -0.5124  0.2180  1.3065
13338TIP3    H261430   4.738   6.248   5.666  0.2486  0.3764  0.0262
13339TIP3   OH261431   3.180   0.721   4.880 -0.3264  0.0142 -0.1121
13339TIP3    H161432   3.267   0.752   4.906 -0.0293 -0.8986 -0.0010
13339TIP3    H261433   3.131   0.714   4.962 -0.5989  0.7656 -0.1976
13340TIP3   OH261434   5.999   2.179  11.476  0.3245  0.4229  0.3941
13340TIP3    H161435   6.003   2.188  11.571  1.2985 -2.8691  0.7946
13340TIP3    H261436   5.906   2.167  11.457  0.1034  1.2776  0.8792
13341TIP3   OH261437   6.707   3.541  16.000  0.0479  0.0845  0.2898
13341TIP3    H161438   6.761   3.583  15.933 -0.0427 -1.3125 -0.7105
13341TIP3    H261439   6.759   3.545  16.080  1.6667 -1.2358 -0.6512
13342TIP3   OH261440   4.114   5.743  10.588  0.2419  0.2687  0.4004
13342TIP3    H161441   4.115   5.647  10.590  1.9119  0.2412 -0.6641
13342TIP3    H261442   4.194   5.767  10.543 -1.4201  2.1193 -1.7712
13343TIP3   OH261443   1.302   4.074  16.101  0.0693 -0.5247 -0.3853
13343TIP3    H161444   1.363   4.112  16.165  0.9770 -1.6949 -0.5126
13343TIP3    H261445   1.330   4.112  16.018  0.0357 -0.3602 -0.3212
13344TIP3   OH261446   1.856   3.115   0.366 -0.2091  0.4154 -0.3468
13344TIP3    H161447   1.784   3.087   0.309 -0.7122  0.2156  0.3731
13344TIP3    H261448   1.893   3.033   0.399  0.8146  0.4832 -1.2462
13345TIP3   OH261449   1.499   0.614  14.593 -0.2504  0.1773  0.3983
13345TIP3    H161450   1.476   0.701  14.627  0.2323 -0.1307  1.5581
13345TIP3    H261451   1.541   0.632  14.509 -1.9788  0.9209 -0.3528
13346TIP3   OH261452   3.137   6.046   5.595  0.2933  0.0889  0.2630
13346TIP3    H161453   3.089   6.128   5.580  1.7428  1.1889  1.2402
13346TIP3    H261454   3.167   6.053   5.686  0.7974 -1.3609  0.2320
13347TIP3   OH261455   4.542   1.385  13.896  0.4365 -0.3158  0.2952
13347TIP3    H161456   4.479   1.323  13.931 -0.9065  0.5491 -0.5179
13347TIP3    H261457   4.608   1.394  13.965  0.7148 -2.6302  0.4319
13348TIP3   OH261458   5.846   3.119  12.038 -0.5235  0.0018  0.2418
13348TIP3    H161459   5.759   3.085  12.019 -0.1008 -0.3689 -1.1217
13348TIP3    H261460   5.862   3.184  11.970  0.2206  0.1385  0.5411
13349TIP3   OH261461   3.971   3.706  16.234  0.7689  0.9426 -0.2010
13349TIP3    H161462   3.991   3.737  16.146  0.2286  2.5770  0.2090
13349TIP3    H261463   4.040   3.745  16.289  1.7352 -0.9368 -0.0131
13350TIP3   OH261464   4.264   4.799  13.598  0.3309 -0.2180 -0.2551
13350TIP3    H161465   4.182   4.754  13.576  0.4838 -0.3672 -0.5195
13350TIP3    H261466   4.331   4.731  13.591  0.1445 -0.9151  2.8468
13351TIP3   OH261467   3.861   0.605   3.562  0.1432  0.0070  0.1036
13351TIP3    H161468   3.824   0.573   3.645  0.1626 -0.1715  0.0440
13351TIP3    H261469   3.909   0.530   3.527 -0.2625 -0.0648 -0.3054
13352TIP3   OH261470   2.799   1.336  13.984  0.8917 -0.3878 -0.7555
13352TIP3    H161471   2.748   1.361  13.907  0.0744  2.0214  0.4617
13352TIP3    H261472   2.863   1.406  13.994  2.5446 -1.8611 -0.5195
13353TIP3   OH261473   4.324   2.514  13.818  0.1246 -0.1105 -0.2899
13353TIP3    H161474   4.415   2.495  13.840 -0.2507 -0.4262  1.0709
13353TIP3    H261475   4.329   2.578  13.747  1.4285 -3.2340 -3.3066
13354TIP3   OH261476   0.293   6.498   1.251 -0.2477 -0.3371 -0.1196
13354TIP3    H161477   0.318   6.547   1.329  0.6676 -2.1085  0.7471
13354TIP3    H261478   0.372   6.452   1.224 -0.8645 -0.7252 -1.3807
13355TIP3   OH261479   3.344   1.114  11.996 -0.1593 -0.2195 -0.1187
13355TIP3    H161480   3.422   1.059  11.995 -0.2419 -0.4094  1.1443
13355TIP3    H261481   3.293   1.086  11.921  0.6919 -0.5316 -0.5933
13356TIP3   OH261482   5.977   5.479   5.442 -0.2576 -0.5730 -0.2482
13356TIP3    H161483   5.984   5.533   5.521  1.6378  2.3113 -2.1688
13356TIP3    H261484   6.058   5.427   5.440 -0.8061 -1.4605  0.2184
13357TIP3   OH261485   3.891   5.777  16.860  0.1125 -0.2536 -0.6205
13357TIP3    H161486   3.902   5.702  16.801 -2.3573 -0.9296 -0.3174
13357TIP3    H261487   3.845   5.843  16.808 -3.8560 -1.5573  0.8440
13358TIP3   OH261488   4.530   0.627  10.531  0.2218  0.1586 -0.3605
13358TIP3    H161489   4.501   0.641  10.621  0.4904  1.6751 -0.4907
13358TIP3    H261490   4.450   0.614  10.481 -0.0661  1.3186 -0.2212
13359TIP3   OH261491   1.598   1.010  11.132  0.3025 -0.2559  0.3167
13359TIP3    H161492   1.604   1.085  11.072  1.7688  0.0817  0.8440
13359TIP3    H261493   1.514   0.969  11.111 -0.1300  1.0292 -0.5798
13360TIP3   OH261494   3.114   5.628  11.293  0.4741 -0.1749 -0.3044
13360TIP3    H161495   3.081   5.650  11.206 -0.0612 -0.3109 -0.1339
13360TIP3    H261496   3.048   5.572  11.331 -0.3549  1.5983  1.0313
13361TIP3   OH261497   3.990   5.067  16.069 -0.3048  0.4043 -0.2212
13361TIP3    H161498   4.044   5.141  16.098 -0.0607  0.0108  0.3560
13361TIP3    H261499   4.025   5.045  15.982  0.0102  0.5928 -0.1452
13362TIP3   OH261500   3.330   1.903   2.390  0.2714  0.0014  0.1708
13362TIP3    H161501   3.247   1.903   2.437 -0.3788  1.0456 -0.9287
13362TIP3    H261502   3.375   1.982   2.421  1.1304 -0.8621  1.1921
13363TIP3   OH261503   5.975   3.415  12.059 -0.1827  0.2222  0.4770
13363TIP3    H161504   5.990   3.505  12.029  0.6596 -0.8561 -2.7695
13363TIP3    H261505   5.885   3.416  12.094 -0.5729  2.1029 -0.4334
13364TIP3   OH261506   2.707   0.145  12.708 -0.2538 -0.0438 -0.0779
13364TIP3    H161507   2.678   0.216  12.766 -1.4639 -0.0840 -0.6238
13364TIP3    H261508   2.721   0.187  12.623  0.0416 -0.2763 -0.1479
13365TIP3   OH261509   6.521   3.947   1.107 -0.2126 -0.2968  0.0813
13365TIP3    H161510   6.428   3.924   1.111 -0.2137 -1.0368 -2.4770
13365TIP3    H261511   6.522   4.042   1.116 -1.1526 -0.3300  0.7359
13366TIP3   OH261512   3.211   1.517   1.522 -0.0279  0.3879 -0.0358
13366TIP3    H161513   3.178   1.442   1.474 -0.4213  0.3604  0.2777
13366TIP3    H261514   3.173   1.593   1.478 -1.7824  0.3096  1.2555
13367TIP3   OH261515   3.621   6.517  16.000  0.2513 -0.3395 -0.0613
13367TIP3    H161516   3.638   6.609  16.020  0.4064  0.2843 -2.7784
13367TIP3    H261517   3.708   6.477  15.997  0.1292 -1.1679  3.1338
13368TIP3   OH261518   5.321   4.393  13.878 -0.4593 -0.4579  0.1280
13368TIP3    H161519   5.346   4.396  13.785  1.4035 -1.9212  0.5278
13368TIP3    H261520   5.307   4.484  13.902  1.2282  0.1670 -1.0567
13369TIP3   OH261521   2.275   6.484   3.684  0.2697 -0.0815 -0.1762
13369TIP3    H161522   2.284   6.575   3.654 -0.6402  0.2589  0.5349
13369TIP3    H261523   2.181   6.465   3.675  0.3289 -0.6906  0.4147
13370TIP3   OH261524   2.717   0.829   1.227  0.4796 -0.3131  0.1330
13370TIP3    H161525   2.759   0.879   1.156 -1.0852 -2.1228 -2.2466
13370TIP3    H261526   2.647   0.886   1.258 -0.2698 -0.3285 -1.4300
13371TIP3   OH261527   2.423   5.714   5.015  0.2743  0.0495 -0.1886
13371TIP3    H161528   2.332   5.709   4.986  0.5548  1.5132 -1.5018
13371TIP3    H261529   2.471   5.740   4.936  1.4386  1.8936  1.0445
13372TIP3   OH261530   1.933   2.048  13.755 -0.2117  0.1489 -0.0528
13372TIP3    H161531   1.843   2.073  13.736  0.0865  1.1370 -0.2042
13372TIP3    H261532   1.925   1.975  13.817 -1.1052  0.6185  0.4001
13373TIP3   OH261533   6.604   0.222   0.891 -0.1192 -0.4305 -0.1048
13373TIP3    H161534   6.647   0.140   0.867 -0.0621 -0.3480 -0.2849
13373TIP3    H261535   6.613   0.227   0.986  1.6216  0.3456 -0.2823
13374TIP3   OH261536   4.874   1.708   3.665  0.0776  0.2485  0.0865
13374TIP3    H161537   4.858   1.658   3.584  1.1467 -0.0684  0.0597
13374TIP3    H261538   4.866   1.643   3.735 -1.0959  0.5701  0.2868
13375TIP3   OH261539   0.087   1.302   0.422 -0.8127  0.1150 -0.7193
13375TIP3    H161540   0.176   1.284   0.393 -0.5233  1.6403 -0.8747
13375TIP3    H261541   0.037   1.224   0.396  0.7343 -1.4415  0.7374
13376TIP3   OH261542   1.345   0.153  12.102 -0.1444 -0.0030  0.7653
13376TIP3    H161543   1.410   0.084  12.114  1.0986  0.7572 -1.1348
13376TIP3    H261544   1.346   0.201  12.185  1.6512 -0.0981  0.8434
13377TIP3   OH261545   2.460   3.201   0.051 -0.1783 -0.4447  0.4198
13377TIP3    H161546   2.379   3.237   0.015 -0.4348 -0.3058  1.1211
13377TIP3    H261547   2.441   3.186   0.144  1.5190  2.4045  1.3456
13378TIP3   OH261548   0.840   5.669  14.183  0.4948  0.3139 -0.4181
13378TIP3    H161549   0.845   5.764  14.184  1.9723  0.2623 -0.2478
13378TIP3    H261550   0.751   5.649  14.153  0.6473  1.7277 -1.8912
13379TIP3   OH261551   4.545   6.044  13.653 -0.2412  0.1230  0.3953
13379TIP3    H161552   4.469   6.012  13.604  0.4157 -2.4424  0.9003
13379TIP3    H261553   4.621   6.015  13.601  0.4274 -0.0801  1.4582
13380TIP3   OH261554   5.646   1.263  10.601 -0.5989 -0.5201 -0.4203
13380TIP3    H161555   5.557   1.235  10.579 -0.5368 -0.1856 -1.1130
13380TIP3    H261556   5.640   1.358  10.612 -0.5458 -0.6283  0.6353
13381TIP3   OH261557   5.797   6.296   0.631  0.7825 -0.1374 -0.0633
13381TIP3    H161558   5.756   6.294   0.717  2.1521  0.3624  0.6160
13381TIP3    H261559   5.773   6.381   0.595  0.1619 -0.3698 -0.2161
13382TIP3   OH261560   4.278   2.792   0.874 -0.6048  0.3135 -0.1086
13382TIP3    H161561   4.235   2.843   0.943 -0.0075  0.5930  0.0582
13382TIP3    H261562   4.340   2.852   0.833 -0.0353 -0.2123 -0.0386
13383TIP3   OH261563   2.880   1.262   2.321 -0.2477  0.1618  0.1720
13383TIP3    H161564   2.890   1.187   2.262 -1.0422 -0.7318  1.1313
13383TIP3    H261565   2.889   1.225   2.409  2.0949  1.6566  0.6379
13384TIP3   OH261566   0.334   2.222   5.582 -0.9558 -0.3087 -0.0548
13384TIP3    H161567   0.378   2.198   5.664  0.4950  0.6563 -0.5066
13384TIP3    H261568   0.326   2.139   5.534  1.0776 -0.4405 -0.2566
13385TIP3   OH261569   3.915   0.661  16.906 -0.1375  0.7191 -0.5524
13385TIP3    H161570   3.890   0.713  16.831  1.1256  2.6794  0.3006
13385TIP3    H261571   4.005   0.689  16.926  0.5262 -1.6291  0.1133
13386TIP3   OH261572   1.147   5.965   1.325 -0.5775  0.4554 -0.3196
13386TIP3    H161573   1.077   5.941   1.264 -0.8748 -2.2231  0.9034
13386TIP3    H261574   1.129   5.911   1.403  2.3211  0.3547  0.3731
13387TIP3   OH261575   5.637   2.421  11.256  0.5950  0.4003 -0.1622
13387TIP3    H161576   5.706   2.482  11.281  0.7074  0.9210 -1.6305
13387TIP3    H261577   5.599   2.459  11.176 -0.8466 -0.2921  0.1467
13388TIP3   OH261578   2.668   2.001  15.423 -0.2064 -0.6251  0.0393
13388TIP3    H161579   2.597   2.064  15.407 -0.1737 -0.5517  0.1749
13388TIP3    H261580   2.680   1.957  15.339 -2.1412 -2.4387  0.6268
13389TIP3   OH261581   1.380   2.007  12.420 -0.1186 -0.3251  0.3941
13389TIP3    H161582   1.417   2.052  12.496 -1.6489 -2.3736  2.4830
13389TIP3    H261583   1.339   1.929  12.456 -0.6976 -1.5425 -2.6179
13390TIP3   OH261584   1.137   2.678   2.470 -0.2779 -1.0597  0.0912
13390TIP3    H161585   1.220   2.725   2.475 -0.7019 -0.4142  1.7514
13390TIP3    H261586   1.141   2.615   2.542 -1.3484 -0.8237  0.3666
13391TIP3   OH261587   2.210   1.856   4.188 -0.3333 -0.4722 -0.0774
13391TIP3    H161588   2.210   1.873   4.094 -1.2816  2.3546  0.3319
13391TIP3    H261589   2.126   1.815   4.205 -1.8677  2.4070 -0.0815
13392TIP3   OH261590   3.661   4.632  12.064 -0.3989 -0.0186 -0.2395
13392TIP3    H161591   3.615   4.566  12.012 -1.7951 -0.0172  0.9383
13392TIP3    H261592   3.740   4.587  12.094  0.8074  0.1849 -2.8239
13393TIP3   OH261593   2.756   6.048  11.472  0.1076 -0.0465  0.0095
13393TIP3    H161594   2.806   5.970  11.497 -1.0189 -0.8930 -0.2696
13393TIP3    H261595   2.719   6.080  11.555  1.2138  0.6758  0.2397
13394TIP3   OH261596   3.045   4.699  16.324  0.4050 -0.8599  0.4907
13394TIP3    H161597   3.101   4.633  16.283  1.1075  0.6573 -1.0885
13394TIP3    H261598   2.956   4.668  16.306  0.7014 -0.5943 -1.6427
13395TIP3   OH261599   0.202   5.049   2.655 -0.0505 -0.7352 -0.6462
13395TIP3    H161600   0.180   5.088   2.740 -2.0432 -2.8834 -0.0750
13395TIP3    H261601   0.119   5.047   2.607  1.0353  0.4305 -2.7202
13396TIP3   OH261602   1.735   4.450  16.847  1.0081  0.3893  0.4151
13396TIP3    H161603   1.808   4.388  16.841  0.0870 -0.9229  1.8378
13396TIP3    H261604   1.676   4.425  16.775  1.9452  1.4997 -0.7834
13397TIP3   OH261605   6.036   4.335  13.149 -0.0006 -0.3904  0.5516
13397TIP3    H161606   6.000   4.308  13.064  3.2183 -1.5639 -0.5968
13397TIP3    H261607   6.130   4.318  13.141  0.4566 -0.3743  4.3290
13398TIP3   OH261608   6.621   6.677  11.962  0.1466 -0.3298  0.1881
13398TIP3    H161609   6.696   6.736  11.959 -1.8129  2.3569  0.7157
13398TIP3    H261610   6.581   6.693  12.047 -0.2503 -2.7867  0.5328
13399TIP3   OH261611   2.294   4.389   0.843 -0.3989  0.3360  0.0757
13399TIP3    H161612   2.261   4.302   0.821  0.1053  0.0333  0.4785
13399TIP3    H261613   2.315   4.383   0.937 -0.0337  0.7805  0.0262
13400TIP3   OH261614   1.193   2.764  10.707  0.0837  0.2845 -0.4214
13400TIP3    H161615   1.150   2.736  10.788  1.7996 -1.0153  0.1053
13400TIP3    H261616   1.153   2.711  10.639  0.8405 -0.9656  0.0725
13401TIP3   OH261617   2.418   1.521  16.335 -0.3854  0.1101  0.3714
13401TIP3    H161618   2.510   1.546  16.327 -0.3181 -0.6757 -2.2118
13401TIP3    H261619   2.417   1.450  16.400  0.6973  0.6096  0.9540
13402TIP3   OH261620   5.308   1.372   3.494  0.0430 -0.6229  0.2817
13402TIP3    H161621   5.327   1.299   3.435 -2.6214 -0.2527 -1.1896
13402TIP3    H261622   5.351   1.447   3.453 -0.9736 -0.5608 -0.7309
13403TIP3   OH261623   0.736   0.184   5.451 -0.1668  0.2365  0.5165
13403TIP3    H161624   0.718   0.169   5.359 -1.8876  2.7250  0.3267
13403TIP3    H261625   0.655   0.221   5.485  1.8340  4.0040  1.8063
13404TIP3   OH261626   2.623   3.789   2.398 -0.3920 -0.9031  0.2960
13404TIP3    H161627   2.545   3.818   2.444 -0.1540 -1.8683  1.3572
13404TIP3    H261628   2.687   3.772   2.467  0.5126 -0.8600 -0.5038
13405TIP3   OH261629   0.501   4.636   3.691  0.4269  0.4523  0.2477
13405TIP3    H161630   0.487   4.712   3.748 -0.8618 -0.2795  0.9580
13405TIP3    H261631   0.490   4.670   3.603 -2.1471  0.7800  0.6103
13406TIP3   OH261632   5.637   2.325   3.819 -0.3114  0.2495  0.5275
13406TIP3    H161633   5.550   2.289   3.802  0.2576 -0.4656 -1.0357
13406TIP3    H261634   5.693   2.286   3.752  1.6429 -0.8648  2.6647
13407TIP3   OH261635   4.454   3.598  17.075  0.2129 -0.3789 -0.3942
13407TIP3    H161636   4.377   3.616  17.022  0.6939  0.9717 -0.6821
13407TIP3    H261637   4.423   3.538  17.143 -1.1351  0.2562 -0.4142
13408TIP3   OH261638   6.004   3.428   3.481  0.0875 -0.3552 -0.2748
13408TIP3    H161639   6.087   3.475   3.473  0.6960 -1.3600 -0.0242
13408TIP3    H261640   5.995   3.409   3.574 -0.1268 -0.7609 -0.3720
13409TIP3   OH261641   4.009   5.160   0.443 -0.3236 -0.7973  0.1703
13409TIP3    H161642   3.965   5.131   0.363 -0.4774  0.9059 -0.4067
13409TIP3    H261643   3.944   5.211   0.489 -0.5362 -2.5225  1.9110
13410TIP3   OH261644   6.820   2.908   0.881  0.0045  0.6189 -0.4647
13410TIP3    H161645   6.725   2.917   0.887  0.0402  0.2869  0.9286
13410TIP3    H261646   6.842   2.841   0.946  1.2999  1.4728  0.0229
13411TIP3   OH261647   3.422   2.952  13.487  0.4486 -0.4600  0.3148
13411TIP3    H161648   3.378   3.013  13.545 -1.3633 -0.8179 -0.6229
13411TIP3    H261649   3.429   3.000  13.404  1.6568 -0.4992  0.3738
13412TIP3   OH261650   6.688   3.804   3.492  0.2096 -0.8413  0.1598
13412TIP3    H161651   6.685   3.756   3.574 -0.9567 -0.5083  0.3326
13412TIP3    H261652   6.599   3.839   3.481  0.6840  0.1996 -0.5889
13413TIP3   OH261653   5.597   4.726   2.351  0.2233  0.0615 -1.0895
13413TIP3    H161654   5.555   4.645   2.378  0.8747 -0.3303 -1.2429
13413TIP3    H261655   5.582   4.787   2.423 -2.3995  0.5961 -1.9795
13414TIP3   OH261656   6.548   0.070   6.211 -0.2740  0.1633  0.2855
13414TIP3    H161657   6.584   0.127   6.279  0.3101  1.6476 -1.1925
13414TIP3    H261658   6.596  -0.012   6.221  2.6820  1.6249 -0.7542
13415TIP3   OH261659   3.608   3.643  14.082  0.5559  0.3472  0.3016
13415TIP3    H161660   3.538   3.670  14.142  0.7327  0.6894  0.3608
13415TIP3    H261661   3.568   3.578  14.025 -1.1240  3.5565 -2.5495
13416TIP3   OH261662   1.758   0.160  16.253  0.6988 -0.4808  0.7890
13416TIP3    H161663   1.829   0.126  16.307 -0.0994 -3.2680  0.2215
13416TIP3    H261664   1.680   0.112  16.281 -0.0826 -0.7283 -1.5606
13417TIP3   OH261665   1.646   2.691  13.891 -0.9249 -0.4769  0.0320
13417TIP3    H161666   1.687   2.604  13.888 -0.1939 -0.1089 -1.5930
13417TIP3    H261667   1.680   2.731  13.971 -0.6711 -1.3900  0.3951
13418TIP3   OH261668   0.911   1.550  11.873 -0.2116 -0.2162 -0.1450
13418TIP3    H161669   0.913   1.638  11.912 -1.8915 -0.2969  0.1819
13418TIP3    H261670   0.887   1.566  11.781 -0.1610 -0.3091 -0.1745
13419TIP3   OH261671   4.809   2.514  16.420 -0.5881  0.1608  0.1101
13419TIP3    H161672   4.774   2.601  16.438 -3.1098 -1.0640  1.7326
13419TIP3    H261673   4.735   2.455  16.434  0.5379 -2.1454 -2.6248
13420TIP3   OH261674   5.220   0.268   0.630  0.0002  0.7222 -0.5602
13420TIP3    H161675   5.253   0.216   0.558  0.7791 -0.4507  0.6027
13420TIP3    H261676   5.140   0.309   0.596 -0.2667 -0.6956 -1.7158
13421TIP3   OH261677   6.431   3.914  16.930  0.0236 -0.7484  0.8543
13421TIP3    H161678   6.481   3.848  16.883 -0.2870 -0.2551 -0.1954
13421TIP3    H261679   6.344   3.874  16.942  0.0414 -0.7931  0.8358
13422TIP3   OH261680   1.967   1.025   2.866  0.5465 -0.3796 -0.0139
13422TIP3    H161681   2.059   1.029   2.893  0.6179  0.9778 -0.4153
13422TIP3    H261682   1.969   1.036   2.771  0.1283 -2.9122 -0.3811
13423TIP3   OH261683   5.952   4.798   1.756  0.5407 -0.4406  0.1640
13423TIP3    H161684   5.991   4.773   1.672  0.4197  0.3271 -0.1315
13423TIP3    H261685   5.992   4.739   1.820  0.0098 -1.5925 -0.5391
13424TIP3   OH261686   3.221   4.467   2.441  0.0725 -0.5245  0.4857
13424TIP3    H161687   3.143   4.412   2.441 -0.4437  0.0971 -1.6735
13424TIP3    H261688   3.214   4.519   2.521 -3.3988  1.6384 -0.9901
13425TIP3   OH261689   2.211   6.181  17.011  0.5376  0.3870  0.7415
13425TIP3    H161690   2.231   6.090  16.993 -2.4405 -0.6722  2.2429
13425TIP3    H261691   2.254   6.230  16.940  1.5961 -2.1937 -0.5021
13426TIP3   OH261692   2.955   0.311  15.274  0.4696  0.1768  0.4280
13426TIP3    H161693   2.907   0.276  15.199 -0.5692  0.0954  1.0974
13426TIP3    H261694   2.956   0.405  15.260 -0.4503  0.2369  0.7072
13427TIP3   OH261695   1.591   5.144   5.684  0.7501  0.8172  0.1873
13427TIP3    H161696   1.676   5.134   5.727  1.5345  2.2844 -0.9225
13427TIP3    H261697   1.558   5.227   5.718 -0.6636 -0.1338  1.2412
13428TIP3   OH261698   3.545   6.424  15.165 -0.4281  0.5967 -0.1869
13428TIP3    H161699   3.511   6.360  15.227 -1.7050  0.3012 -1.1414
13428TIP3    H261700   3.492   6.411  15.086  0.6916  1.4179 -1.1102
13429TIP3   OH261701   4.809   1.159   4.872  0.1244 -0.1254  0.1454
13429TIP3    H161702   4.903   1.141   4.881 -0.0449 -2.3200 -1.7009
13429TIP3    H261703   4.802   1.205   4.789 -0.5304 -1.0782 -0.3419
13430TIP3   OH261704   6.098   5.213  14.436  0.2030 -0.3050 -0.3251
13430TIP3    H161705   6.105   5.126  14.475  2.8526 -0.6750 -1.3864
13430TIP3    H261706   6.187   5.234  14.409 -0.5083  2.4098 -0.8629
13431TIP3   OH261707   3.676   0.927   1.884  0.8738 -0.2669  0.2837
13431TIP3    H161708   3.673   0.874   1.964  0.9897  0.6161  0.8907
13431TIP3    H261709   3.750   0.892   1.835  0.0134 -1.6749 -0.0730
13432TIP3   OH261710   4.199   5.922  12.824 -0.5847  0.0418  0.0479
13432TIP3    H161711   4.159   5.852  12.877  0.4619  0.2469  1.1422
13432TIP3    H261712   4.196   5.888  12.735 -0.9270 -1.0207  0.4383
13433TIP3   OH261713   0.207   1.165  13.051  0.0161  1.1819  0.0864
13433TIP3    H161714   0.121   1.159  13.092  0.4376  0.5873  0.9177
13433TIP3    H261715   0.204   1.101  12.980 -0.2250  1.1580  0.1176
13434TIP3   OH261716   1.496   4.075   4.203  0.3402 -0.7088  0.0617
13434TIP3    H161717   1.561   4.124   4.153  0.2336  1.7068  2.1045
13434TIP3    H261718   1.535   3.988   4.213  2.6311  0.2248  0.0193
13435TIP3   OH261719   3.513   0.881  16.614  0.0713 -0.1292 -0.3378
13435TIP3    H161720   3.427   0.863  16.650 -0.1610 -0.1928 -0.9157
13435TIP3    H261721   3.550   0.795  16.595  0.1542 -0.0907 -0.3537
13436TIP3   OH261722   2.497   4.922   0.077 -0.1563  0.0761  0.0547
13436TIP3    H161723   2.583   4.964   0.083 -0.6872  1.0035  1.6040
13436TIP3    H261724   2.453   4.946   0.158 -1.3922 -1.5145 -0.1094
13437TIP3   OH261725   6.164   0.747   3.634 -0.0410 -0.1852  0.3392
13437TIP3    H161726   6.201   0.658   3.633  0.3966 -0.0088  0.4348
13437TIP3    H261727   6.190   0.785   3.551 -0.6025 -0.2913  0.1111
13438TIP3   OH261728   4.458   0.444  15.174  0.2484  0.5420  0.8033
13438TIP3    H161729   4.548   0.450  15.145  0.4509 -3.6254 -0.1075
13438TIP3    H261730   4.464   0.414  15.265 -0.2356  0.8052  0.9263
13439TIP3   OH261731   2.056   4.137  14.278 -0.6253 -0.2599 -0.0009
13439TIP3    H161732   2.057   4.214  14.334 -0.6818 -0.5464  0.3942
13439TIP3    H261733   2.042   4.064  14.337 -0.4530 -0.5892 -0.3599
13440TIP3   OH261734   5.797   6.788   0.792 -0.0306 -0.2987 -0.4747
13440TIP3    H161735   5.864   6.760   0.730  0.9310 -1.4074  0.9849
13440TIP3    H261736   5.845   6.801   0.874 -1.2546  1.0937  0.0695
13441TIP3   OH261737   0.477   0.910   0.701  0.2050 -0.5934 -0.5912
13441TIP3    H161738   0.573   0.917   0.701  0.3317 -1.2688  2.2421
13441TIP3    H261739   0.450   0.954   0.781 -1.9320 -0.0874 -1.5348
13442TIP3   OH261740   4.416   4.604   0.068  0.1529  0.3243 -0.5778
13442TIP3    H161741   4.349   4.620   0.133 -0.7829 -2.7391 -0.6646
13442TIP3    H261742   4.496   4.591   0.119  0.3315  1.9786 -0.3660
13443TIP3   OH261743   6.107   5.527   0.804 -0.1086  0.1879 -0.2649
13443TIP3    H161744   6.181   5.579   0.773  1.0396 -0.6689  0.9346
13443TIP3    H261745   6.091   5.465   0.733  1.6838 -0.9409  0.2520
13444TIP3   OH261746   6.242   0.189  16.699 -0.1065  0.3360  0.1544
13444TIP3    H161747   6.261   0.188  16.793 -1.1106  3.3190  0.4818
13444TIP3    H261748   6.147   0.187  16.693 -0.0590  0.4137 -0.7807
13445TIP3   OH261749   3.010   3.507  12.953 -0.4460  0.6218 -0.0051
13445TIP3    H161750   2.917   3.484  12.959 -0.4726  0.3615 -1.2270
13445TIP3    H261751   3.012   3.603  12.959 -0.9323  0.7299 -1.2900
13446TIP3   OH261752   1.077   4.010  16.258  0.6676  0.0053 -0.7683
13446TIP3    H161753   1.106   4.091  16.300 -0.7745 -0.2293  0.8594
13446TIP3    H261754   1.148   3.985  16.200  0.9815  2.6417 -1.6401
13447TIP3   OH261755   6.327   1.500  13.796  0.1556 -0.2479  0.4784
13447TIP3    H161756   6.380   1.564  13.749 -0.0465 -1.2940 -1.2313
13447TIP3    H261757   6.238   1.514  13.763 -0.4924  0.6853  2.4477
13448TIP3   OH261758   6.496   3.353  11.973  0.2469 -0.3619 -0.6978
13448TIP3    H161759   6.507   3.445  11.947 -0.5969  1.0502  3.1322
13448TIP3    H261760   6.411   3.328  11.938 -0.0285  0.7258 -0.8363
13449TIP3   OH261761   1.895   1.725   5.630  0.1049  0.1269  0.4117
13449TIP3    H161762   1.821   1.776   5.596  0.7753  0.3540 -0.7566
13449TIP3    H261763   1.866   1.696   5.717 -0.7883  1.4298  0.5833
13450TIP3   OH261764   1.011   4.123   0.346 -0.3020 -0.4282  0.3379
13450TIP3    H161765   1.055   4.038   0.339  0.0563 -0.1444 -1.3065
13450TIP3    H261766   0.918   4.102   0.342 -0.2420 -0.8034  0.8301
13451TIP3   OH261767   4.902   4.250  14.664 -0.0613 -0.3228 -0.0907
13451TIP3    H161768   4.874   4.168  14.622 -0.2293  0.3208 -1.2691
13451TIP3    H261769   4.964   4.289  14.603  0.9206 -0.1097  0.9963
13452TIP3   OH261770   5.343   3.452  10.853  0.5341 -0.4398  0.1439
13452TIP3    H161771   5.337   3.539  10.814 -2.6081  1.0943  3.4292
13452TIP3    H261772   5.426   3.452  10.901  0.4390  0.8769  0.3251
13453TIP3   OH261773   1.191   3.499   3.080  0.1892 -0.3852  0.4558
13453TIP3    H161774   1.281   3.485   3.050 -0.1220  2.2548 -2.2549
13453TIP3    H261775   1.173   3.591   3.059 -2.9453 -0.6381  1.4638
13454TIP3   OH261776   2.256   5.441  14.719  0.6174 -0.0073 -0.6357
13454TIP3    H161777   2.224   5.459  14.807  0.3916 -0.7537 -0.5548
13454TIP3    H261778   2.232   5.349  14.703  1.5439 -0.1818 -1.0936
13455TIP3   OH261779   1.846   3.528  12.744 -0.1036  0.3837  0.2217
13455TIP3    H161780   1.813   3.463  12.682 -0.4102  0.6638  0.0931
13455TIP3    H261781   1.941   3.526  12.732 -0.0350 -0.6289  0.7937
13456TIP3   OH261782   2.176   2.854  16.145 -0.4103 -0.5904  0.1533
13456TIP3    H161783   2.123   2.803  16.205  0.9923  0.4139  2.3764
13456TIP3    H261784   2.255   2.802  16.131 -0.2777 -0.3554  0.0057
13457TIP3   OH261785   3.637   1.352  11.244  0.9975 -0.2106  0.0396
13457TIP3    H161786   3.596   1.373  11.328  0.3557 -1.8999  0.1951
13457TIP3    H261787   3.577   1.388  11.178  1.1102  0.4452  0.2876
13458TIP3   OH261788   4.113   1.259   5.399  0.1200 -0.4315  0.2108
13458TIP3    H161789   4.120   1.179   5.348 -1.3486 -0.1579 -0.4780
13458TIP3    H261790   4.102   1.230   5.489  3.5606 -0.9208  0.5961
13459TIP3   OH261791   3.949   4.652   5.221  0.0303 -0.4656  0.3664
13459TIP3    H161792   4.027   4.633   5.273  1.2322  0.8757 -0.8635
13459TIP3    H261793   3.933   4.745   5.235  1.0255  0.2182 -2.3898
13460TIP3   OH261794   0.014   4.480   6.453 -0.1674 -0.5061 -0.4535
13460TIP3    H161795   0.022   4.541   6.526  1.8160  0.8083 -1.6899
13460TIP3    H261796  -0.001   4.395   6.495  1.2085  0.1556  1.5339
13461TIP3   OH261797   2.336   1.246  11.466 -0.1902  0.4981  0.0886
13461TIP3    H161798   2.328   1.183  11.394  0.3879  0.7871 -0.2342
13461TIP3    H261799   2.349   1.330  11.423  1.4041  0.5023  0.5315
13462TIP3   OH261800   0.218   0.943  16.954 -0.2198 -0.4718  0.0092
13462TIP3    H161801   0.172   0.863  16.979 -0.4789  0.2765  2.1131
13462TIP3    H261802   0.245   0.982  17.037  1.7385  0.5788 -1.0543
13463TIP3   OH261803   1.100   2.629  10.456 -0.1704 -0.5724 -0.2005
13463TIP3    H161804   1.175   2.687  10.445 -0.2744 -0.0761  1.4237
13463TIP3    H261805   1.132   2.542  10.432 -0.2113  0.1746 -3.4381
13464TIP3   OH261806   1.592   1.218  10.937  0.3721  0.4208  0.7589
13464TIP3    H161807   1.561   1.241  10.849 -1.0694  0.2453  1.1827
13464TIP3    H261808   1.538   1.271  10.995  0.9944  0.1903  1.5564
13465TIP3   OH261809   3.385   0.524  13.405  0.1614 -0.2967  0.4657
13465TIP3    H161810   3.457   0.489  13.353 -0.6296  0.7838 -1.4387
13465TIP3    H261811   3.325   0.451  13.416  0.4956 -0.6224  0.1350
13466TIP3   OH261812   5.836   2.992  13.976  0.2745  0.2180  0.6216
13466TIP3    H161813   5.806   2.901  13.973  0.3362  0.1622  1.4606
13466TIP3    H261814   5.881   2.999  14.060  0.7004  0.8937  0.3428
13467TIP3   OH261815   0.960   0.137  15.659 -0.1772  0.7950  0.0777
13467TIP3    H161816   0.866   0.155  15.651 -0.3722  0.1069  0.6805
13467TIP3    H261817   0.964   0.054  15.707  0.7460  0.9831  0.3376
13468TIP3   OH261818   0.433   1.420   4.842 -0.5222 -0.5658  0.0247
13468TIP3    H161819   0.487   1.498   4.856 -0.8099 -0.2570 -0.5320
13468TIP3    H261820   0.345   1.447   4.868 -0.5596 -0.8165  0.1635
13469TIP3   OH261821   5.437   2.863  15.503  0.2890  0.0455  0.0153
13469TIP3    H161822   5.529   2.866  15.478  0.9295 -0.6812  2.1001
13469TIP3    H261823   5.428   2.929  15.573 -1.2723  1.5639 -1.4986
13470TIP3   OH261824   3.580   5.696  14.207  0.1678  0.1734  0.5425
13470TIP3    H161825   3.674   5.687  14.226 -0.5561  0.2126  5.5488
13470TIP3    H261826   3.555   5.778  14.250 -2.2667 -0.1393 -0.1235
13471TIP3   OH261827   4.640   3.290  13.762 -0.2192  0.1895  0.4288
13471TIP3    H161828   4.630   3.246  13.677  1.8792  1.5834 -0.6290
13471TIP3    H261829   4.675   3.376  13.741 -0.0570  0.7533  2.7116
13472TIP3   OH261830   1.809   6.183   4.879  0.0358  0.5909 -0.1376
13472TIP3    H161831   1.827   6.275   4.862 -0.2976  0.5436 -0.7907
13472TIP3    H261832   1.737   6.184   4.942 -1.6866  0.8176 -2.0128
13473TIP3   OH261833   6.640   1.259  15.666  0.4515 -0.0396 -0.1689
13473TIP3    H161834   6.596   1.286  15.747  1.2328  0.4820  0.1004
13473TIP3    H261835   6.614   1.325  15.602  0.4611  0.0005 -0.1320
13474TIP3   OH261836   1.842   0.906   5.285 -0.1267  0.1560  0.2868
13474TIP3    H161837   1.849   0.898   5.380  1.1782  0.6194  0.2499
13474TIP3    H261838   1.819   0.998   5.271 -2.3039 -0.3480  0.2035
13475TIP3   OH261839   1.355   0.746   6.305 -0.2803 -0.3659  0.2501
13475TIP3    H161840   1.374   0.657   6.334 -0.4540 -0.3829  0.3137
13475TIP3    H261841   1.348   0.796   6.387 -2.4491 -0.7435  0.3345
13476TIP3   OH261842   0.391   4.667  16.125  0.7770  0.3265  0.0969
13476TIP3    H161843   0.481   4.695  16.143  0.6588  1.2633 -0.7323
13476TIP3    H261844   0.394   4.629  16.038  0.4619 -0.1043  0.2698
13477TIP3   OH261845   3.149   4.220  16.118  0.2592 -0.4284  0.6960
13477TIP3    H161846   3.076   4.282  16.109  1.3876  0.8307 -0.2179
13477TIP3    H261847   3.220   4.260  16.068  1.8543 -1.1821  2.2639
13478TIP3   OH261848   1.974   4.286   3.495 -0.3319 -0.2364 -0.0885
13478TIP3    H161849   1.965   4.354   3.428 -1.0375  0.4520  0.6774
13478TIP3    H261850   1.965   4.203   3.447  0.6545  0.1970 -1.0483
13479TIP3   OH261851   1.101   0.444  16.696  0.0025 -0.1273 -0.2254
13479TIP3    H161852   1.096   0.413  16.605 -1.1417  0.0294 -0.2286
13479TIP3    H261853   1.172   0.393  16.735  0.0522 -0.6818 -1.0181
13480TIP3   OH261854   4.606   6.393  14.323  0.2228 -0.1870  0.2727
13480TIP3    H161855   4.596   6.344  14.241 -2.0310 -1.9803  1.5117
13480TIP3    H261856   4.519   6.429  14.339  1.1267  1.8643  0.9071
13481TIP3   OH261857   1.399   0.636   2.840 -0.1474  0.0586 -0.3610
13481TIP3    H161858   1.312   0.667   2.813 -0.0508  0.6165 -0.0615
13481TIP3    H261859   1.407   0.666   2.931 -0.1715 -1.1389  0.0494
13482TIP3   OH261860   3.259   5.939  15.306 -0.1195  0.4515  0.4465
13482TIP3    H161861   3.201   5.977  15.372 -1.4119 -0.8882  0.1361
13482TIP3    H261862   3.200   5.898  15.243  1.1659 -1.9080  0.6755
13483TIP3   OH261863   4.939   0.427   2.744 -0.1580 -0.4052  0.0393
13483TIP3    H161864   4.866   0.477   2.780  0.0545  0.4034 -0.6206
13483TIP3    H261865   4.948   0.458   2.654 -0.4172 -2.0833 -0.6012
13484TIP3   OH261866   6.062   2.624   5.540  0.4594 -0.0247 -0.2897
13484TIP3    H161867   6.022   2.638   5.626  0.8918  2.7695 -0.4326
13484TIP3    H261868   6.121   2.550   5.553 -0.9432 -0.9541  1.2579
13485TIP3   OH261869   4.569   4.264   1.871 -0.1864  0.4910 -0.0137
13485TIP3    H161870   4.568   4.339   1.812 -0.8224 -0.0458 -0.7090
13485TIP3    H261871   4.578   4.302   1.958 -1.1032  1.4149 -0.3029
13486TIP3   OH261872   4.422   0.095   3.799 -0.4582  0.0104 -0.5201
13486TIP3    H161873   4.491   0.032   3.775 -0.2827  0.4083 -1.0884
13486TIP3    H261874   4.342   0.058   3.762 -0.2737  0.3575 -1.3000
13487TIP3   OH261875   3.256   5.444   2.194  0.2519  1.1426  0.2445
13487TIP3    H161876   3.311   5.381   2.242 -0.2293  1.7446  1.6347
13487TIP3    H261877   3.198   5.390   2.141  2.1701  0.4779 -1.3113
13488TIP3   OH261878   6.266   2.349   5.085 -0.2390 -0.2456  0.0694
13488TIP3    H161879   6.177   2.324   5.059 -0.2656 -0.3067  0.2215
13488TIP3    H261880   6.254   2.422   5.145 -0.2453 -1.0501  1.0631
13489TIP3   OH261881   5.885   1.821   3.325  0.2838  0.4777  1.3792
13489TIP3    H161882   5.950   1.801   3.392  0.5611 -0.1966  0.9183
13489TIP3    H261883   5.929   1.804   3.242 -0.3439  0.4319  1.0449
13490TIP3   OH261884   4.867   3.874   3.327  0.1357  0.2439  1.1650
13490TIP3    H161885   4.789   3.819   3.335 -1.1285  1.6953 -0.2504
13490TIP3    H261886   4.885   3.875   3.233  2.3075 -0.5883  1.5256
13491TIP3   OH261887   1.974   3.670  15.555 -0.1707  0.6474  0.2686
13491TIP3    H161888   1.956   3.629  15.640 -1.0396  0.0543 -0.1880
13491TIP3    H261889   1.961   3.600  15.492 -1.4191  1.5552 -0.5178
13492TIP3   OH261890   5.227   0.042   0.787  0.1062 -0.2832 -0.5415
13492TIP3    H161891   5.317   0.010   0.783  0.5221  0.6483  0.6255
13492TIP3    H261892   5.222   0.111   0.721  0.4768  0.1536 -0.1213
13493TIP3   OH261893   3.305   3.350  16.257 -0.9834 -0.0667 -0.3856
13493TIP3    H161894   3.378   3.411  16.245 -1.5485  0.6050 -0.4292
13493TIP3    H261895   3.263   3.379  16.338 -0.6176 -1.0626  0.1752
13494TIP3   OH261896   1.484   0.399   4.473 -0.1660 -0.0399  0.1378
13494TIP3    H161897   1.401   0.440   4.446 -0.6646  0.6687  2.5120
13494TIP3    H261898   1.549   0.468   4.463 -0.4477  0.3956  1.1949
13495TIP3   OH261899   0.151   4.963   4.290  0.1338  0.4965  0.4608
13495TIP3    H161900   0.110   5.049   4.283  0.0007  0.4699  0.8842
13495TIP3    H261901   0.092   4.913   4.347 -0.9022 -0.5469 -1.4203
13496TIP3   OH261902   5.264   4.323  11.316 -0.0408 -0.0485 -0.4271
13496TIP3    H161903   5.340   4.283  11.358 -0.7833 -0.6134  0.4108
13496TIP3    H261904   5.259   4.411  11.354  1.0620  0.5563 -1.6050
13497TIP3   OH261905   5.493   1.445  11.811  0.8331 -0.0403 -0.1709
13497TIP3    H161906   5.539   1.395  11.744  1.8705 -0.2688  0.6720
13497TIP3    H261907   5.434   1.381  11.852 -0.6093  0.3621 -1.5531
13498TIP3   OH261908   3.013   1.341   5.109  0.1045  0.2018  0.4023
13498TIP3    H161909   2.940   1.400   5.090  1.4675  1.8888  0.1454
13498TIP3    H261910   3.049   1.318   5.023  1.0334  0.9267  0.5852
13499TIP3   OH261911   2.337   6.339  12.368  0.8856 -0.4995 -0.1850
13499TIP3    H161912   2.383   6.269  12.413  1.8197  0.5540  0.5253
13499TIP3    H261913   2.305   6.397  12.438 -0.8583 -0.7797 -0.6910
13500TIP3   OH261914   2.790   6.463  15.784 -0.5256 -0.3246 -0.6736
13500TIP3    H161915   2.790   6.519  15.707  0.7341  0.2579 -0.2752
13500TIP3    H261916   2.742   6.385  15.757  0.4211 -0.4057 -2.2605
13501TIP3   OH261917   0.768   0.468   0.059  0.0646  0.1474 -0.1430
13501TIP3    H161918   0.852   0.431   0.032 -0.4333 -0.3623 -1.0213
13501TIP3    H261919   0.781   0.563   0.055  0.2394  0.0801 -1.4538
13502TIP3   OH261920   4.887   0.607   4.009 -0.4053 -0.3357  0.1780
13502TIP3    H161921   4.919   0.697   4.022  0.1713 -0.3523 -0.9653
13502TIP3    H261922   4.935   0.576   3.931 -0.7926 -1.5405  0.4011
13503TIP3   OH261923   1.468   3.551  12.609  0.8950  0.1077  0.2377
13503TIP3    H161924   1.547   3.600  12.584  0.2869  1.0560  0.1232
13503TIP3    H261925   1.438   3.512  12.527  0.5008  0.8654  0.0070
13504TIP3   OH261926   0.905   2.041   2.086  0.5251  0.7940 -0.3051
13504TIP3    H161927   0.998   2.035   2.063  0.1590  0.1249 -1.7075
13504TIP3    H261928   0.861   2.055   2.002 -0.7086  0.3724  0.2551
13505TIP3   OH261929   5.891   2.203  13.760  0.5085  0.3116 -0.0854
13505TIP3    H161930   5.933   2.287  13.778  1.8169 -0.5520  1.1453
13505TIP3    H261931   5.800   2.225  13.742  0.4502  1.8754  1.8162
13506TIP3   OH261932   4.424   6.668   1.791  0.6218  0.8036  0.2827
13506TIP3    H161933   4.481   6.653   1.715  1.2131  0.5171  0.7754
13506TIP3    H261934   4.451   6.602   1.854 -0.8500  0.0975  0.2163
13507TIP3   OH261935   1.165   1.553   5.574 -0.1570  0.1672 -0.0789
13507TIP3    H161936   1.088   1.588   5.529 -1.3501 -3.1825 -0.9280
13507TIP3    H261937   1.133   1.527   5.660  0.2625 -0.4191 -0.0957
13508TIP3   OH261938   6.503   2.993  16.468 -0.5885 -0.3681  0.6636
13508TIP3    H161939   6.497   2.911  16.518 -1.2715 -0.1400  0.9750
13508TIP3    H261940   6.412   3.015  16.449 -0.3207 -1.2477 -2.0303
13509TIP3   OH261941   6.236   5.943   3.729 -0.5038 -0.1200  0.0793
13509TIP3    H161942   6.160   5.944   3.787 -0.5062 -1.0147  0.1073
13509TIP3    H261943   6.214   6.007   3.661 -2.2311 -1.7933 -1.0538
13510TIP3   OH261944   0.846   6.494   2.851  0.0518 -0.4631 -0.1935
13510TIP3    H161945   0.881   6.570   2.805  0.4053 -0.4937  0.0213
13510TIP3    H261946   0.899   6.421   2.820  0.9117 -0.3454  0.9486
13511TIP3   OH261947   0.670   3.637  14.025  0.3428  0.1735 -0.1716
13511TIP3    H161948   0.683   3.542  14.014  0.1995  0.2982 -1.6018
13511TIP3    H261949   0.721   3.658  14.103  2.2165 -0.7379 -1.0523
13512TIP3   OH261950   1.534   0.927   0.352 -0.3813 -0.3721  0.0211
13512TIP3    H161951   1.590   0.853   0.373  1.0980  0.8317  0.5692
13512TIP3    H261952   1.587   0.980   0.292 -0.8216  0.9086  0.7123
13513TIP3   OH261953   5.502   6.552  15.399  0.1381 -0.4616  0.2502
13513TIP3    H161954   5.569   6.596  15.452  0.2369  0.0664 -0.2996
13513TIP3    H261955   5.426   6.609  15.405 -0.0320 -0.6889  0.2724
13514TIP3   OH261956   4.665   0.577  15.729 -0.3011  0.2977  0.0497
13514TIP3    H161957   4.680   0.646  15.794  1.2567 -0.0073  0.0442
13514TIP3    H261958   4.691   0.496  15.772 -0.1707 -0.0310 -0.6287
13515TIP3   OH261959   4.212   4.099  15.508 -0.1436  0.2022  0.2248
13515TIP3    H161960   4.180   4.143  15.429  2.0393  1.1191 -0.2046
13515TIP3    H261961   4.304   4.079  15.490  1.2556  2.7805  3.4066
13516TIP3   OH261962   2.275   0.533  14.493 -0.7064 -0.3166 -0.5696
13516TIP3    H161963   2.277   0.447  14.451 -1.2548 -0.2106 -0.8140
13516TIP3    H261964   2.186   0.543  14.525 -0.9129  0.5593 -1.3816
13517TIP3   OH261965   3.702   3.774  16.079  0.4089  0.6439  1.0192
13517TIP3    H161966   3.766   3.800  16.146  1.7682  0.4899 -0.1669
13517TIP3    H261967   3.718   3.835  16.007  1.9696 -1.7906 -0.8562
13518TIP3   OH261968   1.584   4.749  12.682  0.1987 -0.3074  0.4349
13518TIP3    H161969   1.566   4.840  12.658  1.7341  0.2172  1.1236
13518TIP3    H261970   1.570   4.747  12.777  2.4038 -0.1543  0.8108
13519TIP3   OH261971   2.741   3.575  15.729 -0.2281  0.0254 -0.0049
13519TIP3    H161972   2.692   3.541  15.654 -0.5011  0.8626 -0.2197
13519TIP3    H261973   2.790   3.500  15.762 -1.7940 -0.8851  0.3289
13520TIP3   OH261974   5.943   5.830   1.730 -0.2883  0.5372  0.2420
13520TIP3    H161975   5.885   5.753   1.729 -0.0157  0.3353 -0.1377
13520TIP3    H261976   6.005   5.814   1.659  0.5507  0.5021  0.9677
13521TIP3   OH261977   3.973   0.488   3.027  0.2017 -0.0295  0.2815
13521TIP3    H161978   4.067   0.474   3.028 -0.0840 -2.1792  0.8975
13521TIP3    H261979   3.960   0.570   3.075  1.6096 -0.7135  1.9004
13522TIP3   OH261980   2.810   0.435   1.456  0.4165  0.0377 -0.2324
13522TIP3    H161981   2.766   0.459   1.538 -0.9822 -0.4787 -0.8071
13522TIP3    H261982   2.843   0.347   1.471  0.3908  0.0436 -0.1402
13523TIP3   OH261983   3.408   5.832  12.828 -0.1271  0.2817 -0.1921
13523TIP3    H161984   3.437   5.742  12.843 -0.2216  0.2171 -0.3906
13523TIP3    H261985   3.348   5.850  12.900  2.3754  1.3283  1.7695
13524TIP3   OH261986   6.103   4.836   4.443 -0.0976  0.0578  0.1554
13524TIP3    H161987   6.160   4.856   4.517 -0.8409  1.6977  0.3198
13524TIP3    H261988   6.138   4.889   4.371 -0.3602 -0.2850 -0.2303
13525TIP3   OH261989   3.714   2.878   3.015 -0.4091 -0.1656  0.3364
13525TIP3    H161990   3.703   2.971   3.030  0.9764  0.0588  0.0401
13525TIP3    H261991   3.799   2.870   2.973 -0.7011 -1.5245 -0.0467
13526TIP3   OH261992   3.927   6.621   5.137  0.1732 -0.3548 -0.1356
13526TIP3    H161993   3.853   6.605   5.196  0.7693  0.9720  1.0461
13526TIP3    H261994   3.888   6.662   5.060 -0.5945 -1.9235 -0.6078
13527TIP3   OH261995   3.587   0.228   3.516 -0.1154 -0.4222 -0.5282
13527TIP3    H161996   3.588   0.298   3.451 -0.2781  0.6154  0.5398
13527TIP3    H261997   3.663   0.247   3.572 -0.2303 -1.0218 -0.1625
13528TIP3   OH261998   3.285   5.778  14.233 -0.3290 -0.2804  0.1043
13528TIP3    H161999   3.331   5.723  14.296 -0.0859 -1.4741 -1.0641
13528TIP3    H262000   3.240   5.844  14.286  0.7721 -0.5484  1.4302
13529TIP3   OH262001   0.473   0.384  14.519 -0.1037 -0.0343  0.0194
13529TIP3    H162002   0.510   0.451  14.576 -1.6054  0.0046  1.0061
13529TIP3    H262003   0.473   0.304  14.573 -1.2188 -0.0786 -0.0228
13530TIP3   OH262004   5.933   0.168   1.201  0.0559 -0.5549 -0.1722
13530TIP3    H162005   6.012   0.180   1.254 -0.2852 -1.0769  0.4606
13530TIP3    H262006   5.876   0.114   1.255 -1.2298  0.7902 -0.1248
13531TIP3   OH262007   6.376   0.789  12.909  0.2115  0.1986  0.6222
13531TIP3    H162008   6.298   0.819  12.956  0.5643  1.2770  0.5533
13531TIP3    H262009   6.441   0.858  12.925  0.1430  0.9520 -1.9854
13532TIP3   OH262010   3.996   2.243   2.531 -0.0929 -0.5694 -0.0892
13532TIP3    H162011   3.991   2.321   2.475  0.9298 -0.6144 -0.2649
13532TIP3    H262012   4.067   2.192   2.494  2.2355  0.4906  2.5886
13533TIP3   OH262013   4.247   1.667   5.953  0.1431  0.4930  0.2114
13533TIP3    H162014   4.275   1.608   5.883 -0.1243 -0.9292  1.2473
13533TIP3    H262015   4.319   1.665   6.016 -0.7410 -0.4386  1.2483
13534TIP3   OH262016   0.389   6.489  11.475  0.3254 -0.2531  0.4775
13534TIP3    H162017   0.472   6.533  11.459 -0.1538  0.3242 -0.5335
13534TIP3    H262018   0.374   6.437  11.396 -0.0351 -0.7569  0.8661
13535TIP3   OH262019   3.632   5.786  10.886  0.3886  0.3437  0.2930
13535TIP3    H162020   3.628   5.805  10.792  0.0653  0.0819  0.2504
13535TIP3    H262021   3.691   5.712  10.893 -0.8224 -0.6687  0.1193
13536TIP3   OH262022   3.955   1.139  14.352 -0.3678 -0.0866  0.2361
13536TIP3    H162023   3.978   1.091  14.273 -0.4407 -1.1566  0.8476
13536TIP3    H262024   4.019   1.111  14.418  0.0136  1.1802  0.4369
13537TIP3   OH262025   6.195   2.123  15.971 -0.0516  0.5509 -0.1699
13537TIP3    H162026   6.263   2.078  16.022  0.6901  0.5915 -1.1006
13537TIP3    H262027   6.154   2.053  15.919  0.2926  0.7564 -0.7230
13538TIP3   OH262028   3.347   0.215   5.654  0.1093  0.7322 -0.0697
13538TIP3    H162029   3.315   0.232   5.743 -0.4106 -0.1494 -0.0801
13538TIP3    H262030   3.438   0.188   5.667 -0.9757 -3.2865  0.6621
13539TIP3   OH262031   3.779   1.742  14.716  0.1149 -0.9023 -0.4754
13539TIP3    H162032   3.708   1.710  14.659  1.5934 -2.0686 -1.7627
13539TIP3    H262033   3.843   1.779  14.655 -0.3983  2.4492  0.8244
13540TIP3   OH262034   5.967   1.054  14.622  0.5417 -0.0656  0.5722
13540TIP3    H162035   5.903   1.029  14.688  1.2269 -1.4811  0.7265
13540TIP3    H262036   6.026   0.979  14.615  1.6651  0.8455 -0.2066
13541TIP3   OH262037   1.286   2.211   5.240 -0.1005  0.3476  0.2822
13541TIP3    H162038   1.331   2.134   5.206  0.7489  0.5403  0.9417
13541TIP3    H262039   1.202   2.211   5.194 -0.2793 -1.1783  0.5605
13542TIP3   OH262040   2.087   6.003   2.415  0.4664  0.4707 -0.0521
13542TIP3    H162041   2.166   5.973   2.461  1.4832  0.4871 -1.7091
13542TIP3    H262042   2.062   6.083   2.461 -0.1538 -0.8870  2.1387
13543TIP3   OH262043   5.721   2.209   5.250 -0.4288 -0.4777 -0.3525
13543TIP3    H162044   5.718   2.120   5.285 -0.8486 -0.4605 -0.3489
13543TIP3    H262045   5.796   2.250   5.294 -0.5838 -0.6480  0.0636
13544TIP3   OH262046   2.829   4.919  16.831  0.7037 -0.4855  0.8505
13544TIP3    H162047   2.924   4.923  16.837  0.8716 -1.7827 -0.4429
13544TIP3    H262048   2.800   5.008  16.851  2.3821  0.7766 -1.7975
13545TIP3   OH262049   2.006   1.847   4.395  0.1110  0.3769 -0.0238
13545TIP3    H162050   2.027   1.765   4.350 -0.0037 -0.1724  0.8820
13545TIP3    H262051   1.939   1.822   4.459  1.6598  0.7104  1.8081
13546TIP3   OH262052   2.645   6.293   0.545  0.4349  0.1780  0.1981
13546TIP3    H162053   2.644   6.240   0.465 -1.9940 -0.0134  0.3010
13546TIP3    H262054   2.669   6.231   0.614 -1.7347 -0.7330  0.2203
13547TIP3   OH262055   0.321   4.970   2.398 -0.4250  0.3312 -0.3377
13547TIP3    H162056   0.408   4.931   2.407 -0.4494  0.3288 -0.1127
13547TIP3    H262057   0.298   4.999   2.486 -0.0107  1.7233 -0.6651
13548TIP3   OH262058   5.700   6.249   5.941  0.8993 -0.2488 -0.3948
13548TIP3    H162059   5.675   6.173   5.993  0.1967  0.6867  0.6777
13548TIP3    H262060   5.728   6.213   5.857 -1.4861 -1.5588 -0.6885
13549TIP3   OH262061   0.428   3.284  11.979  0.3379  0.0126 -0.3077
13549TIP3    H162062   0.435   3.308  12.071 -0.1088  1.3975 -0.6198
13549TIP3    H262063   0.336   3.256  11.969  0.1778  0.5976 -0.4955
13550TIP3   OH262064   1.049   2.053   5.143 -0.5977 -0.3893 -0.1181
13550TIP3    H162065   0.995   2.128   5.170  0.7540 -0.2382  2.4650
13550TIP3    H262066   1.005   2.019   5.065 -0.9226  3.4653 -1.8567
13551TIP3   OH262067   2.406   4.154   4.777 -0.1341  0.0848  0.1443
13551TIP3    H162068   2.358   4.228   4.814  1.2066  1.1689 -0.1785
13551TIP3    H262069   2.366   4.077   4.817 -0.1555  1.0814  2.1866
13552TIP3   OH262070   2.431   2.586  13.571 -0.7486  0.5586 -0.0786
13552TIP3    H162071   2.457   2.506  13.525 -1.3245  1.1272 -1.4386
13552TIP3    H262072   2.337   2.592  13.558 -0.5994  1.8787 -0.7186
13553TIP3   OH262073   0.590   1.994   1.997 -0.8363  0.2673  0.3260
13553TIP3    H162074   0.664   2.053   1.984  1.2332 -2.0188  0.9814
13553TIP3    H262075   0.548   2.025   2.077  0.3680  0.7148  0.7986
13554TIP3   OH262076   0.565   2.211  15.486  0.7363  0.2309  0.2102
13554TIP3    H162077   0.495   2.165  15.533  1.6742 -1.9966 -0.4314
13554TIP3    H262078   0.583   2.155  15.411  1.0025  2.4400 -1.4397
13555TIP3   OH262079   0.121   1.599   6.095  0.1869 -0.8512  0.1190
13555TIP3    H162080   0.055   1.531   6.084  1.8071 -2.4375 -0.2356
13555TIP3    H262081   0.188   1.559   6.150  0.3724  1.0987  1.4129
13556TIP3   OH262082   2.489   3.246  15.416  0.2070  0.2263  0.5428
13556TIP3    H162083   2.398   3.238  15.390  0.0417  0.2459  1.1043
13556TIP3    H262084   2.503   3.176  15.479  1.3430 -1.5582 -1.5294
13557TIP3   OH262085   5.642   6.159  13.608  0.8314 -0.2766  0.1359
13557TIP3    H162086   5.717   6.201  13.649  1.6544 -0.7225 -0.8539
13557TIP3    H262087   5.646   6.068  13.638 -0.2736  0.0489  1.3561
13558TIP3   OH262088   3.307   2.543  14.424 -0.3580  0.0884 -0.4378
13558TIP3    H162089   3.261   2.498  14.495 -0.0821 -0.5843 -0.6741
13558TIP3    H262090   3.252   2.619  14.405  0.3519  1.1582  1.5251
13559TIP3   OH262091   3.896   0.195   5.065  0.5143 -0.2616  0.0658
13559TIP3    H162092   3.964   0.238   5.013 -1.5402  0.4810 -2.2187
13559TIP3    H262093   3.828   0.262   5.076  0.5553 -0.5796  3.3206
13560TIP3   OH262094   0.684   2.110   1.581 -0.1435 -0.1094  0.2985
13560TIP3    H162095   0.674   2.077   1.491 -1.3142 -0.2803  0.4777
13560TIP3    H262096   0.635   2.192   1.583 -0.6242 -0.4020  0.9338
13561TIP3   OH262097   0.615   2.747   2.375 -0.0026 -0.0116  0.6264
13561TIP3    H162098   0.547   2.679   2.379  0.1633 -0.1324  2.3477
13561TIP3    H262099   0.674   2.725   2.448  1.3660  0.6369 -0.2454
13562TIP3   OH262100   6.743   1.519  10.870  0.8486  0.1398 -0.2838
13562TIP3    H162101   6.722   1.588  10.807  0.4885  0.6384  0.3587
13562TIP3    H262102   6.760   1.442  10.817  2.0717  0.9148 -1.0776
13563TIP3   OH262103   2.864   2.912   4.739  0.2211  0.1832  0.2876
13563TIP3    H162104   2.845   2.980   4.804  3.1122  3.1896 -1.6736
13563TIP3    H262105   2.957   2.922   4.720 -0.0682 -1.7543 -3.0048
13564TIP3   OH262106   4.392   0.442  10.764 -0.1845 -0.5981  0.3942
13564TIP3    H162107   4.482   0.473  10.755  0.3510 -0.5354  4.2275
13564TIP3    H262108   4.338   0.515  10.733  1.0602  0.1232 -0.1311
13565TIP3   OH262109   0.864   5.495  12.963 -0.8501  0.3558 -0.2437
13565TIP3    H162110   0.878   5.422  13.023 -0.5129 -0.5715 -1.3997
13565TIP3    H262111   0.900   5.571  13.008  0.5764 -0.5453  0.2225
13566TIP3   OH262112   1.100   1.383  11.064 -0.1753 -0.1536  0.1194
13566TIP3    H162113   1.041   1.320  11.023 -0.4585  0.0661  0.1841
13566TIP3    H262114   1.135   1.337  11.140 -0.1310 -0.3463 -0.0179
13567TIP3   OH262115   4.683   1.506   1.007  0.3040  0.3023  0.1737
13567TIP3    H162116   4.602   1.504   1.058 -1.2241  0.2055 -2.1090
13567TIP3    H262117   4.711   1.414   1.006 -0.9900 -0.1266 -1.0679
13568TIP3   OH262118   1.552   0.689   2.327  0.4434 -0.0218 -0.2409
13568TIP3    H162119   1.521   0.603   2.355 -0.4079  0.3103 -0.1330
13568TIP3    H262120   1.491   0.751   2.368  2.6456  0.8299  2.0048
13569TIP3   OH262121   2.162   2.649   1.329 -0.0358  0.5457  0.1982
13569TIP3    H162122   2.111   2.679   1.404 -1.1626 -1.1385  0.1579
13569TIP3    H262123   2.185   2.558   1.349 -0.6012 -0.0408 -1.5962
13570TIP3   OH262124   0.473   6.572  12.313 -0.0097  0.0185 -0.3196
13570TIP3    H162125   0.494   6.662  12.286 -0.5894 -0.1225 -1.3139
13570TIP3    H262126   0.531   6.518  12.260  0.3110 -0.2031  0.2522
13571TIP3   OH262127   6.816   4.557   0.036 -0.3311  0.3616  0.3566
13571TIP3    H162128   6.819   4.461   0.037  2.5582  0.2244 -2.4942
13571TIP3    H262129   6.772   4.579  -0.046  0.1840  1.4366  0.3531
13572TIP3   OH262130   2.745   3.736  11.500  0.7050 -0.1153  0.3308
13572TIP3    H162131   2.712   3.677  11.433 -1.6047  0.2741  1.0352
13572TIP3    H262132   2.804   3.682  11.552  0.6950 -1.0658 -0.6132
13573TIP3   OH262133   5.807   2.756  13.721  0.6355 -0.0871  0.4235
13573TIP3    H162134   5.752   2.833  13.712 -0.1006 -0.8273 -2.1700
13573TIP3    H262135   5.895   2.785  13.697  0.3823 -0.0089 -0.4276
13574TIP3   OH262136   3.198   3.030   5.831  0.3723 -0.2099  0.3832
13574TIP3    H162137   3.152   3.041   5.914  3.2281 -0.2797  2.1150
13574TIP3    H262138   3.209   3.119   5.797 -1.5594 -0.2405 -0.4493
13575TIP3   OH262139   1.936   6.809   3.834 -0.1086 -0.0914 -0.6707
13575TIP3    H162140   1.959   6.849   3.918 -1.2373 -0.6341 -0.0738
13575TIP3    H262141   2.020   6.792   3.791  0.5857 -1.0905  0.9679
13576TIP3   OH262142   4.707   1.778   6.415 -0.8472  0.3851  0.2706
13576TIP3    H162143   4.751   1.733   6.343 -0.3446 -1.0681  1.4638
13576TIP3    H262144   4.777   1.821   6.463 -0.7570 -1.2672  1.7010
13577TIP3   OH262145   1.633   3.977  15.330  0.4070 -0.2797  0.1922
13577TIP3    H162146   1.575   4.032  15.382  1.2443 -0.3925  1.2792
13577TIP3    H262147   1.693   3.938  15.393  0.5121 -1.6084 -0.6832
13578TIP3   OH262148   3.230   2.690   5.146 -0.4508 -0.5065 -0.0230
13578TIP3    H162149   3.196   2.604   5.122 -1.1410 -0.4422  0.6916
13578TIP3    H262150   3.155   2.748   5.141 -0.1893 -0.1253  0.3774
13579TIP3   OH262151   5.048   5.952  16.685 -0.0958  0.1859 -0.0960
13579TIP3    H162152   5.122   5.958  16.625  1.8224 -0.6082  2.0622
13579TIP3    H262153   5.084   5.913  16.765 -2.5083  1.1297  1.5872
13580TIP3   OH262154   2.242   0.436  16.608 -0.3735 -0.2621 -0.7650
13580TIP3    H162155   2.247   0.531  16.600 -1.8169 -0.1009 -0.0570
13580TIP3    H262156   2.150   0.415  16.592 -0.4426 -1.3456  0.7770
13581TIP3   OH262157   0.719   1.674   0.468  0.6498 -0.3653 -0.4857
13581TIP3    H162158   0.633   1.652   0.503  0.7329 -0.8169 -0.5676
13581TIP3    H262159   0.767   1.592   0.468 -0.0593 -0.9100 -3.7368
13582TIP3   OH262160   4.618   2.543  11.275 -0.2463 -0.0829 -0.0526
13582TIP3    H162161   4.639   2.608  11.208 -2.1086  1.4671  0.7787
13582TIP3    H262162   4.652   2.461  11.240 -1.5404  0.5601 -3.1420
13583TIP3   OH262163   1.794   1.643  15.842  0.0510 -0.3395 -0.2100
13583TIP3    H162164   1.791   1.563  15.894  0.8516 -1.0620 -1.2195
13583TIP3    H262165   1.864   1.627  15.778  1.5107  1.8979  0.7140
13584TIP3   OH262166   4.629   2.588   0.930 -0.1706  0.6995  0.0819
13584TIP3    H162167   4.563   2.586   0.999  0.2128  0.5917  0.4509
13584TIP3    H262168   4.642   2.496   0.907  0.5744  0.6379  0.7159
13585TIP3   OH262169   3.075   6.311  13.127 -0.0646  0.1793  0.0989
13585TIP3    H162170   3.166   6.318  13.159 -0.3881  1.7708  0.7950
13585TIP3    H262171   3.052   6.401  13.102 -1.4515 -0.2057 -0.0869
13586TIP3   OH262172   5.006   3.874   5.358 -0.4891 -0.6064  0.2632
13586TIP3    H162173   4.913   3.860   5.371 -0.9915  1.1619 -1.0421
13586TIP3    H262174   5.024   3.837   5.272 -0.6396  1.4699 -0.7219
13587TIP3   OH262175   1.395   0.437   0.877  0.2559 -0.4856 -0.0495
13587TIP3    H162176   1.409   0.353   0.921  1.4516 -1.0710 -1.4405
13587TIP3    H262177   1.425   0.502   0.940 -0.2906 -1.1180  0.8920
13588TIP3   OH262178   2.094   5.925  14.323 -0.5892  0.6001  0.0195
13588TIP3    H162179   2.108   5.856  14.258  1.0287  0.2029  0.7675
13588TIP3    H262180   2.002   5.950  14.310 -1.4258 -2.0859  0.1417
13589TIP3   OH262181   5.065   2.849   5.497 -0.3567  0.0063 -0.0332
13589TIP3    H162182   5.128   2.873   5.429 -1.0360 -1.3980 -1.2408
13589TIP3    H262183   5.056   2.927   5.551  0.5153  1.0485 -1.3345
13590TIP3   OH262184   3.564   5.894  17.006  0.0882  0.1609 -0.5701
13590TIP3    H162185   3.522   5.857  16.929  0.0177 -0.3317 -0.2951
13590TIP3    H262186   3.607   5.973  16.974 -0.5680  0.3642 -0.9656
13591TIP3   OH262187   3.473   0.296   5.276 -0.3563  0.3130  0.3742
13591TIP3    H162188   3.386   0.269   5.306 -0.3569  0.9240  0.9481
13591TIP3    H262189   3.483   0.385   5.310  1.2411 -0.4016  1.8964
13592TIP3   OH262190   4.711   2.030   2.603  0.0173  0.0275  0.1593
13592TIP3    H162191   4.771   2.104   2.595  1.7547 -1.4017 -1.1629
13592TIP3    H262192   4.679   2.034   2.692  1.8083  1.1168  0.8121
13593TIP3   OH262193   2.094   6.503  11.920 -0.3733 -0.0057 -0.5081
13593TIP3    H162194   2.103   6.427  11.977 -0.5674  1.2247  1.2606
13593TIP3    H262195   2.127   6.576  11.972  0.8294  0.9970 -2.5395
13594TIP3   OH262196   5.068   6.378   5.002 -0.1941 -0.0661 -0.2609
13594TIP3    H162197   5.067   6.461   4.955 -2.2004 -0.5469 -1.1779
13594TIP3    H262198   5.012   6.392   5.078  0.3252 -0.2737  0.1653
13595TIP3   OH262199   4.929   6.572  14.598  0.0998  0.0862  0.0094
13595TIP3    H162200   4.913   6.641  14.533 -1.5181  1.1565  1.4478
13595TIP3    H262201   4.964   6.619  14.674 -0.1758 -0.7965  0.6962
13596TIP3   OH262202   3.793   4.896   2.378 -0.0505 -0.7999  0.6486
13596TIP3    H162203   3.865   4.844   2.343 -0.4365 -0.1354 -1.2477
13596TIP3    H262204   3.825   4.929   2.462  1.7239 -0.7978  0.0088
13597TIP3   OH262205   2.651   5.029   0.488 -0.4456 -0.1636  0.1564
13597TIP3    H162206   2.683   5.000   0.574  0.3335  0.1134 -0.0296
13597TIP3    H262207   2.699   5.111   0.471 -1.1332  0.1714 -0.2183
13598TIP3   OH262208   5.413   6.656  12.948 -0.1386  0.8500 -0.0334
13598TIP3    H162209   5.362   6.688  13.023 -1.2419  1.4998 -1.0131
13598TIP3    H262210   5.390   6.716  12.876  1.1690  0.4714 -0.8060
13599TIP3   OH262211   0.385   3.660   4.602  0.3247 -0.5393  0.2382
13599TIP3    H162212   0.323   3.591   4.627  2.4747 -1.7912  2.4948
13599TIP3    H262213   0.375   3.667   4.507 -3.7451 -0.0912  0.4929
13600TIP3   OH262214   2.618   2.890   5.000 -0.0014  1.0745 -0.8185
13600TIP3    H162215   2.565   2.895   4.921 -2.0919 -0.4078  0.4078
13600TIP3    H262216   2.560   2.919   5.070  1.7282  2.1412  0.2546
13601TIP3   OH262217   6.292   2.399   4.343 -0.6247  0.3340  0.0008
13601TIP3    H162218   6.361   2.384   4.278 -1.3860 -0.8439 -0.5723
13601TIP3    H262219   6.238   2.320   4.340 -0.4273  0.0099  2.4057
13602TIP3   OH262220   2.591   3.861   2.921  0.3799 -0.1816 -0.0638
13602TIP3    H162221   2.645   3.907   2.858  1.0617 -0.1515  0.5342
13602TIP3    H262222   2.635   3.874   3.005 -1.1044  0.7120  0.6068
13603TIP3   OH262223   4.934   4.291   2.522  0.0463  0.3875 -0.2825
13603TIP3    H162224   4.853   4.323   2.482 -1.2772  1.4558  2.9518
13603TIP3    H262225   5.001   4.353   2.493 -0.6442  0.5938 -1.5050
13604TIP3   OH262226   2.147   1.392   6.204 -0.5148 -0.5587  0.4889
13604TIP3    H162227   2.092   1.428   6.134 -3.8152  0.1667  3.1380
13604TIP3    H262228   2.122   1.300   6.209  1.5413 -1.2395 -0.7532
13605TIP3   OH262229   3.261   2.648  14.784 -0.1860  0.4573 -0.1815
13605TIP3    H162230   3.299   2.707  14.719 -1.1198  1.2314 -0.0479
13605TIP3    H262231   3.211   2.584  14.732 -1.4879  1.4699 -0.2420
13606TIP3   OH262232   0.547   0.908   1.225 -0.6140 -0.0014  0.3153
13606TIP3    H162233   0.593   0.831   1.259 -0.9317 -0.0569  0.6258
13606TIP3    H262234   0.612   0.979   1.231 -0.3906 -0.1965  0.2320
13607TIP3   OH262235   2.056   0.642  15.221 -0.0535 -0.2476 -0.1568
13607TIP3    H162236   2.109   0.722  15.216 -1.0140  0.4528  0.3024
13607TIP3    H262237   2.053   0.609  15.131  2.4139 -1.1981  0.0376
13608TIP3   OH262238   1.511   4.768  15.043 -0.1002  0.0757  0.3912
13608TIP3    H162239   1.461   4.691  15.015 -2.6294  1.1384  1.6846
13608TIP3    H262240   1.501   4.769  15.139  3.6786 -0.4047  0.9489
13609TIP3   OH262241   6.441   6.592  13.050 -0.1331 -0.1524  0.0597
13609TIP3    H162242   6.497   6.649  13.103 -0.8047  0.7283 -0.1565
13609TIP3    H262243   6.365   6.646  13.030 -0.4199 -0.8733 -0.8221
13610TIP3   OH262244   3.346   6.556  16.834 -0.3776 -0.0722 -0.6934
13610TIP3    H162245   3.393   6.638  16.846  0.3487 -0.7312  1.3081
13610TIP3    H262246   3.399   6.507  16.770 -0.0314  0.4213 -0.7876
13611TIP3   OH262247   3.168   1.113  13.362 -0.1357  0.1250 -0.0422
13611TIP3    H162248   3.165   1.207  13.344 -1.6746  0.1167  0.0011
13611TIP3    H262249   3.076   1.086  13.358  0.3137 -1.4284 -0.3141
13612TIP3   OH262250   2.100   2.411  14.457  0.0524  0.0709  0.2859
13612TIP3    H162251   2.165   2.350  14.422 -1.0319 -1.0531  0.1343
13612TIP3    H262252   2.107   2.488  14.402 -0.6797 -1.1409 -1.5823
13613TIP3   OH262253   0.377   0.411  10.776 -0.4376  0.1627  0.1116
13613TIP3    H162254   0.420   0.487  10.735 -0.5338 -0.4078 -1.0970
13613TIP3    H262255   0.436   0.338  10.759 -1.0649 -0.3111 -0.0720
13614TIP3   OH262256   1.003   0.804   5.947 -0.1873  0.2249 -0.6507
13614TIP3    H162257   0.920   0.848   5.967  0.3568  0.4180  1.4334
13614TIP3    H262258   1.059   0.873   5.912  0.1002  0.8706  0.9889
13615TIP3   OH262259   4.602   3.145   1.878  0.5345 -0.0002 -0.1719
13615TIP3    H162260   4.554   3.112   1.802  0.0702 -2.9874  1.2337
13615TIP3    H262261   4.546   3.213   1.915  0.2956  0.7721 -1.8947
13616TIP3   OH262262   4.827   6.194  12.723 -0.0704 -0.1997  0.1731
13616TIP3    H162263   4.823   6.274  12.776  0.0065  0.6754 -1.1008
13616TIP3    H262264   4.874   6.220  12.644  1.8556 -2.0360  0.6016
13617TIP3   OH262265   0.566   4.355  10.626 -0.8219 -0.3362 -0.6610
13617TIP3    H162266   0.652   4.361  10.584 -1.1554  1.1552 -1.1741
13617TIP3    H262267   0.516   4.297  10.568 -0.3099 -0.8645 -0.5896
13618TIP3   OH262268   5.913   6.024   5.370  0.1162 -0.4460  0.2485
13618TIP3    H162269   5.921   6.117   5.351  2.9889 -0.6462 -0.0488
13618TIP3    H262270   5.870   6.020   5.456  0.4901  1.1773  0.5284
13619TIP3   OH262271   2.513   5.195   0.659  0.2158 -0.5005 -0.3573
13619TIP3    H162272   2.560   5.148   0.591  0.2524 -1.6405  0.4265
13619TIP3    H262273   2.436   5.141   0.676  0.9064 -0.9873  1.4605
13620TIP3   OH262274   3.897   5.115  11.576  0.6192  0.4584 -0.0422
13620TIP3    H162275   3.885   5.068  11.659  0.3609 -0.3663 -0.5289
13620TIP3    H262276   3.821   5.173  11.570  0.8252  0.7856  0.4628
13621TIP3   OH262277   2.397   0.904  14.944 -0.2695  0.3620 -0.2528
13621TIP3    H162278   2.449   0.888  15.022  1.1954  0.0161 -1.2479
13621TIP3    H262279   2.327   0.838  14.947 -1.5492  1.6977  1.7973
13622TIP3   OH262280   2.961   5.885  14.478  0.7036 -0.9196 -0.8760
13622TIP3    H162281   2.922   5.948  14.538 -1.0787 -2.9719  0.3025
13622TIP3    H262282   3.048   5.919  14.459  0.7601  0.5997  1.6903
13623TIP3   OH262283   1.407   3.174   3.708  0.1325  0.3123  0.3018
13623TIP3    H162284   1.471   3.102   3.708  1.0900  1.1499  0.3590
13623TIP3    H262285   1.422   3.219   3.625 -1.5564 -0.4677 -0.4811
13624TIP3   OH262286   0.532   3.204  14.321 -0.2356 -0.1289  0.3160
13624TIP3    H162287   0.621   3.207  14.356  0.6040 -0.4977 -1.6934
13624TIP3    H262288   0.517   3.111  14.300 -1.0249 -0.0385  0.4304
13625TIP3   OH262289   0.309   0.051   4.078  0.6181 -0.7661  0.0357
13625TIP3    H162290   0.320   0.144   4.098 -1.7395 -0.7416  1.5221
13625TIP3    H262291   0.395   0.023   4.045  0.6522  2.5790 -3.3870
13626TIP3   OH262292   3.357   5.972  13.249 -0.5774  0.1694 -0.5312
13626TIP3    H162293   3.416   5.902  13.220 -1.3087 -0.5391 -0.3316
13626TIP3    H262294   3.328   5.945  13.335 -0.1178  1.2071 -0.0275
13627TIP3   OH262295   0.476   3.623  10.928  0.1849  0.3812 -0.3080
13627TIP3    H162296   0.490   3.576  11.010  0.0710  0.4969 -0.2218
13627TIP3    H262297   0.381   3.626  10.918  0.1656 -2.3446 -1.9928
13628TIP3   OH262298   2.271   4.651  15.334 -0.2126  0.0330 -0.3136
13628TIP3    H162299   2.226   4.735  15.343  0.2709  0.4963 -1.9167
13628TIP3    H262300   2.355   4.673  15.295  0.2589 -1.1194  0.0191
13629TIP3   OH262301   1.034   1.577   2.770  0.1262  0.3632 -0.7781
13629TIP3    H162302   1.112   1.630   2.751 -0.6894  2.0573  0.3824
13629TIP3    H262303   1.068   1.502   2.820  1.1802  0.2498 -1.6254
13630TIP3   OH262304   4.702   0.009   6.548 -0.4584 -0.0409 -0.1639
13630TIP3    H162305   4.616   0.049   6.531 -1.6264 -1.0578  2.7673
13630TIP3    H262306   4.684  -0.084   6.554  1.0051 -0.3388 -0.1695
13631TIP3   OH262307   3.030   1.839  14.803 -0.3241 -1.0088 -0.7635
13631TIP3    H162308   3.068   1.817  14.718  0.7801 -1.5344 -0.1580
13631TIP3    H262309   2.943   1.872  14.782 -0.0929 -1.1710 -2.0949
13632TIP3   OH262310   2.069   1.793   2.783  0.4394  0.4330 -0.0855
13632TIP3    H162311   2.008   1.859   2.816 -0.7953 -0.7748  0.1490
13632TIP3    H262312   2.117   1.764   2.861 -0.6731 -0.5839  0.2577
13633TIP3   OH262313   3.936   6.469   4.039  0.5353  0.3934 -0.5257
13633TIP3    H162314   3.851   6.486   3.998  2.1230  1.1711 -3.7929
13633TIP3    H262315   3.952   6.376   4.023 -0.4150 -0.2305  1.7501
13634TIP3   OH262316   6.011   3.997  16.156  0.1976  0.2006  0.3217
13634TIP3    H162317   5.997   4.087  16.185  1.5262 -0.0960  2.1039
13634TIP3    H262318   6.045   3.952  16.234  0.4319 -1.6198 -0.7671
13635TIP3   OH262319   2.079   5.741  12.504 -0.2158  0.1174 -0.5694
13635TIP3    H162320   2.075   5.789  12.587 -0.7206  1.1036 -1.1394
13635TIP3    H262321   2.158   5.688  12.511 -0.3417  0.0601  0.6058
13636TIP3   OH262322   5.031   1.892   2.115  0.1658 -0.1106 -0.2742
13636TIP3    H162323   5.095   1.877   2.046 -0.2650  2.4187 -1.3294
13636TIP3    H262324   4.949   1.860   2.079  0.1451  0.1787 -0.4856
13637TIP3   OH262325   3.444   6.055   4.751  0.8684 -0.1898 -0.1071
13637TIP3    H162326   3.423   6.077   4.841  0.9631 -0.0218 -0.1270
13637TIP3    H262327   3.473   6.137   4.711 -0.5612  0.0713 -0.6944
13638TIP3   OH262328   5.831   2.277  12.024 -0.6461  0.5799  0.4244
13638TIP3    H162329   5.789   2.194  12.001  0.7129  0.2567 -1.1444
13638TIP3    H262330   5.784   2.342  11.972  0.0365  0.3780 -0.4677
13639TIP3   OH262331   1.807   4.686   4.011  0.5572  0.1634  0.5403
13639TIP3    H162332   1.766   4.743   3.945 -0.0952 -1.0518 -0.1331
13639TIP3    H262333   1.893   4.666   3.975  0.4866  0.0994  0.4064
13640TIP3   OH262334   5.758   0.830  12.874  0.0348  0.2427 -0.2650
13640TIP3    H162335   5.690   0.870  12.820 -0.4826 -1.8223 -1.2493
13640TIP3    H262336   5.713   0.804  12.954 -0.3458 -1.0796 -0.8957
13641TIP3   OH262337   0.595   5.021  14.876 -0.3862  0.6445  0.2410
13641TIP3    H162338   0.618   4.981  14.960  0.1077 -0.6190 -0.4575
13641TIP3    H262339   0.508   4.986  14.856  0.1697 -0.3798 -0.5128
13642TIP3   OH262340   0.926   2.248   5.354 -0.2645 -0.0923  0.1038
13642TIP3    H162341   0.913   2.314   5.423 -1.3328  1.3415 -1.4033
13642TIP3    H262342   0.839   2.236   5.316  0.2222 -1.2183 -0.6873
13643TIP3   OH262343   0.108   1.036  13.884 -0.1372 -0.5647 -0.3975
13643TIP3    H162344   0.151   0.965  13.836  1.0281  1.2190 -2.0973
13643TIP3    H262345   0.037   1.065  13.826 -1.4479 -1.1390  0.8505
13644TIP3   OH262346   5.707   6.347  15.053 -0.2644 -0.0730  0.0798
13644TIP3    H162347   5.691   6.309  14.966  2.3278 -1.7172  0.2330
13644TIP3    H262348   5.765   6.421  15.036  1.0332 -0.9814  0.4585
13645TIP3   OH262349   6.323   0.768   1.601  0.5625 -0.8721  0.2051
13645TIP3    H162350   6.333   0.707   1.675  1.1034  0.6983  1.4838
13645TIP3    H262351   6.405   0.817   1.599 -0.4702  0.9333  0.2762
13646TIP3   OH262352   0.713   2.329  12.589  0.4542 -0.1217  0.5221
13646TIP3    H162353   0.731   2.423  12.595 -2.1057  0.4818  0.3345
13646TIP3    H262354   0.688   2.316  12.497 -0.9298 -0.5672  0.9268
13647TIP3   OH262355   6.548   6.245   2.146  0.4690 -0.1623 -0.5802
13647TIP3    H162356   6.587   6.237   2.060 -1.5143  0.0753 -1.5707
13647TIP3    H262357   6.514   6.157   2.166 -0.9040  0.2344 -1.0239
13648TIP3   OH262358   2.507   3.378   6.379 -0.0263  0.1489 -0.2490
13648TIP3    H162359   2.447   3.383   6.454 -0.2213  0.6350 -0.4370
13648TIP3    H262360   2.567   3.451   6.392  1.3035 -1.0391  0.5981
13649TIP3   OH262361   0.808   5.804   0.881  0.2315  0.2614 -0.2805
13649TIP3    H162362   0.868   5.839   0.947 -0.3180 -1.4194  1.1636
13649TIP3    H262363   0.816   5.709   0.889 -0.6366  0.0119 -1.9262
13650TIP3   OH262364   4.438   2.512   4.172 -0.1902  0.5940 -0.2332
13650TIP3    H162365   4.379   2.489   4.244 -1.9433  0.7031 -1.5649
13650TIP3    H262366   4.400   2.592   4.136 -0.0234 -0.0830 -1.9882
13651TIP3   OH262367   5.795   3.034  16.915 -0.2296 -0.0456 -0.2754
13651TIP3    H162368   5.804   2.939  16.925  1.1440  0.0079 -0.7784
13651TIP3    H262369   5.840   3.054  16.833 -0.0266  1.1054  0.0979
13652TIP3   OH262370   5.241   3.132   3.345  0.0877  0.5130 -0.3165
13652TIP3    H162371   5.311   3.074   3.372 -0.0908  0.7785  0.7638
13652TIP3    H262372   5.204   3.166   3.427 -0.7805  0.9897 -0.8805
13653TIP3   OH262373   2.084   4.664  14.654 -0.0656  0.2206  0.3791
13653TIP3    H162374   2.061   4.620  14.736  0.6827  2.1743  1.7004
13653TIP3    H262375   2.079   4.594  14.588  0.8650 -1.8048  2.3030
13654TIP3   OH262376   4.757   6.433   3.848  0.2002  0.0847 -0.2203
13654TIP3    H162377   4.832   6.466   3.799  0.4563 -2.6547 -1.8734
13654TIP3    H262378   4.796   6.378   3.917 -0.1660 -2.1270 -1.6682
13655TIP3   OH262379   3.723   1.325   5.598 -0.1634 -0.1606  0.2928
13655TIP3    H162380   3.649   1.373   5.561  0.7361 -0.0387 -1.4527
13655TIP3    H262381   3.735   1.363   5.685  0.0095  2.2994 -0.7062
13656TIP3   OH262382   0.224   1.226   4.490 -0.0618  0.0508 -0.2476
13656TIP3    H162383   0.168   1.150   4.477  3.1096 -2.4101 -0.6771
13656TIP3    H262384   0.165   1.301   4.480 -3.6410 -2.2518  1.5591
13657TIP3   OH262385   1.165   4.523   4.062 -0.4668  0.4111  0.1730
13657TIP3    H162386   1.229   4.452   4.062 -0.2537  0.6002 -0.1599
13657TIP3    H262387   1.184   4.572   4.143 -0.6729  0.0419  0.4495
13658TIP3   OH262388   2.311   3.732   3.025 -0.2498 -0.4254  0.1324
13658TIP3    H162389   2.348   3.799   3.082 -0.3570  0.6403 -0.9973
13658TIP3    H262390   2.367   3.655   3.038  1.7305  0.8027 -0.7270
13659TIP3   OH262391   2.633   3.372  10.843  0.2882 -0.7976 -0.6378
13659TIP3    H162392   2.703   3.310  10.824  0.6882 -0.5778  0.0687
13659TIP3    H262393   2.586   3.334  10.917 -0.4900 -1.0552 -1.2546
13660TIP3   OH262394   6.821   6.796  12.240  0.4189  0.0400 -0.2015
13660TIP3    H162395   6.731   6.765  12.252  0.0827  0.1839 -2.0513
13660TIP3    H262396   6.858   6.797  12.328 -1.6356  0.7565  0.7181
13661TIP3   OH262397   0.340   3.648  16.861  0.4243 -0.0668 -0.2459
13661TIP3    H162398   0.280   3.607  16.923  0.4290 -0.0370 -0.2219
13661TIP3    H262399   0.341   3.740  16.887  0.7046 -0.1213 -0.0687
13662TIP3   OH262400   5.645   6.127  12.884  0.1960  0.2574 -0.2283
13662TIP3    H162401   5.573   6.163  12.936  0.0674 -1.0753  0.5552
13662TIP3    H262402   5.723   6.146  12.935  0.1392 -0.4478  0.1319
13663TIP3   OH262403   2.047   6.007   5.775  0.0985 -0.0143  0.0352
13663TIP3    H162404   2.041   6.096   5.740  0.4035 -0.0402 -0.0831
13663TIP3    H262405   1.956   5.979   5.785 -0.0014 -0.2734 -1.4075
13664TIP3   OH262406   1.135   5.509   3.386  0.2839  0.3992 -0.3356
13664TIP3    H162407   1.227   5.487   3.400  0.3867  1.4359  0.7366
13664TIP3    H262408   1.087   5.442   3.435  0.4997  0.5751  0.1200
13665TIP3   OH262409   2.403   0.858   3.170  0.3675  0.2379  0.6319
13665TIP3    H162410   2.431   0.803   3.096 -0.3877  1.1742 -0.3830
13665TIP3    H262411   2.479   0.913   3.189  1.5517 -1.8636  2.4196
13666TIP3   OH262412   3.419   4.319   0.370 -0.5516 -0.8101 -0.2765
13666TIP3    H162413   3.361   4.247   0.347 -2.2510 -0.2214  1.8293
13666TIP3    H262414   3.455   4.295   0.455 -0.0333  0.2048 -0.1855
13667TIP3   OH262415   0.183   5.967   4.683 -0.0181 -0.3106  0.0292
13667TIP3    H162416   0.135   5.917   4.749  1.6839  0.4954  2.0190
13667TIP3    H262417   0.263   5.916   4.667 -0.2908 -0.3590 -1.2242
13668TIP3   OH262418   4.742   5.138   3.228  0.3302  0.4880 -0.2817
13668TIP3    H162419   4.759   5.091   3.310  0.4150  1.3459  0.2082
13668TIP3    H262420   4.804   5.100   3.165  1.2777  0.8128  0.4349
13669TIP3   OH262421   4.206   5.884  14.575  0.2083  0.3303 -0.6153
13669TIP3    H162422   4.195   5.811  14.514  1.0246  0.4879 -0.9719
13669TIP3    H262423   4.203   5.962  14.520  1.3942  0.4527 -0.5242
13670TIP3   OH262424   3.583   0.218   5.763 -0.4198  0.1428 -0.7049
13670TIP3    H162425   3.624   0.305   5.759  2.7649 -1.2184 -1.1522
13670TIP3    H262426   3.581   0.197   5.856  1.2634 -0.2673 -0.7221
13671TIP3   OH262427   4.434   3.771   1.506  0.2218  0.1361  0.1333
13671TIP3    H162428   4.508   3.739   1.558 -1.0921 -1.0033  1.3981
13671TIP3    H262429   4.474   3.824   1.438  2.2487 -0.9257  0.4098
13672TIP3   OH262430   3.164   2.697  14.259 -0.5989 -0.5493 -0.2614
13672TIP3    H162431   3.198   2.759  14.194  0.6953  1.8138  2.4679
13672TIP3    H262432   3.075   2.728  14.278  0.1266  0.7122  1.2645
13673TIP3   OH262433   0.365   2.434  10.680  0.4635  0.3941 -0.6827
13673TIP3    H162434   0.289   2.478  10.718  0.1672 -0.3532 -0.4082
13673TIP3    H262435   0.439   2.465  10.732  0.4376  1.5362 -1.2809
13674TIP3   OH262436   2.365   2.951  15.728 -0.0065 -0.4512 -0.3289
13674TIP3    H162437   2.428   3.024  15.726 -0.0216 -0.3674  1.1857
13674TIP3    H262438   2.399   2.892  15.795 -1.8625 -0.0642  1.0344
13675TIP3   OH262439   4.790   2.894  12.274  0.4115  0.3324  0.0815
13675TIP3    H162440   4.775   2.928  12.185  0.0617  1.3052  0.4989
13675TIP3    H262441   4.884   2.880  12.278  0.3295 -0.5715 -0.7397
13676TIP3   OH262442   0.444   4.177   4.676 -0.0163 -0.2350 -0.1982
13676TIP3    H162443   0.408   4.089   4.668  0.2788 -0.2670 -1.4152
13676TIP3    H262444   0.448   4.194   4.770 -2.6074 -0.4612  0.0149
13677TIP3   OH262445   0.652   5.556   4.853  0.5296  0.5267  0.3321
13677TIP3    H162446   0.669   5.626   4.789  0.9155  1.2834  1.2371
13677TIP3    H262447   0.698   5.585   4.932  1.9446 -1.4735  0.3038
13678TIP3   OH262448   4.767   2.312  11.163  1.4999 -0.0064  0.2537
13678TIP3    H162449   4.804   2.240  11.112  2.9171  0.9709 -0.1569
13678TIP3    H262450   4.838   2.376  11.169  0.5897  0.9379  1.4371
13679TIP3   OH262451   4.803   2.367  14.491  0.0638 -0.0469  0.0540
13679TIP3    H162452   4.882   2.395  14.446  0.4308  0.3450  0.9203
13679TIP3    H262453   4.756   2.448  14.510  0.2194 -0.1382  0.9089
13680TIP3   OH262454   3.321   5.706  10.348 -0.5762  0.9695  0.3471
13680TIP3    H162455   3.415   5.717  10.367 -0.5859 -0.8703  1.7336
13680TIP3    H262456   3.296   5.788  10.306  1.3301  2.1061  1.2558
13681TIP3   OH262457   5.585   3.171  11.930  0.2983  0.1737 -0.3418
13681TIP3    H162458   5.510   3.137  11.881  0.7337 -1.1950 -0.1115
13681TIP3    H262459   5.550   3.194  12.016 -0.3248  1.9035 -1.0101
13682TIP3   OH262460   5.735   5.913   2.693 -0.3059  0.3482  0.5444
13682TIP3    H162461   5.687   5.853   2.750 -0.8260  1.0935  0.9014
13682TIP3    H262462   5.709   5.888   2.604  2.5110 -2.6220  0.3261
13683TIP3   OH262463   3.985   1.128  16.114  0.3430  0.1642 -0.1132
13683TIP3    H162464   3.920   1.190  16.082 -0.9186  0.0894  2.0501
13683TIP3    H262465   4.067   1.156  16.075 -0.7496  1.0903 -1.8698
13684TIP3   OH262466   3.327   5.127   4.942  0.1589  0.2062 -0.2332
13684TIP3    H162467   3.310   5.179   5.020  0.7597  0.1464 -0.0608
13684TIP3    H262468   3.361   5.190   4.878 -0.7260  0.3359 -0.5997
13685TIP3   OH262469   5.188   3.572  11.179 -0.0293  0.3091  0.4846
13685TIP3    H162470   5.261   3.537  11.229  1.4265 -0.0572 -1.7361
13685TIP3    H262471   5.156   3.498  11.128  0.1159  1.1610 -0.8962
13686TIP3   OH262472   5.168   4.763   0.944  0.6640 -0.6188  0.8435
13686TIP3    H162473   5.078   4.764   0.913  1.0166  0.4484 -0.2106
13686TIP3    H262474   5.163   4.795   1.034 -0.0304 -0.7901  0.8706
13687TIP3   OH262475   1.261   2.717   2.772 -0.0555 -0.1573  0.1505
13687TIP3    H162476   1.255   2.792   2.714  0.2471  0.5623  1.0360
13687TIP3    H262477   1.170   2.697   2.795 -0.1892 -0.5361 -0.6610
13688TIP3   OH262478   6.594   5.942  11.903 -0.3862 -0.6286 -0.0431
13688TIP3    H162479   6.601   5.895  11.819  1.3994  2.7588 -1.9752
13688TIP3    H262480   6.683   5.945  11.936 -1.0362 -1.6668  1.9531
13689TIP3   OH262481   3.257   2.020  14.063 -0.4529 -0.2435 -0.1569
13689TIP3    H162482   3.234   2.064  13.981 -0.6544  0.5763  0.3283
13689TIP3    H262483   3.259   2.090  14.128 -1.9519 -1.0900  0.8762
13690TIP3   OH262484   3.093   1.163   3.544 -0.5119 -0.4520  0.3563
13690TIP3    H162485   3.055   1.095   3.600  0.2491 -1.8132 -0.7283
13690TIP3    H262486   3.042   1.242   3.565 -0.5241 -0.9932  2.6367
13691TIP3   OH262487   6.785   5.455  13.880  0.1241 -0.7682  0.1453
13691TIP3    H162488   6.862   5.483  13.929  0.0669  0.9956 -0.6793
13691TIP3    H262489   6.811   5.374  13.837  1.4240 -0.3559  0.1309
13692TIP3   OH262490   3.958   3.854   2.428 -0.2239  0.2815 -0.0632
13692TIP3    H162491   3.997   3.803   2.356 -1.3670 -1.9788  0.8031
13692TIP3    H262492   4.014   3.835   2.503 -1.8075 -1.5050  0.7549
13693TIP3   OH262493   4.653   4.887  14.464 -0.2113 -0.0465 -0.5155
13693TIP3    H162494   4.589   4.860  14.529 -0.3282  2.1162  0.3691
13693TIP3    H262495   4.658   4.983  14.473  1.5938  0.0751 -2.0015
13694TIP3   OH262496   2.424   4.438   4.922 -0.5574  0.2180  0.0609
13694TIP3    H162497   2.355   4.376   4.945 -0.1112  0.1083  1.1420
13694TIP3    H262498   2.403   4.517   4.972  1.2197 -0.5073  2.0941
13695TIP3   OH262499   1.444   4.725   4.435  0.5428  0.0347  0.2390
13695TIP3    H162500   1.437   4.818   4.457  2.4533  0.5597 -1.1536
13695TIP3    H262501   1.462   4.682   4.519  0.9944  1.1048  0.7042
13696TIP3   OH262502   2.895   4.222   2.240 -0.3080  0.4555 -0.2630
13696TIP3    H162503   2.962   4.290   2.244  0.9296 -0.7489  0.2668
13696TIP3    H262504   2.913   4.175   2.159  0.8617 -1.1853  0.8932
13697TIP3   OH262505   5.533   2.445   1.096 -0.4332  0.3516  0.8602
13697TIP3    H162506   5.597   2.469   1.029 -1.9921  0.0435 -0.8100
13697TIP3    H262507   5.519   2.351   1.082 -0.9729  0.3368  1.4771
13698TIP3   OH262508   6.809   4.832   2.075 -0.1610  0.8805 -0.0451
13698TIP3    H162509   6.833   4.883   2.153  0.7694  0.2423  0.1063
13698TIP3    H262510   6.892   4.796   2.044 -0.7389 -0.2560 -0.3418
13699TIP3   OH262511   3.825   0.001   2.136  0.6156 -0.0862  0.2603
13699TIP3    H162512   3.873  -0.070   2.180  0.4140  0.3678  1.2074
13699TIP3    H262513   3.745  -0.041   2.105 -0.1372  0.0164  1.9922
13700TIP3   OH262514   4.221   2.698   0.573  0.0830  0.4709 -0.3462
13700TIP3    H162515   4.158   2.629   0.550 -1.0080  0.9232  1.1269
13700TIP3    H262516   4.243   2.680   0.665  1.8259  0.5672 -0.7089
13701TIP3   OH262517   2.455   6.330   2.169 -0.1288 -0.7983 -0.2101
13701TIP3    H162518   2.396   6.327   2.244 -2.4473  0.9624 -1.8124
13701TIP3    H262519   2.435   6.251   2.119 -2.2451  0.4518 -1.4474
13702TIP3   OH262520   2.167   4.757   2.312 -0.3646 -0.2528  0.1922
13702TIP3    H162521   2.229   4.704   2.362 -0.0672 -0.2156 -0.1280
13702TIP3    H262522   2.220   4.795   2.242 -0.9056 -0.8488 -0.5563
13703TIP3   OH262523   1.338   4.606   0.111 -0.1742 -0.1845  0.3688
13703TIP3    H162524   1.358   4.631   0.201  0.6603  2.6417 -0.5028
13703TIP3    H262525   1.410   4.548   0.085 -0.3953 -0.9797  1.4452
13704TIP3   OH262526   1.733   4.426   4.439 -0.7806 -0.1208 -0.6202
13704TIP3    H162527   1.806   4.375   4.405 -1.0209 -1.2191  0.4258
13704TIP3    H262528   1.713   4.386   4.523 -2.8229 -0.0796 -1.0343
13705TIP3   OH262529   3.089   5.441   2.493  0.0517  0.0726  0.1043
13705TIP3    H162530   3.032   5.486   2.555  0.5140 -0.6529  1.0736
13705TIP3    H262531   3.163   5.501   2.480  0.7175 -0.4212  1.4688
13706TIP3   OH262532   2.297   5.204  13.653 -0.7701 -0.4255  0.3326
13706TIP3    H162533   2.222   5.163  13.610 -0.7748  1.4427 -1.6212
13706TIP3    H262534   2.370   5.145  13.635 -0.2816  1.1545 -4.3844
13707TIP3   OH262535   2.103   3.825  14.290  0.1687 -0.2889 -0.5477
13707TIP3    H162536   2.056   3.875  14.357  1.3547  1.0961 -0.6959
13707TIP3    H262537   2.195   3.840  14.311  0.5548 -1.7687 -1.1075
13708TIP3   OH262538   6.107   1.821  16.536 -0.4321 -0.0074  0.6136
13708TIP3    H162539   6.178   1.759  16.519  1.2511  1.9282  0.1488
13708TIP3    H262540   6.116   1.843  16.628 -0.3662  0.2772  0.5415
13709TIP3   OH262541   2.656   5.026  14.961  0.4997  0.0925 -0.2383
13709TIP3    H162542   2.703   4.954  14.920 -0.3641 -0.4265 -0.3551
13709TIP3    H262543   2.724   5.085  14.993  1.2031 -0.2581 -1.0594
13710TIP3   OH262544   4.102   5.688  12.050 -0.2944  0.1879  0.1251
13710TIP3    H162545   4.018   5.707  12.093  0.3571  0.3039  1.4019
13710TIP3    H262546   4.112   5.758  11.985 -1.7216 -0.4939 -0.8804
13711TIP3   OH262547   5.799   6.030  16.637  0.5962 -0.4001 -0.4566
13711TIP3    H162548   5.722   5.977  16.619 -1.5371  1.7884  1.4858
13711TIP3    H262549   5.786   6.110  16.586  1.8822 -0.2038 -0.5243
13712TIP3   OH262550   0.055   4.111  12.949  0.1414 -0.1462  0.3358
13712TIP3    H162551   0.006   4.175  13.001 -0.0851 -0.9263  1.1213
13712TIP3    H262552   0.075   4.156  12.867 -2.3067  0.0743 -0.2229
13713TIP3   OH262553   0.273   0.864   5.191  0.0870  0.4108 -0.3505
13713TIP3    H162554   0.205   0.918   5.150  1.8843  1.9925 -1.4048
13713TIP3    H262555   0.289   0.905   5.276 -0.2671  0.0230 -0.0912
13714TIP3   OH262556   1.568   3.308  12.915 -0.0424  0.3991  0.2436
13714TIP3    H162557   1.544   3.253  12.841  1.3966 -0.2068  0.1922
13714TIP3    H262558   1.515   3.387  12.904 -0.0038  0.2426 -1.3262
13715TIP3   OH262559   5.590   4.117  15.280  0.0578  0.1736  0.2642
13715TIP3    H162560   5.495   4.121  15.277 -0.0793 -1.7811  0.7596
13715TIP3    H262561   5.619   4.165  15.202 -1.2866  1.0975  0.2958
13716TIP3   OH262562   2.750   5.331   6.153  1.1959 -0.1954 -0.4696
13716TIP3    H162563   2.751   5.270   6.227  0.9346  3.5311  2.9251
13716TIP3    H262564   2.686   5.293   6.093 -2.5438 -1.1447  3.5740
13717TIP3   OH262565   2.853   3.833  12.401 -0.0760 -0.8514  0.1174
13717TIP3    H162566   2.942   3.852  12.430 -0.6280 -0.4246  1.6109
13717TIP3    H262567   2.839   3.891  12.326  0.1055  0.7740  1.3104
13718TIP3   OH262568   0.730   5.784   4.385 -1.1729 -0.1358 -0.0487
13718TIP3    H162569   0.714   5.801   4.478 -0.1659  1.8556 -0.1820
13718TIP3    H262570   0.820   5.811   4.371 -0.7935 -1.8740 -1.3207
13719TIP3   OH262571   2.433   2.069  12.523 -0.4303 -0.6145 -0.0722
13719TIP3    H162572   2.436   2.160  12.552  0.1719 -0.9765  1.0494
13719TIP3    H262573   2.402   2.074  12.433 -0.2117  0.7174 -0.0956
13720TIP3   OH262574   6.552   4.136  11.683  0.2273  0.8590 -0.7902
13720TIP3    H162575   6.576   4.178  11.766  1.7092  0.3647 -0.9354
13720TIP3    H262576   6.526   4.047  11.708 -0.0380  0.9378 -0.7836
13721TIP3   OH262577   2.520   5.468   0.680  0.1075  0.1007 -0.0933
13721TIP3    H162578   2.501   5.516   0.599 -1.4966 -0.1630  0.0828
13721TIP3    H262579   2.517   5.376   0.654  1.6260  0.0357 -0.1179
13722TIP3   OH262580   2.667   4.305   4.921  0.3989  0.4820  0.3115
13722TIP3    H162581   2.602   4.258   4.869  0.7742 -0.5604  0.7372
13722TIP3    H262582   2.622   4.382   4.954  0.2490  1.3528 -1.8075
13723TIP3   OH262583   5.541   5.513  13.258 -0.2422 -0.3723  0.2437
13723TIP3    H162584   5.493   5.430  13.255  1.4588 -1.3926 -0.3318
13723TIP3    H262585   5.520   5.556  13.175 -2.2896  0.5251  1.1532
13724TIP3   OH262586   5.548   5.508   0.385 -0.2349  0.9096 -0.1492
13724TIP3    H162587   5.550   5.471   0.473  2.1139  0.2349 -0.4267
13724TIP3    H262588   5.534   5.433   0.327 -1.6833  1.3391 -0.4060
13725TIP3   OH262589   0.655   3.529   4.466 -0.5861 -0.7003 -0.2066
13725TIP3    H162590   0.585   3.586   4.434  0.2726  0.0864 -0.7514
13725TIP3    H262591   0.665   3.463   4.398 -1.4527 -1.4001  0.3344
13726TIP3   OH262592   3.263   6.188  14.711  0.5034  0.2953 -0.0736
13726TIP3    H162593   3.344   6.153  14.673  1.5505  1.9983  0.5165
13726TIP3    H262594   3.244   6.129  14.784  0.6423 -0.6869 -0.8010
13727TIP3   OH262595   0.904   0.493  13.687  0.3214  0.2800 -0.0193
13727TIP3    H162596   0.879   0.577  13.724 -0.6437 -0.3720  0.8633
13727TIP3    H262597   0.821   0.449  13.670  0.8163 -0.6232 -0.1692
13728TIP3   OH262598   1.276   0.484   1.251 -0.7421  0.3939  0.3008
13728TIP3    H162599   1.342   0.518   1.190 -1.5372  1.2520 -0.1028
13728TIP3    H262600   1.324   0.469   1.332 -0.3720  2.7879  0.6037
13729TIP3   OH262601   5.903   2.295   4.076 -0.2390 -0.6157 -0.0459
13729TIP3    H162602   5.966   2.232   4.109  0.9656  0.8928  0.6520
13729TIP3    H262603   5.943   2.380   4.092 -1.5456  0.3301 -1.4878
13730TIP3   OH262604   5.143   6.055   0.103  0.3298 -0.1438 -0.1835
13730TIP3    H162605   5.070   5.995   0.090  0.8868 -1.6244  2.6476
13730TIP3    H262606   5.103   6.141   0.113 -0.8432 -0.6179 -0.6379
13731TIP3   OH262607   3.732   2.797   5.005  0.3712 -0.2697  0.1429
13731TIP3    H162608   3.662   2.785   5.069  0.3191  1.3376  0.4327
13731TIP3    H262609   3.808   2.754   5.045  0.0392 -0.2988  0.7599
13732TIP3   OH262610   3.309   5.978  12.553  0.3136 -0.2841  0.4813
13732TIP3    H162611   3.320   5.945  12.643 -0.4611  0.2151  0.7658
13732TIP3    H262612   3.383   6.037  12.540  0.3835 -0.2952  0.8210
13733TIP3   OH262613   4.339   1.095   3.413  0.4243 -0.1013 -0.5916
13733TIP3    H162614   4.258   1.069   3.370 -0.9910 -0.2704  1.9967
13733TIP3    H262615   4.332   1.190   3.423  1.5611  0.1994 -2.1846
13734TIP3   OH262616   2.022   6.588   1.715 -0.4674 -0.4034  0.0198
13734TIP3    H162617   2.071   6.572   1.795 -1.4794 -1.6895  0.4168
13734TIP3    H262618   1.930   6.588   1.742 -0.8130 -0.6418 -1.0966
13735TIP3   OH262619   5.688   5.317  12.171  0.8980  0.0641  0.3686
13735TIP3    H162620   5.753   5.381  12.143 -0.3382  1.2631  0.1504
13735TIP3    H262621   5.702   5.242  12.113  0.9355  1.0000 -0.8717
13736TIP3   OH262622   4.869   1.740   0.378 -0.0824 -0.2391  0.5358
13736TIP3    H162623   4.820   1.661   0.399 -0.0705 -0.9859 -1.8902
13736TIP3    H262624   4.851   1.755   0.285  2.5089  0.7320  0.1066
13737TIP3   OH262625   2.691   2.600   4.344  0.7531  0.3095 -0.1646
13737TIP3    H162626   2.755   2.659   4.303  0.0369  1.2550  0.0573
13737TIP3    H262627   2.606   2.632   4.314  0.2475  0.6105  1.5143
13738TIP3   OH262628   2.638   3.404   0.088  0.0128 -0.4468  0.3477
13738TIP3    H162629   2.671   3.401   0.178  3.5441 -1.3446 -0.7948
13738TIP3    H262630   2.589   3.323   0.077 -1.8783  0.4215  1.8403
13739TIP3   OH262631   3.907   3.738   1.801  0.2059 -0.4300  0.2531
13739TIP3    H162632   3.873   3.649   1.795  0.8214 -0.5967 -1.1316
13739TIP3    H262633   3.877   3.781   1.721  0.7990  0.2939  0.4001
13740TIP3   OH262634   5.594   3.457  14.212  0.3251 -0.0009  0.2701
13740TIP3    H162635   5.652   3.526  14.244  0.6340  0.0246 -0.3284
13740TIP3    H262636   5.548   3.426  14.290  0.1620  0.8968  0.5334
13741TIP3   OH262637   0.679   5.160  16.880 -0.0672 -0.6501  0.3826
13741TIP3    H162638   0.672   5.089  16.815  0.2930 -1.5455  1.3013
13741TIP3    H262639   0.674   5.115  16.964  0.1691  0.4354  0.9804
13742TIP3   OH262640   4.442   0.296  15.396  0.5924  0.0987  0.3665
13742TIP3    H162641   4.520   0.301  15.451  1.4059  0.4397 -0.7807
13742TIP3    H262642   4.400   0.214  15.422  0.0126  1.0585  2.6672
13743TIP3   OH262643   3.999   6.025  16.969 -0.3512  0.6600  0.2860
13743TIP3    H162644   3.920   5.978  16.941 -0.3737  0.7491  0.2009
13743TIP3    H262645   4.071   5.975  16.930 -0.4206  1.3788 -0.8337
13744TIP3   OH262646   2.189   4.115   1.273 -0.7385 -0.1849  0.3756
13744TIP3    H162647   2.106   4.117   1.320 -2.5642 -0.6817 -2.5399
13744TIP3    H262648   2.251   4.076   1.334 -1.9866  2.3029  3.5031
13745TIP3   OH262649   3.524   4.065  13.238 -0.5709  0.0017 -0.2345
13745TIP3    H162650   3.558   3.981  13.270  0.4753  1.2071  2.0380
13745TIP3    H262651   3.435   4.070  13.274 -0.7072 -0.1965 -0.5363
13746TIP3   OH262652   4.041   6.718   1.511  0.1275 -0.2830 -0.5276
13746TIP3    H162653   4.129   6.693   1.539  0.8193  2.1444 -0.2852
13746TIP3    H262654   4.007   6.641   1.466  2.4631 -1.2295 -0.8101
13747TIP3   OH262655   5.265   0.054  16.602 -1.1610 -0.1676  0.7496
13747TIP3    H162656   5.208   0.099  16.540 -1.3142 -0.3513  0.7570
13747TIP3    H262657   5.211  -0.017  16.637 -1.3407  0.4037  1.6702
13748TIP3   OH262658   0.009   1.771  15.609 -0.0475 -0.0218  0.0540
13748TIP3    H162659  -0.061   1.820  15.651 -0.8647 -1.5762  0.5783
13748TIP3    H262660  -0.028   1.744  15.524  1.0178  1.7027 -1.0263
13749TIP3   OH262661   5.989   1.266   3.494  0.0720  0.2999 -0.3226
13749TIP3    H162662   5.916   1.255   3.433 -1.0114 -0.9280  1.1189
13749TIP3    H262663   6.046   1.191   3.476 -0.2446 -0.0590  0.1493
13750TIP3   OH262664   1.518   1.641   4.400 -0.6165 -0.3213 -0.5942
13750TIP3    H162665   1.459   1.667   4.330 -0.0681 -0.8060 -1.2510
13750TIP3    H262666   1.497   1.549   4.417 -1.3419  0.0234  0.4964
13751TIP3   OH262667   2.117   2.232   4.210 -0.6383 -0.5891  0.2531
13751TIP3    H162668   2.183   2.297   4.188 -1.0892  0.9485  3.0374
13751TIP3    H262669   2.072   2.214   4.127  0.8061  1.1315 -0.9730
13752TIP3   OH262670   0.980   2.292   3.726 -0.3793  0.2507 -0.1341
13752TIP3    H162671   0.966   2.203   3.759  0.1083  0.3204  0.2817
13752TIP3    H262672   0.904   2.309   3.671  0.3409 -1.0639 -1.6201
13753TIP3   OH262673   0.851   4.046   4.050 -0.4622  0.3181  0.5533
13753TIP3    H162674   0.946   4.036   4.059 -0.4181  0.7872  0.6445
13753TIP3    H262675   0.839   4.140   4.034 -0.9655  0.3742  1.2662
13754TIP3   OH262676   2.530   2.808  17.029 -0.3013  0.1901 -0.0408
13754TIP3    H162677   2.577   2.726  17.017 -1.1514 -0.3433  0.1636
13754TIP3    H262678   2.573   2.869  16.970  0.5999 -0.2938  0.1078
13755TIP3   OH262679   3.725   5.453  15.046 -0.8236  0.2009 -0.1794
13755TIP3    H162680   3.696   5.362  15.052 -2.6304  0.4722 -2.9919
13755TIP3    H262681   3.819   5.450  15.063 -1.0276 -1.9965  0.9160
13756TIP3   OH262682   3.788   1.773   1.436  0.0030 -0.0596  0.5669
13756TIP3    H162683   3.724   1.834   1.399 -1.9613 -0.9711  2.2570
13756TIP3    H262684   3.766   1.689   1.397 -0.2108 -0.4751  1.5482
13757TIP3   OH262685   3.513   6.671  13.919 -0.1757  0.1118  0.7434
13757TIP3    H162686   3.495   6.697  13.829  0.0985  1.9737  1.1974
13757TIP3    H262687   3.578   6.734  13.950  2.1194 -2.3428  1.3101
13758TIP3   OH262688   2.421   5.992  11.640  0.3117 -0.0361 -0.1033
13758TIP3    H162689   2.357   6.017  11.706 -0.8521 -1.1631 -0.7597
13758TIP3    H262690   2.481   6.066  11.635  0.6058 -0.0178  2.3780
13759TIP3   OH262691   2.832   4.741   3.046  0.0844 -0.0391 -0.1310
13759TIP3    H162692   2.782   4.678   3.097  0.9940 -1.0147 -0.4082
13759TIP3    H262693   2.769   4.777   2.984 -0.4630 -0.6604  0.0507
13760TIP3   OH262694   2.480   2.516  14.145 -0.1172  0.1127 -0.4851
13760TIP3    H162695   2.488   2.603  14.107  0.4210  0.9118  1.3350
13760TIP3    H262696   2.386   2.506  14.164  0.1449  1.6015  2.0367
13761TIP3   OH262697   4.415   0.573   0.163 -0.1180 -0.4742 -0.6690
13761TIP3    H162698   4.325   0.556   0.136 -0.6486  0.3606  0.5284
13761TIP3    H262699   4.445   0.491   0.202 -1.5700  0.2072  2.1136
13762TIP3   OH262700   0.760   3.630  17.044 -0.1915  0.0622 -0.3427
13762TIP3    H162701   0.843   3.583  17.035 -0.2104  0.1852 -1.3443
13762TIP3    H262702   0.694   3.568  17.012 -0.6686 -0.5002  1.6044
13763TIP3   OH262703   5.668   1.954   5.418  0.4674 -0.1303 -0.1065
13763TIP3    H162704   5.625   2.005   5.487  0.7120  0.0857 -0.1118
13763TIP3    H262705   5.736   1.905   5.464  2.4870  2.0974 -0.5507
13764TIP3   OH262706   1.926   0.497   3.431  0.3058  0.0406 -0.3837
13764TIP3    H162707   1.993   0.487   3.499 -0.4068 -0.0568  0.3139
13764TIP3    H262708   1.893   0.409   3.416 -1.3170  0.3637  0.9923
13765TIP3   OH262709   2.690   3.534   5.806  0.0163 -0.1043 -0.4763
13765TIP3    H162710   2.746   3.469   5.848 -1.4515 -0.7704  0.5507
13765TIP3    H262711   2.646   3.578   5.878 -0.3188  0.8364 -1.2301
13766TIP3   OH262712   4.308   6.647  12.938 -0.1213 -0.7305  0.1236
13766TIP3    H162713   4.270   6.731  12.963 -1.7015 -1.8085  1.5383
13766TIP3    H262714   4.399   6.653  12.966  0.1045  0.9003 -0.8357
13767TIP3   OH262715   4.377   1.943  16.855 -0.4023  0.1075 -0.2890
13767TIP3    H162716   4.380   1.951  16.951  0.0568  0.0900 -0.3022
13767TIP3    H262717   4.439   1.874  16.835  0.3978  0.9296 -0.6933
13768TIP3   OH262718   4.797   0.158  15.743  0.5729  0.0234 -0.3580
13768TIP3    H162719   4.892   0.161  15.758  0.7474  0.0823 -1.3533
13768TIP3    H262720   4.758   0.156  15.830  1.5158 -0.6784  0.0627
13769TIP3   OH262721   5.044   3.423   3.272 -0.2393  0.0743  0.0049
13769TIP3    H162722   5.106   3.443   3.202  1.0031  0.7043  1.2326
13769TIP3    H262723   5.041   3.503   3.325 -2.1176  0.0575 -0.0050
13770TIP3   OH262724   1.825   6.600  13.268  0.0751 -0.2798  0.3968
13770TIP3    H162725   1.809   6.505  13.268 -0.9162 -0.1280 -0.0759
13770TIP3    H262726   1.912   6.610  13.231 -0.2120 -0.9577 -0.4974
13771TIP3   OH262727   0.428   0.145  14.698  0.2931 -0.4958  0.3317
13771TIP3    H162728   0.490   0.100  14.755 -1.4527 -2.7093  0.5972
13771TIP3    H262729   0.436   0.101  14.613 -0.6190 -0.5403  0.2549
13772TIP3   OH262730   3.989   3.120   6.364  0.6464  0.2584 -0.0416
13772TIP3    H162731   3.963   3.080   6.281 -0.6275  0.5390  0.1959
13772TIP3    H262732   3.907   3.125   6.414  1.3126  0.5294  1.0404
13773TIP3   OH262733   0.816   4.314   0.503  0.1711  0.8165 -0.4212
13773TIP3    H162734   0.834   4.348   0.415  0.3294  1.3730 -0.1755
13773TIP3    H262735   0.782   4.226   0.488 -0.3930  1.1378 -1.0785
13774TIP3   OH262736   1.386   2.637   0.198  0.0513  0.0811 -0.6756
13774TIP3    H162737   1.421   2.615   0.111  0.3252 -0.4663 -0.4351
13774TIP3    H262738   1.437   2.713   0.226  1.2899 -0.8969 -0.1984
13775TIP3   OH262739   3.388   0.398  11.441  0.4059  0.0080 -0.3326
13775TIP3    H162740   3.460   0.420  11.382 -0.5054  2.2029 -0.7345
13775TIP3    H262741   3.379   0.303  11.435  2.3607 -0.1597 -1.2972
13776TIP3   OH262742   1.315   2.364   1.776  0.3255  0.4800 -0.0232
13776TIP3    H162743   1.279   2.278   1.752  1.7960 -0.1437 -0.0993
13776TIP3    H262744   1.249   2.402   1.834 -1.9163  0.7352 -2.5451
13777TIP3   OH262745   4.489   1.690  14.999 -0.5705 -0.4550 -0.1030
13777TIP3    H162746   4.462   1.655  14.914  1.2494 -1.4126 -0.3373
13777TIP3    H262747   4.570   1.739  14.980 -2.8738  3.9617  0.2308
13778TIP3   OH262748   3.978   5.435  15.144  0.0908  0.5236  0.3607
13778TIP3    H162749   4.027   5.512  15.116  0.3019  0.5370  0.7648
13778TIP3    H262750   4.018   5.361  15.098 -1.1025  0.8244 -1.2618
13779TIP3   OH262751   6.061   5.904   2.594  0.3320  0.4005 -0.3181
13779TIP3    H162752   6.064   5.999   2.599 -0.5189  0.3572  2.4605
13779TIP3    H262753   5.978   5.885   2.550 -0.1196  0.9525  0.2803
13780TIP3   OH262754   2.111   4.908   1.654  0.0053  0.2924  0.0259
13780TIP3    H162755   2.127   4.935   1.744 -1.4905  2.3626 -0.2599
13780TIP3    H262756   2.023   4.871   1.655  0.7069 -1.4849 -0.2723
13781TIP3   OH262757   2.828   3.016  11.759 -0.1881 -0.1236  0.5064
13781TIP3    H162758   2.873   3.017  11.843  0.2084  0.2667  0.2923
13781TIP3    H262759   2.795   2.927  11.750 -0.4239 -0.1053  1.1765
13782TIP3   OH262760   6.750   0.031  10.876  0.0867 -0.2131 -0.1141
13782TIP3    H162761   6.723   0.014  10.786  0.5310  2.0983 -0.7568
13782TIP3    H262762   6.843   0.011  10.877 -0.3646 -2.4688  0.4990
13783TIP3   OH262763   4.429   4.388  10.603  0.6281 -0.8502  0.1322
13783TIP3    H162764   4.478   4.323  10.653 -1.2072  0.1602  3.5146
13783TIP3    H262765   4.339   4.356  10.602 -0.2208  1.2779  1.4306
13784TIP3   OH262766   5.610   4.196   1.617  0.1365  0.2344  0.3940
13784TIP3    H162767   5.682   4.190   1.553  1.0853 -0.3861  1.4684
13784TIP3    H262768   5.577   4.285   1.608  1.1264  0.5734 -0.0546
13785TIP3   OH262769   0.240   2.531   1.835  0.4800  0.6312  0.1447
13785TIP3    H162770   0.284   2.480   1.768  0.0698  0.1070  0.2642
13785TIP3    H262771   0.178   2.586   1.787  0.5473  0.6305  0.0569
13786TIP3   OH262772   1.844   1.220   5.291 -0.8638  0.3071  0.1194
13786TIP3    H162773   1.935   1.242   5.312 -0.9244  3.2642 -2.0232
13786TIP3    H262774   1.824   1.273   5.214 -4.1724 -0.9024 -0.0084
13787TIP3   OH262775   4.884   3.206  14.572  0.6404  0.1439  0.0730
13787TIP3    H162776   4.878   3.263  14.496 -0.5911 -0.1529 -0.0769
13787TIP3    H262777   4.977   3.185  14.579  0.8255  0.4851 -1.1160
13788TIP3   OH262778   4.450   4.758  15.171  0.0234 -0.3740 -0.3203
13788TIP3    H162779   4.416   4.714  15.249  1.4915  0.8616  1.0800
13788TIP3    H262780   4.540   4.724  15.162  0.6962  1.2652 -0.0258
13789TIP3   OH262781   0.662   3.458  12.877 -0.0987  0.0793  0.4443
13789TIP3    H162782   0.656   3.394  12.947 -1.1406 -0.3439 -0.0091
13789TIP3    H262783   0.749   3.446  12.840 -0.5551 -1.6424 -0.1483
13790TIP3   OH262784   5.148   3.499   5.598 -0.2763  0.4131 -0.1325
13790TIP3    H162785   5.181   3.562   5.662 -1.2318  1.1956 -0.3781
13790TIP3    H262786   5.054   3.495   5.615 -0.3622 -0.2621 -0.7279
13791TIP3   OH262787   3.102   2.372  14.955 -0.9157 -0.1822 -0.0084
13791TIP3    H162788   3.056   2.371  14.871  0.5522  1.3345 -0.8738
13791TIP3    H262789   3.085   2.460  14.990 -0.9712 -0.5804  0.9836
13792TIP3   OH262790   0.624   2.092  12.371 -0.0652  0.3816 -0.4493
13792TIP3    H162791   0.618   2.008  12.326  2.8848  0.7379 -1.7237
13792TIP3    H262792   0.627   2.070  12.464  2.2384 -1.1289 -0.8117
13793TIP3   OH262793   2.828   4.236   3.167  0.5685 -0.5122 -0.1275
13793TIP3    H162794   2.918   4.251   3.195  1.2567 -2.2394 -1.2225
13793TIP3    H262795   2.800   4.159   3.217  0.2193 -0.8521 -0.8237
13794TIP3   OH262796   0.295   3.810   5.489  0.0398  0.2105  0.1567
13794TIP3    H162797   0.350   3.887   5.504  1.2447 -0.7057  0.5691
13794TIP3    H262798   0.309   3.755   5.566 -1.2915 -0.1610  0.1649
13795TIP3   OH262799   1.260   6.781   5.066 -0.4008  0.2466  0.0846
13795TIP3    H162800   1.231   6.820   5.149 -0.3911  0.6102 -0.0805
13795TIP3    H262801   1.185   6.729   5.036  0.7650 -2.9019  2.1077
13796TIP3   OH262802   2.479   4.392   3.549  0.2102  0.8009 -0.6379
13796TIP3    H162803   2.530   4.465   3.514  2.6044 -0.2593  0.4170
13796TIP3    H262804   2.467   4.413   3.642 -0.0164  0.3585 -0.5626
13797TIP3   OH262805   0.699   2.417  12.224 -0.2175 -0.2490 -0.1096
13797TIP3    H162806   0.762   2.364  12.273 -1.0814 -1.4084 -0.2236
13797TIP3    H262807   0.693   2.499  12.274 -0.9542 -1.3293  1.6920
13798TIP3   OH262808   4.588   3.270   5.177 -0.1899 -0.1850  0.0283
13798TIP3    H162809   4.618   3.339   5.118  0.4264 -0.1275  0.4046
13798TIP3    H262810   4.530   3.215   5.123 -2.1170  1.5964  0.1550
13799TIP3   OH262811   4.649   2.253   5.815  0.0247 -0.3591  0.1483
13799TIP3    H162812   4.667   2.219   5.903  0.0410 -1.4657 -0.2756
13799TIP3    H262813   4.668   2.347   5.822  4.6716 -1.0463  0.1607
13800TIP3   OH262814   5.573   5.765   0.041  0.0069 -0.3344 -0.1312
13800TIP3    H162815   5.662   5.800   0.043 -0.0631 -0.1822  0.3925
13800TIP3    H262816   5.563   5.719   0.124  0.0791 -1.5745 -0.7869
13801TIP3   OH262817   2.803   4.376  11.865 -0.4178  0.3780  0.2747
13801TIP3    H162818   2.881   4.338  11.824 -0.9642  0.7244 -1.1300
13801TIP3    H262819   2.759   4.301  11.906 -1.5816 -0.6631 -2.6134
13802TIP3   OH262820   1.107   4.110   3.686  0.7260 -0.2478  0.3733
13802TIP3    H162821   1.150   4.165   3.752 -0.4385 -0.7083  1.5460
13802TIP3    H262822   1.153   4.130   3.605  3.3167 -0.8583  1.5762
13803TIP3   OH262823   5.321   5.145  15.106 -0.1994 -0.4062  0.1513
13803TIP3    H162824   5.239   5.105  15.135  0.2528 -1.3358  0.1670
13803TIP3    H262825   5.343   5.099  15.025  0.2958 -0.1377  0.1317
13804TIP3   OH262826   4.202   4.953  15.010 -0.1849 -0.1781  0.2376
13804TIP3    H162827   4.191   4.865  15.045  0.1336  0.0923  1.0509
13804TIP3    H262828   4.292   4.977  15.034 -0.2785  0.3768  0.0572
13805TIP3   OH262829   0.990   2.008   3.774  0.4533  0.0618 -0.0035
13805TIP3    H162830   1.039   2.010   3.856  0.2787  2.2319  0.1114
13805TIP3    H262831   0.911   1.958   3.795  1.7468 -1.9416  0.2903
13806TIP3   OH262832   1.393   6.133   0.849 -0.2058  0.3522 -0.1221
13806TIP3    H162833   1.320   6.078   0.820  0.5757 -0.5932 -0.3555
13806TIP3    H262834   1.393   6.207   0.788 -0.4261 -0.0915 -0.6681
13807TIP3   OH262835   1.744   0.114  16.679 -0.0131  0.5315  0.3188
13807TIP3    H162836   1.702   0.114  16.765 -0.1190  0.5421  0.2670
13807TIP3    H262837   1.694   0.052  16.627  0.0814  0.4881  0.2793
13808TIP3   OH262838   2.642   2.095  15.099 -0.1907 -0.2627  0.0908
13808TIP3    H162839   2.633   2.013  15.050 -3.4396 -0.3275  0.6113
13808TIP3    H262840   2.560   2.142  15.083  0.8039  2.0580  1.3415
13809TIP3   OH262841   1.935   1.390   3.473 -0.0673 -0.1255 -0.2655
13809TIP3    H162842   1.964   1.478   3.498  0.5032 -0.6150  0.8934
13809TIP3    H262843   1.963   1.380   3.382 -0.7033  1.1147 -0.6142
13810TIP3   OH262844   3.931   1.007  13.764  0.2087  0.3253  0.3437
13810TIP3    H162845   3.922   0.913  13.749  1.1993 -0.0009  1.5729
13810TIP3    H262846   4.002   1.034  13.707  0.4844  0.1444  0.5948
13811TIP3   OH262847   6.150   2.148  12.563  0.3378 -0.5169 -0.2613
13811TIP3    H162848   6.056   2.152  12.550  0.1653  0.7080  1.1228
13811TIP3    H262849   6.187   2.170  12.478 -0.5895 -1.7487 -1.0165
13812TIP3   OH262850   3.814   2.680  13.876  0.2700 -0.6163 -0.8985
13812TIP3    H162851   3.862   2.664  13.958 -0.1509 -0.1268 -0.5480
13812TIP3    H262852   3.882   2.700  13.812  0.4802  2.2781  0.0867
13813TIP3   OH262853   6.786   5.921  16.293  0.4665  0.1352 -0.5190
13813TIP3    H162854   6.863   5.872  16.262  0.2485 -0.9322  0.5585
13813TIP3    H262855   6.723   5.914  16.221  0.9869  0.0976 -0.9752
13814TIP3   OH262856   5.846   3.927  15.447 -0.1477  0.2666 -0.0462
13814TIP3    H162857   5.827   3.840  15.481 -2.9674 -0.2889 -2.6119
13814TIP3    H262858   5.760   3.966  15.431  1.0336  2.8075 -0.7434
13815TIP3   OH262859   1.902   1.765   4.632  0.7067  0.1510  0.2740
13815TIP3    H162860   1.845   1.842   4.641  0.7751  0.0140  2.4884
13815TIP3    H262861   1.845   1.691   4.651  0.8734 -0.2916 -0.8708
13816TIP3   OH262862   3.076   3.362  15.379 -0.4205 -0.2601  1.0097
13816TIP3    H162863   2.981   3.356  15.374 -0.6009  1.0271  2.2895
13816TIP3    H262864   3.107   3.318  15.300 -2.0678 -0.5806  0.5029
13817TIP3   OH262865   3.538   2.787   6.592 -0.1571  0.0733  0.1123
13817TIP3    H162866   3.517   2.693   6.593 -1.2503  0.3044  1.2899
13817TIP3    H262867   3.631   2.791   6.611 -0.3097 -0.7451  1.0999
13818TIP3   OH262868   3.339   3.102  14.483  0.2557  0.3998  0.2720
13818TIP3    H162869   3.433   3.108  14.464  0.2904  0.4941  0.4699
13818TIP3    H262870   3.298   3.092  14.397  0.5574 -1.0758  0.2820
13819TIP3   OH262871   3.270   1.867  11.852  0.0736  0.4333  0.0878
13819TIP3    H162872   3.322   1.948  11.852 -0.8720  1.0547  0.8208
13819TIP3    H262873   3.184   1.893  11.820  0.7640 -1.0115 -3.3936
13820TIP3   OH262874   1.350   6.597  13.748 -0.6064 -0.3107  0.3742
13820TIP3    H162875   1.431   6.597  13.798 -0.8569  0.5672  0.7862
13820TIP3    H262876   1.282   6.619  13.811 -1.1326 -0.7395 -0.0284
13821TIP3   OH262877   2.482   4.804  15.608  0.0395  0.0849 -0.0329
13821TIP3    H162878   2.486   4.887  15.560  0.6526 -0.6341 -1.2646
13821TIP3    H262879   2.451   4.740  15.543 -0.9139 -0.5714  1.0336
13822TIP3   OH262880   1.616   6.655  16.567 -0.7139  0.5358 -0.5152
13822TIP3    H162881   1.607   6.650  16.662  0.2785  0.6017 -0.4064
13822TIP3    H262882   1.545   6.600  16.534 -0.1462 -0.7611  0.3122
13823TIP3   OH262883   2.366   1.490  15.722 -0.4365  0.2241 -0.2697
13823TIP3    H162884   2.441   1.506  15.665  0.6491 -1.4438  0.6086
13823TIP3    H262885   2.401   1.503  15.811 -1.5691  0.7841  0.1233
13824TIP3   OH262886   1.097   1.296   1.594 -0.3908  0.3393 -0.2508
13824TIP3    H162887   1.038   1.368   1.615  1.3285  2.1231 -1.1394
13824TIP3    H262888   1.185   1.330   1.613  0.4552 -1.8047  0.0138
13825TIP3   OH262889   5.745   0.421   5.306  0.4195  0.0359  0.4053
13825TIP3    H162890   5.767   0.474   5.229  1.4876 -1.3150 -0.2705
13825TIP3    H262891   5.827   0.376   5.328 -0.5741 -1.7283  0.6241
13826TIP3   OH262892   1.490   4.900   5.848 -0.7407 -0.8864  0.2360
13826TIP3    H162893   1.489   4.963   5.775  0.6541 -2.8280 -1.6108
13826TIP3    H262894   1.471   4.952   5.925 -0.4730  1.6409 -1.2857
13827TIP3   OH262895   1.019   2.822  15.195  0.3371  0.2261 -0.7702
13827TIP3    H162896   1.080   2.890  15.222  0.2602  0.3593 -0.9358
13827TIP3    H262897   0.960   2.812  15.271  0.9024 -0.2957 -0.3907
13828TIP3   OH262898   1.191   6.611  15.008 -0.0886  0.9799  0.1555
13828TIP3    H162899   1.212   6.518  15.016 -1.1776  0.4907 -1.9643
13828TIP3    H262900   1.275   6.651  14.983  0.0802  0.3059 -0.4278
13829TIP3   OH262901   0.969   4.247  16.917 -0.2563  0.1118 -0.5175
13829TIP3    H162902   1.012   4.311  16.974 -0.4345 -0.8027  0.6977
13829TIP3    H262903   0.876   4.257  16.936 -0.1788 -1.9139  1.3246
13830TIP3   OH262904   1.317   5.125   2.669  0.1366 -0.2022  0.3597
13830TIP3    H162905   1.376   5.116   2.744 -0.0409 -0.8674  0.4216
13830TIP3    H262906   1.375   5.144   2.595  0.3617 -0.0975  0.5646
13831TIP3   OH262907   3.099   4.024   4.213  0.0242 -0.0855 -0.0860
13831TIP3    H162908   3.110   3.953   4.150  0.6627  0.5873 -0.7595
13831TIP3    H262909   3.112   4.104   4.161  1.1370  0.4699  1.0106
13832TIP3   OH262910   4.941   6.568   3.710  0.7759 -0.6756 -0.2936
13832TIP3    H162911   5.021   6.579   3.761  0.6402  0.5000 -0.3199
13832TIP3    H262912   4.964   6.594   3.622  0.3647 -0.3229 -0.2998
13833TIP3   OH262913   3.539   0.482   4.081  0.6599 -0.2250  0.4236
13833TIP3    H162914   3.566   0.535   4.156  0.1390  1.3247 -0.4341
13833TIP3    H262915   3.461   0.436   4.111 -0.9910  2.2179  0.1889
13834TIP3   OH262916   4.458   2.574   5.870  0.1023 -0.1401 -0.4905
13834TIP3    H162917   4.456   2.575   5.965 -0.7868  2.5821 -0.4340
13834TIP3    H262918   4.549   2.557   5.848  0.4432 -0.1753  0.8600
13835TIP3   OH262919   5.084   4.106  16.348 -0.4693  0.2008  0.2930
13835TIP3    H162920   5.161   4.155  16.319 -0.2372 -0.0379  0.5056
13835TIP3    H262921   5.103   4.015  16.323 -0.7004  0.1473  0.3072
13836TIP3   OH262922   2.587   2.992  15.998 -0.1854 -0.1088 -0.3322
13836TIP3    H162923   2.568   2.913  16.048  1.9867 -0.1313  0.5958
13836TIP3    H262924   2.668   3.026  16.037 -0.6725  2.1986 -1.1477
13837TIP3   OH262925   5.894   0.747  13.337  0.0072 -0.1285  0.7803
13837TIP3    H162926   5.821   0.809  13.340  0.7878  0.9224 -0.4980
13837TIP3    H262927   5.861   0.674  13.284  0.0509  0.6243 -0.3207
13838TIP3   OH262928   0.310   0.658  12.064  0.0964 -0.3100 -0.4531
13838TIP3    H162929   0.275   0.609  11.990  0.5051  0.3098 -1.0775
13838TIP3    H262930   0.258   0.739  12.066 -0.5121 -0.7093  0.5073
13839TIP3   OH262931   0.156   4.807  11.648  1.0869  0.1307  0.3585
13839TIP3    H162932   0.142   4.750  11.572 -0.4626 -0.5302  1.0938
13839TIP3    H262933   0.191   4.748  11.715  0.1777  0.1831  0.8910
13840TIP3   OH262934   1.044   4.899  13.666  0.0483  0.2930 -0.0365
13840TIP3    H162935   1.071   4.809  13.646  0.1706  0.5961 -1.3459
13840TIP3    H262936   1.047   4.944  13.581  1.6166  1.9608  0.8281
13841TIP3   OH262937   5.862   1.674  13.192 -0.0089 -0.1563 -0.9824
13841TIP3    H162938   5.793   1.739  13.205 -0.6440 -1.2409  1.8656
13841TIP3    H262939   5.815   1.593  13.174  0.5290 -0.7207  0.0829
13842TIP3   OH262940   0.204   0.849   1.786  0.6583  0.2302 -0.0025
13842TIP3    H162941   0.261   0.783   1.746  0.2156 -0.6653  0.7991
13842TIP3    H262942   0.151   0.881   1.713 -0.9751 -2.2492 -0.0627
13843TIP3   OH262943   1.145   0.341   3.642  0.4666 -0.0916  0.0047
13843TIP3    H162944   1.209   0.374   3.580  2.7748 -2.5166  0.9203
13843TIP3    H262945   1.181   0.365   3.728 -0.6751 -0.1746  0.5226
13844TIP3   OH262946   4.027   3.992  15.083 -0.2498  0.0988  0.2503
13844TIP3    H162947   3.974   4.066  15.114 -0.3334 -0.2703  0.9972
13844TIP3    H262948   4.100   4.033  15.036 -1.1561  0.6137 -0.7428
13845TIP3   OH262949   0.683   6.604   5.031  0.6206 -0.1856 -0.1676
13845TIP3    H162950   0.686   6.689   5.074 -0.0237 -0.3493  0.2108
13845TIP3    H262951   0.600   6.604   4.983  0.0709 -1.0217  0.7459
13846TIP3   OH262952   5.640   3.623  13.766 -0.0245  0.1124 -0.3652
13846TIP3    H162953   5.634   3.713  13.798 -3.0264 -0.6660  1.6518
13846TIP3    H262954   5.726   3.593  13.798 -0.2150  1.3913  1.5652
13847TIP3   OH262955   6.290   4.286   3.629  0.4135 -0.0015 -0.0338
13847TIP3    H162956   6.343   4.230   3.573  1.0161 -1.2809  1.7358
13847TIP3    H262957   6.354   4.334   3.682 -0.1595  0.7542  0.0015
13848TIP3   OH262958   5.546   4.483  10.338 -0.1383  0.2430 -0.2123
13848TIP3    H162959   5.569   4.478  10.245  1.7696 -0.5035  0.2418
13848TIP3    H262960   5.454   4.459  10.341  0.1029 -1.1041 -1.7984
13849TIP3   OH262961   5.306   0.595   2.143  0.5178 -0.0842  0.6162
13849TIP3    H162962   5.357   0.514   2.144 -1.9858 -1.8374 -0.9833
13849TIP3    H262963   5.216   0.567   2.163 -1.1014  1.6300 -3.1414
13850TIP3   OH262964   2.851   0.132   5.711  0.1388  0.1176 -0.2339
13850TIP3    H162965   2.791   0.058   5.716  1.6188 -1.0943  0.8142
13850TIP3    H262966   2.843   0.163   5.621 -0.8979 -1.0073 -0.5624
13851TIP3   OH262967   6.623   4.566  14.917 -0.4405  0.8311 -0.1529
13851TIP3    H162968   6.688   4.608  14.860  1.1710 -2.4199 -0.9660
13851TIP3    H262969   6.542   4.566  14.866  0.1853  0.7183 -1.1666
13852TIP3   OH262970   1.061   0.703  16.767 -0.6239  0.5946 -0.3381
13852TIP3    H162971   1.135   0.706  16.829 -1.5107 -1.7322  0.9411
13852TIP3    H262972   1.067   0.616  16.727 -1.6232  1.0710 -1.5677
13853TIP3   OH262973   6.233   5.455  13.270 -0.3365  0.1730 -0.6253
13853TIP3    H162974   6.240   5.395  13.196 -1.5733 -1.3747  0.4526
13853TIP3    H262975   6.171   5.522  13.240  0.6714  0.6845 -1.6551
13854TIP3   OH262976   1.318   6.744  16.490  0.1174 -0.3296  0.1390
13854TIP3    H162977   1.354   6.783  16.410 -0.3838  0.0439  0.0908
13854TIP3    H262978   1.328   6.650  16.477 -0.3467 -0.2923 -0.5493
13855TIP3   OH262979   0.161   0.939   2.046  0.5530  0.5713  0.1287
13855TIP3    H162980   0.216   0.879   2.097 -0.6809 -0.7306 -0.0256
13855TIP3    H262981   0.189   0.927   1.956  1.6492  1.7169  0.2816
13856TIP3   OH262982   2.247   4.240  15.455  0.2248  0.5408  0.5802
13856TIP3    H162983   2.293   4.176  15.509  0.5385  1.7368  1.8112
13856TIP3    H262984   2.273   4.325  15.492 -0.2663  1.3773 -0.9086
13857TIP3   OH262985   3.759   0.436   5.834  0.1129  0.7278  0.4514
13857TIP3    H162986   3.801   0.352   5.855 -0.6728  0.2334  0.1074
13857TIP3    H262987   3.793   0.458   5.747 -1.1680 -0.2578 -0.3431
13858TIP3   OH262988   3.416   3.493  13.928  0.0529  0.0954  0.1992
13858TIP3    H162989   3.331   3.450  13.920  0.3609 -1.1189  2.5267
13858TIP3    H262990   3.422   3.549  13.851 -2.2665 -0.7820 -0.7103
13859TIP3   OH262991   3.527   0.661   1.698 -0.6250 -0.6783  0.4041
13859TIP3    H162992   3.513   0.567   1.713  2.8697 -0.9769  2.8733
13859TIP3    H262993   3.595   0.686   1.761 -1.7241  3.6782  0.1914
13860TIP3   OH262994   6.757   1.636  11.589  0.0811 -0.7503 -0.4491
13860TIP3    H162995   6.741   1.619  11.682 -1.7368 -0.0607 -0.5974
13860TIP3    H262996   6.741   1.730  11.579  1.1180 -0.6494 -1.3062
13861TIP3   OH262997   1.772   4.292  16.187  0.2751  0.5463 -0.3440
13861TIP3    H162998   1.825   4.370  16.206  0.5968  0.1466  0.4283
13861TIP3    H262999   1.811   4.255  16.108  2.0665 -0.5397  0.9919
13862TIP3   OH263000   0.089   3.555  16.189  0.1659 -0.0909 -0.5887
13862TIP3    H163001   0.167   3.515  16.227  0.1393 -1.3807 -1.7999
13862TIP3    H263002   0.120   3.638  16.153  0.3658  0.7393  1.3795
13863TIP3   OH263003   4.346   4.829   0.560  0.4447  0.4127 -0.2591
13863TIP3    H163004   4.300   4.913   0.548 -0.4172  0.0699  0.5384
13863TIP3    H263005   4.433   4.845   0.525  0.1818  1.5375 -0.4599
13864TIP3   OH263006   3.351   1.314  13.792  0.2901  0.1837  0.7713
13864TIP3    H163007   3.319   1.385  13.735  0.3760 -0.1885  0.2510
13864TIP3    H263008   3.437   1.293  13.758  0.4864  0.1875  1.2628
13865TIP3   OH263009   3.527   1.009  12.811 -0.5215 -0.4493  0.0941
13865TIP3    H163010   3.573   1.016  12.727  1.5160  0.6319  1.2269
13865TIP3    H263011   3.578   0.946  12.861  0.3493  1.4230  1.6974
13866TIP3   OH263012   3.705   2.961   1.652 -0.1810  0.1480 -0.2112
13866TIP3    H163013   3.720   2.991   1.741  1.1055  0.3445 -0.4855
13866TIP3    H263014   3.626   3.009   1.624 -0.4413  0.2776  0.7209
13867TIP3   OH263015   4.876   0.074  16.071 -0.3716 -0.6044  0.0603
13867TIP3    H163016   4.874   0.010  16.001  2.3751 -0.2847 -0.4431
13867TIP3    H263017   4.967   0.104  16.074 -1.0183  1.5316  1.8460
13868TIP3   OH263018   6.412   4.441  11.061 -0.9277  0.1808  0.2519
13868TIP3    H163019   6.329   4.475  11.029 -1.4165  0.5397  1.8169
13868TIP3    H263020   6.478   4.502  11.028 -1.5768  1.4711  1.2732
13869TIP3   OH263021   1.617   3.281  12.132  0.4846 -0.6715 -0.2262
13869TIP3    H163022   1.638   3.279  12.039  1.0199  0.5256 -0.1495
13869TIP3    H263023   1.583   3.193  12.151  0.6301 -1.0163 -1.4786
13870TIP3   OH263024   4.433   5.472  14.511  0.1903 -0.2928  0.1573
13870TIP3    H163025   4.392   5.459  14.425  1.4844  0.5549 -0.6260
13870TIP3    H263026   4.474   5.388  14.531 -0.5440 -0.6486  0.1953
13871TIP3   OH263027   1.737   0.905  16.287 -0.2932  0.1941  0.5939
13871TIP3    H163028   1.678   0.874  16.218  0.3342 -1.5119  0.7723
13871TIP3    H263029   1.786   0.977  16.246 -0.8439  0.0704 -0.3129
13872TIP3   OH263030   0.946   1.114  13.688  0.1844  0.6248  0.2156
13872TIP3    H163031   1.008   1.182  13.713 -0.7312  0.9969  1.5054
13872TIP3    H263032   1.001   1.038  13.667  1.0469  0.4858  2.7500
13873TIP3   OH263033   0.734   5.836  13.909  0.0778  0.1615  0.3668
13873TIP3    H163034   0.698   5.917  13.874 -1.7768 -1.0011 -0.6103
13873TIP3    H263035   0.669   5.806  13.973 -0.2757 -1.5092 -0.7162
13874TIP3   OH263036   2.786   6.802  14.135  0.0956  0.3545  0.1303
13874TIP3    H163037   2.757   6.711  14.146  0.5623  0.4583  3.0416
13874TIP3    H263038   2.715   6.844  14.086 -0.8744 -1.2212  0.1047
13875TIP3   OH263039   1.477   4.077   0.437 -0.0705 -0.1833 -0.3575
13875TIP3    H163040   1.418   4.142   0.476  0.5429 -0.3505  0.9073
13875TIP3    H263041   1.436   3.993   0.456  0.1548 -0.2580 -0.1930
13876TIP3   OH263042   4.982   1.352   2.498 -0.9339 -0.2136  0.0294
13876TIP3    H163043   4.945   1.306   2.422 -0.6069  0.5652 -0.6226
13876TIP3    H263044   5.034   1.423   2.459  0.6807 -0.8507  0.9214
13877TIP3   OH263045   3.147   3.651  15.905  0.1829  0.6064  0.1176
13877TIP3    H163046   3.114   3.640  15.995  1.0546 -0.1609  0.3500
13877TIP3    H263047   3.095   3.589  15.853 -1.5384  2.2518 -0.2525
13878TIP3   OH263048   0.389   6.255  10.879  0.6553 -0.3722  0.1343
13878TIP3    H163049   0.436   6.186  10.926 -0.9773 -0.9692  0.9642
13878TIP3    H263050   0.313   6.212  10.840  0.2830  0.7202 -0.4047
13879TIP3   OH263051   0.700   3.086   5.512 -0.0019  0.2362 -0.0346
13879TIP3    H163052   0.669   3.128   5.432  0.1336 -0.2331 -0.3411
13879TIP3    H263053   0.625   3.091   5.572 -0.0644  0.6911 -0.1495
13880TIP3   OH263054   2.057   2.838   2.018 -0.2014 -0.0589  0.0484
13880TIP3    H163055   2.043   2.932   2.018  0.4604  0.0447  0.4953
13880TIP3    H263056   2.076   2.817   1.926  2.1293  0.6499  0.3071
13881TIP3   OH263057   1.835   0.772   2.747 -0.2281 -0.6562 -0.5341
13881TIP3    H163058   1.791   0.746   2.827 -0.9614  2.2133  0.1071
13881TIP3    H263059   1.921   0.802   2.775 -0.5007  0.3972 -0.7951
13882TIP3   OH263060   6.656   1.752  15.990  0.4416  0.5593 -0.4376
13882TIP3    H163061   6.632   1.793  15.907 -0.1571 -1.2597 -1.2049
13882TIP3    H263062   6.751   1.755  15.992  0.5075 -0.1701 -1.6402
13883TIP3   OH263063   4.372   1.376   0.346  0.0872  0.6772 -0.3020
13883TIP3    H163064   4.394   1.294   0.390  0.4521  1.4699  1.0543
13883TIP3    H263065   4.308   1.351   0.279  0.2360 -0.7093  0.0498
13884TIP3   OH263066   1.957   0.841  11.297 -0.5125  0.1624  0.3096
13884TIP3    H163067   1.984   0.871  11.384 -0.3781  1.0279 -0.0134
13884TIP3    H263068   1.972   0.917  11.241  1.8611 -1.1112 -0.9687
13885TIP3   OH263069   4.070   6.689  14.774  0.1931  0.4529 -0.0661
13885TIP3    H163070   4.104   6.756  14.715  1.0106 -0.0301 -0.1618
13885TIP3    H263071   4.019   6.631  14.717  0.9526  0.0074 -0.3113
13886TIP3   OH263072   0.332   3.420   3.930  0.0933  0.3620 -0.6912
13886TIP3    H163073   0.417   3.414   3.974 -0.3354  2.2325  0.4973
13886TIP3    H263074   0.272   3.372   3.987 -0.0305  0.8277 -0.4250
13887TIP3   OH263075   6.605   0.053  14.037  0.6148  0.4257  0.4622
13887TIP3    H163076   6.683  -0.002  14.023  0.6674  0.6398 -0.1410
13887TIP3    H263077   6.531  -0.004  14.018  0.6613  0.4911  0.0760
13888TIP3   OH263078   4.519   1.739  15.869  0.1874 -0.4874  0.1642
13888TIP3    H163079   4.569   1.792  15.807  0.5406 -0.9727  0.0308
13888TIP3    H263080   4.584   1.708  15.932 -0.3203  0.8791  1.4222
13889TIP3   OH263081   1.499   6.131   1.985 -0.3175  0.3452 -0.1200
13889TIP3    H163082   1.509   6.039   2.011  0.4195  0.5591  0.3644
13889TIP3    H263083   1.497   6.128   1.889  0.9520 -0.0654 -0.1571
13890TIP3   OH263084   3.056   4.438  12.460 -0.2760 -0.5129 -0.8032
13890TIP3    H163085   2.963   4.459  12.449 -0.5150  0.5584  2.3999
13890TIP3    H263086   3.096   4.521  12.488  1.6888 -0.9618 -2.0721
13891TIP3   OH263087   4.915   1.655   1.191 -0.1404  0.0595 -0.6024
13891TIP3    H163088   4.928   1.682   1.100  0.2426 -1.1131 -0.9043
13891TIP3    H263089   4.904   1.560   1.187  0.8243 -0.1300  0.6719
13892TIP3   OH263090   5.378   1.314   5.647  0.1275  0.3641  0.4140
13892TIP3    H163091   5.436   1.265   5.706  0.5012 -1.4990 -1.3764
13892TIP3    H263092   5.435   1.381   5.608  0.9333 -0.8791 -0.6599
13893TIP3   OH263093   3.996   1.586   1.019 -0.0921 -0.3964 -0.3691
13893TIP3    H163094   4.063   1.649   0.993  1.0361 -0.4052  2.2260
13893TIP3    H263095   3.918   1.612   0.971  1.5622 -0.0265 -3.0496
13894TIP3   OH263096   2.000   1.085  11.799 -0.1387  0.0818  0.6072
13894TIP3    H163097   2.029   1.143  11.728  1.2312 -0.7108  0.4913
13894TIP3    H263098   2.020   1.135  11.879 -2.7476  1.4772  0.5048
13895TIP3   OH263099   6.384   1.050   2.829  0.9766  0.9152 -0.2930
13895TIP3    H163100   6.358   1.067   2.739 -0.4047  0.5343  0.0143
13895TIP3    H263101   6.479   1.040   2.825  1.1139  2.2812 -1.4767
13896TIP3   OH263102   2.308   6.153  11.019 -0.0970  0.2988 -0.2896
13896TIP3    H163103   2.258   6.080  11.056  1.1347  0.0317  0.8913
13896TIP3    H263104   2.366   6.112  10.955  0.0045  0.3621 -0.2377
13897TIP3   OH263105   1.232   3.416  14.295  0.6673 -0.0527 -0.3503
13897TIP3    H163106   1.177   3.448  14.224 -0.0127 -1.2423 -0.3784
13897TIP3    H263107   1.207   3.325  14.307 -1.0387  0.6895  3.0934
13898TIP3   OH263108   1.736   5.393  11.925  0.1298  0.5857 -0.6514
13898TIP3    H163109   1.751   5.371  12.017  1.2494 -0.1720 -0.9855
13898TIP3    H263110   1.824   5.406  11.890 -0.1045 -1.4221 -2.1538
13899TIP3   OH263111   5.555   3.471  13.558 -0.1449  0.3308 -0.2955
13899TIP3    H163112   5.604   3.508  13.484  2.2216 -0.6153  0.7140
13899TIP3    H263113   5.583   3.523  13.633 -2.0246  0.8419  0.1076
13900TIP3   OH263114   3.173   6.004  14.375  0.2858  0.1761  0.5397
13900TIP3    H163115   3.153   6.095  14.355  0.4777 -0.1132 -1.1564
13900TIP3    H263116   3.254   6.007  14.425  0.6411  0.9096 -0.0628
13901TIP3   OH263117   1.867   6.455   2.030 -0.8224  0.8771 -0.5354
13901TIP3    H163118   1.871   6.361   2.045  0.7630  1.2520  2.1486
13901TIP3    H263119   1.957   6.481   2.010 -0.8052  2.0353  0.8359
13902TIP3   OH263120   0.261   1.256  10.839  0.0383 -0.1922 -0.2718
13902TIP3    H163121   0.282   1.173  10.797 -0.9729 -0.0953 -0.9947
13902TIP3    H263122   0.171   1.274  10.812  0.5476  1.5969 -0.8740
13903TIP3   OH263123   3.370   5.315   0.091 -0.7231  0.6688  0.1176
13903TIP3    H163124   3.460   5.342   0.111 -1.2267  1.4233  1.5268
13903TIP3    H263125   3.378   5.259   0.014  1.0960 -0.2375  0.9022
13904TIP3   OH263126   3.879   1.626   4.263 -0.1541  1.1302 -0.4716
13904TIP3    H163127   3.895   1.538   4.298 -0.6434  0.3569 -2.0398
13904TIP3    H263128   3.926   1.685   4.322 -0.6205 -0.0847  1.1896
13905TIP3   OH263129   0.988   5.955   3.915 -0.0488 -0.0520  0.2601
13905TIP3    H163130   0.908   5.923   3.873 -0.8128  0.2208  1.4359
13905TIP3    H263131   1.048   5.880   3.915  0.8698  0.5326 -3.2704
13906TIP3   OH263132   3.570   0.399  15.651  0.3566 -0.2128  0.4244
13906TIP3    H163133   3.535   0.479  15.613 -0.6949 -0.7222  0.2792
13906TIP3    H263134   3.605   0.426  15.736  0.8089  0.5487  0.0051
13907TIP3   OH263135   2.352   0.648  16.900 -0.3460  0.5828 -0.2089
13907TIP3    H163136   2.321   0.737  16.917  0.7083  1.0295 -0.5283
13907TIP3    H263137   2.319   0.627  16.813 -2.0502 -0.0197  0.5532
13908TIP3   OH263138   5.583   4.374   0.238  0.4333 -0.0440 -0.2600
13908TIP3    H163139   5.526   4.372   0.315  1.1574  1.0437  0.3378
13908TIP3    H263140   5.581   4.285   0.204  0.0760 -0.5516  1.0186
13909TIP3   OH263141   0.939   0.582  15.430 -0.0713 -0.3547 -0.0621
13909TIP3    H163142   1.031   0.565  15.410  0.2930  0.9121  0.4307
13909TIP3    H263143   0.892   0.505  15.396  1.1002 -0.7619 -0.8222
13910TIP3   OH263144   5.146   6.329   1.735  0.2545 -0.1492  0.6189
13910TIP3    H163145   5.126   6.406   1.682 -0.4887 -1.2992 -0.8593
13910TIP3    H263146   5.226   6.293   1.697  0.2232 -0.4844  0.8641
13911TIP3   OH263147   3.454   5.690   0.166  0.0885 -0.0556  0.0826
13911TIP3    H163148   3.487   5.603   0.143  3.1027  1.1490 -0.5140
13911TIP3    H263149   3.378   5.703   0.108 -0.3099 -2.1524  0.0451
13912TIP3   OH263150   4.884   0.742  16.337  0.5071 -0.4928  0.6507
13912TIP3    H163151   4.844   0.820  16.376  0.2483  0.2586 -1.0271
13912TIP3    H263152   4.934   0.702  16.408  0.8963  1.3710  1.4661
13913TIP3   OH263153   1.586   6.132   5.084 -0.2116 -0.0793  0.3666
13913TIP3    H163154   1.587   6.208   5.143 -0.2165  0.9605 -0.9197
13913TIP3    H263155   1.494   6.106   5.080 -0.0745 -0.8431  1.6268
13914TIP3   OH263156   1.520   2.702   4.543 -0.1446  0.2126  0.2686
13914TIP3    H163157   1.464   2.652   4.604 -0.5041 -0.5436 -0.6449
13914TIP3    H263158   1.472   2.699   4.460 -0.5384  2.7399  0.3351
13915TIP3   OH263159   1.162   2.121  14.626 -0.3417  0.2308 -0.6221
13915TIP3    H163160   1.067   2.107  14.629 -0.6088  1.8267 -1.0364
13915TIP3    H263161   1.184   2.115  14.533 -0.2303  1.0261 -0.6491
13916TIP3   OH263162   2.360   1.920  15.604  0.2416 -0.0245  0.4641
13916TIP3    H163163   2.429   1.859  15.577 -0.5014 -0.1895 -1.1714
13916TIP3    H263164   2.373   1.997  15.549 -1.6666 -0.5934 -0.8951
13917TIP3   OH263165   1.532   1.404  12.728  0.1454  0.2774 -0.2868
13917TIP3    H163166   1.539   1.405  12.632  1.9938 -2.1980 -0.2589
13917TIP3    H263167   1.524   1.312  12.750  1.6851  0.6314  2.0376
13918TIP3   OH263168   0.244   5.527  14.666 -0.1104  0.3123 -0.1197
13918TIP3    H163169   0.178   5.567  14.723 -1.3394 -0.9111 -0.6267
13918TIP3    H263170   0.327   5.545  14.709 -0.9019  0.5798  1.3513
13919TIP3   OH263171   6.397   0.647   3.966 -0.1572  0.1201  0.0044
13919TIP3    H163172   6.433   0.559   3.978  0.8831  0.2499 -1.7756
13919TIP3    H263173   6.473   0.704   3.968 -0.7586  0.9266  0.4822
13920TIP3   OH263174   3.792   0.475   6.200  0.2611 -0.5219 -0.5717
13920TIP3    H163175   3.883   0.446   6.200  0.4783  0.1396 -0.2380
13920TIP3    H263176   3.748   0.418   6.137  1.3082  0.3603 -2.1508
13921TIP3   OH263177   1.426   0.632   4.167 -0.3322  0.1166  0.2675
13921TIP3    H163178   1.393   0.549   4.134 -0.2142  0.0390  0.3436
13921TIP3    H263179   1.514   0.639   4.130 -0.6991  0.6654 -0.5212
13922TIP3   OH263180   4.414   6.567   4.009  0.1745 -0.1481 -0.6367
13922TIP3    H163181   4.432   6.612   3.927 -2.4994 -0.6331 -1.5807
13922TIP3    H263182   4.400   6.637   4.073  1.9263  0.2292 -0.6062
13923TIP3   OH263183   0.042   0.052  12.510 -0.1084  0.1515  0.1787
13923TIP3    H163184   0.048   0.125  12.572 -1.1743  0.2842  0.1542
13923TIP3    H263185  -0.024  -0.006  12.548 -0.5437  0.0779 -0.6661
13924TIP3   OH263186   3.954   3.090  14.292  0.5019 -0.2232  0.1963
13924TIP3    H163187   3.912   3.171  14.322  1.7745  0.0232  1.4258
13924TIP3    H263188   3.983   3.046  14.372  2.7596 -0.2581 -0.5516
13925TIP3   OH263189   5.189   4.029   4.234 -0.3012  0.5827  0.8394
13925TIP3    H163190   5.226   4.110   4.268  0.1193  1.3989 -1.4385
13925TIP3    H263191   5.094   4.044   4.231 -0.3206  0.5856  1.3989
13926TIP3   OH263192   0.831   1.450  13.874  0.0149 -0.0830 -0.3137
13926TIP3    H163193   0.787   1.419  13.796 -1.1311 -0.0590  0.3076
13926TIP3    H263194   0.780   1.415  13.947  1.7302 -1.0933  0.4625
13927TIP3   OH263195   5.765   2.416  13.521  0.0993  0.0319  0.7849
13927TIP3    H163196   5.785   2.486  13.459  0.1402  0.7415  1.5793
13927TIP3    H263197   5.807   2.444  13.602  0.2908 -1.0280  1.0543
13928TIP3   OH263198   4.517   4.514  11.431  0.2917  0.4467 -0.1375
13928TIP3    H163199   4.531   4.554  11.345  0.6637  0.5288 -0.0411
13928TIP3    H263200   4.499   4.588  11.489 -1.6471  0.2645 -0.4628
13929TIP3   OH263201   5.708   3.600  15.291 -0.0697  0.4911 -0.6794
13929TIP3    H163202   5.661   3.681  15.310  1.5275  1.7346 -1.8029
13929TIP3    H263203   5.679   3.575  15.203  0.1017  0.3190 -0.6883
13930TIP3   OH263204   4.805   1.784  12.862  0.4204  0.3176 -0.1804
13930TIP3    H163205   4.895   1.769  12.830  0.4637 -0.8910  0.4652
13930TIP3    H263206   4.816   1.812  12.952  0.1579  0.4925 -0.2028
13931TIP3   OH263207   0.593   1.687   4.864  0.0155  0.2160 -0.6272
13931TIP3    H163208   0.637   1.695   4.780  0.0114  2.7647 -0.4837
13931TIP3    H263209   0.517   1.745   4.857 -0.1830  0.2120  0.9956
13932TIP3   OH263210   6.021   3.228   2.476  0.0497 -0.7147 -0.0062
13932TIP3    H163211   6.072   3.286   2.420 -1.2258  0.3519 -0.1206
13932TIP3    H263212   5.978   3.286   2.539 -1.0707 -1.5383  0.0413
13933TIP3   OH263213   6.138   5.465   3.407  0.2649 -0.3275 -0.2068
13933TIP3    H163214   6.048   5.472   3.375 -0.2287 -2.9465  0.3831
13933TIP3    H263215   6.130   5.447   3.501  1.5079  1.4366  0.2918
13934TIP3   OH263216   1.604   3.046  14.982  0.1984  0.0027 -0.3654
13934TIP3    H163217   1.657   3.126  14.975 -1.3796  0.9187 -2.9689
13934TIP3    H263218   1.657   2.979  14.939  0.3228  0.3141 -0.7036
13935TIP3   OH263219   6.697   0.082   2.733 -0.9656  0.0728  0.0300
13935TIP3    H163220   6.769   0.019   2.725 -2.0533 -1.1704 -0.3532
13935TIP3    H263221   6.733   0.164   2.700  1.6762  0.7003  3.8636
13936TIP3   OH263222   0.432   3.917   0.685 -0.0478 -0.7129  0.7597
13936TIP3    H163223   0.440   4.007   0.654 -0.2649 -0.0084  2.6539
13936TIP3    H263224   0.359   3.881   0.635  0.4306 -0.0524 -0.4537
13937TIP3   OH263225   2.918   6.427  11.388  0.0001  0.2484  0.5201
13937TIP3    H163226   2.916   6.451  11.295 -0.2930 -0.2480  0.3943
13937TIP3    H263227   2.984   6.485  11.427  1.3984 -0.6938 -0.3299
13938TIP3   OH263228   3.187   1.785  14.232  0.2870  0.2423 -0.0057
13938TIP3    H163229   3.275   1.814  14.206  0.4946 -0.1226  0.2898
13938TIP3    H263230   3.131   1.807  14.157  1.0207 -1.5912 -1.1531
13939TIP3   OH263231   2.471   5.998   2.181  0.0452  0.1831 -0.0590
13939TIP3    H163232   2.544   5.941   2.156 -0.1111 -0.4493  0.8535
13939TIP3    H263233   2.440   6.036   2.099  0.8182 -0.2552 -0.5606
13940TIP3   OH263234   3.343   5.198   5.745 -0.5214  0.3193  0.0037
13940TIP3    H163235   3.332   5.218   5.838 -0.2533  0.9905 -0.1033
13940TIP3    H263236   3.436   5.175   5.737 -0.6100 -0.0203 -0.0461
13941TIP3   OH263237   3.075   5.012  16.223 -0.8047 -0.5304 -0.1824
13941TIP3    H163238   3.158   5.059  16.219 -0.1629 -1.2818  2.7228
13941TIP3    H263239   3.097   4.921  16.204 -1.0600 -0.6591  0.1441
13942TIP3   OH263240   4.539   1.853   0.550 -0.1522  0.1049 -0.8894
13942TIP3    H163241   4.520   1.801   0.628 -1.5305 -3.5421 -3.3826
13942TIP3    H263242   4.462   1.909   0.540  0.7459  1.8376  1.1015
13943TIP3   OH263243   6.755   5.115   4.523 -0.1293 -0.0190 -0.2100
13943TIP3    H163244   6.798   5.151   4.445 -0.5822  0.2012 -0.3620
13943TIP3    H263245   6.808   5.147   4.596 -0.5630  1.0402 -0.3380
13944TIP3   OH263246   5.900   1.079  16.351 -0.1625  0.0881  0.4901
13944TIP3    H163247   5.961   1.009  16.372  0.2919  0.3274  0.0078
13944TIP3    H263248   5.903   1.086  16.255  0.0044  0.9306  0.5422
13945TIP3   OH263249   2.672   3.523   1.165  0.2091  0.0478 -0.5057
13945TIP3    H163250   2.657   3.504   1.257  2.6492  0.4785  0.0365
13945TIP3    H263251   2.733   3.456   1.135 -0.9873 -0.4464 -2.0218
13946TIP3   OH263252   5.175   3.699   3.875  0.5292 -0.1911  0.8189
13946TIP3    H163253   5.133   3.630   3.926  3.2299 -0.4983  2.8136
13946TIP3    H263254   5.140   3.781   3.912 -2.3501 -0.3308 -1.2676
13947TIP3   OH263255   6.061   3.961  15.192  0.1648  0.0186  0.1971
13947TIP3    H163256   6.022   4.024  15.253 -0.3307 -0.3680  0.2848
13947TIP3    H263257   6.049   3.876  15.234 -0.7181 -0.3195 -0.7001
13948TIP3   OH263258   0.829   4.538   3.455  0.1238  0.0532 -0.0552
13948TIP3    H163259   0.871   4.460   3.494  0.4996  0.6322  0.7409
13948TIP3    H263260   0.807   4.511   3.366  0.3645 -0.9275  0.1610
13949TIP3   OH263261   2.547   6.714   3.236  0.1776 -0.4188 -0.3819
13949TIP3    H163262   2.585   6.642   3.185 -0.8323 -0.8079 -0.6107
13949TIP3    H263263   2.525   6.676   3.320 -1.9382 -0.8828 -1.0673
13950TIP3   OH263264   4.971   1.351   0.906 -0.0566 -0.0118  0.2107
13950TIP3    H163265   4.895   1.315   0.953 -0.8152  2.2726  0.8894
13950TIP3    H263266   5.034   1.371   0.976  0.0317  0.6455 -0.0554
13951TIP3   OH263267   0.638   0.564  12.961  0.1509  0.6047  0.1721
13951TIP3    H163268   0.669   0.545  12.872 -0.1926  1.2691 -0.1049
13951TIP3    H263269   0.713   0.546  13.017 -0.6258 -3.3547  0.2371
13952TIP3   OH263270   2.374   4.677  13.280 -0.0840  0.2685 -0.5926
13952TIP3    H163271   2.278   4.669  13.285 -0.2067  0.1891 -2.4818
13952TIP3    H263272   2.391   4.705  13.190  1.7241 -0.5654 -0.5548
13953TIP3   OH263273   6.312   6.717  11.146  0.7515 -0.1469 -0.5983
13953TIP3    H163274   6.403   6.732  11.172  1.0211 -2.2826 -0.0815
13953TIP3    H263275   6.318   6.687  11.055  0.5985 -0.4229 -0.5205
13954TIP3   OH263276   3.192   4.182   3.555 -0.2785 -0.4346 -0.0611
13954TIP3    H163277   3.122   4.123   3.525 -0.7391 -0.6113  1.3177
13954TIP3    H263278   3.146   4.262   3.580  0.2518  0.2090 -1.0842
13955TIP3   OH263279   4.244   1.873   4.240  0.2104 -0.0650  0.7106
13955TIP3    H163280   4.207   1.958   4.217 -1.2164 -0.5871  0.9915
13955TIP3    H263281   4.182   1.835   4.301 -0.1698 -2.0841 -0.8025
13956TIP3   OH263282   2.316   5.717  16.672 -0.3449 -0.4526 -0.0500
13956TIP3    H163283   2.397   5.706  16.722 -0.9531 -1.2670  0.8075
13956TIP3    H263284   2.342   5.709  16.580  0.4823 -1.1324  0.2366
13957TIP3   OH263285   3.401   5.226  16.489 -0.4893  0.2239 -0.0965
13957TIP3    H163286   3.375   5.316  16.512 -0.7248  0.5413 -1.4966
13957TIP3    H263287   3.355   5.171  16.552  0.5719  1.1276  1.5347
13958TIP3   OH263288   3.148   2.529   3.972  0.4173  0.1609 -0.0390
13958TIP3    H163289   3.186   2.611   3.941 -0.1124  1.1153  1.6596
13958TIP3    H263290   3.159   2.532   4.067 -4.8994  1.2261  0.8784
13959TIP3   OH263291   5.078   4.078  11.842 -0.0655  0.2283 -0.3729
13959TIP3    H163292   5.154   4.094  11.786 -0.0192 -0.6815 -0.5871
13959TIP3    H263293   5.095   3.993  11.882 -1.1570 -0.1769 -0.7335
13960TIP3   OH263294   1.076   2.719  13.286 -0.3082  0.0858  0.0281
13960TIP3    H163295   1.151   2.683  13.239 -1.9015 -0.8698 -1.9172
13960TIP3    H263296   1.068   2.809  13.252 -0.2805  0.0552 -0.0596
13961TIP3   OH263297   6.553   6.101  11.593  0.2578 -0.1900 -0.3004
13961TIP3    H163298   6.494   6.058  11.655 -1.3582  0.2301 -1.4800
13961TIP3    H263299   6.587   6.031  11.539 -0.1783 -0.3156 -0.4197
13962TIP3   OH263300   5.777   1.273  14.988  0.5868 -0.5944  0.1084
13962TIP3    H163301   5.808   1.189  15.020  1.7690 -0.5698 -0.9352
13962TIP3    H263302   5.826   1.289  14.908  0.2487  1.0009  0.1745
13963TIP3   OH263303   4.469   2.807  13.271 -0.3855  0.0042  0.1978
13963TIP3    H163304   4.473   2.889  13.319 -0.7121 -0.4981  1.0980
13963TIP3    H263305   4.514   2.825  13.188  1.0042  0.6216  1.0628
13964TIP3   OH263306   2.701   1.160  15.600 -0.2621  0.0097 -0.2838
13964TIP3    H163307   2.729   1.129  15.514 -1.1099 -2.3454  0.2224
13964TIP3    H263308   2.776   1.143  15.657  0.2272  1.3906 -0.4695
13965TIP3   OH263309   4.874   2.822  11.347  0.0940 -0.1478  0.1574
13965TIP3    H163310   4.797   2.807  11.401 -0.3778 -0.6827 -0.6312
13965TIP3    H263311   4.843   2.808  11.257  1.3448 -1.4199 -0.1129
13966TIP3   OH263312   1.537   3.266   3.469  0.8277  0.1672 -0.7785
13966TIP3    H163313   1.517   3.178   3.439  1.0999  0.1306 -0.8471
13966TIP3    H263314   1.632   3.272   3.467  0.9348 -0.2086  1.0951
13967TIP3   OH263315   4.104   2.086   4.450  0.5551 -0.6947  0.1202
13967TIP3    H163316   4.084   2.088   4.356 -0.7831 -3.4302  0.2353
13967TIP3    H263317   4.028   2.126   4.492  0.4521 -0.8486  0.0829
13968TIP3   OH263318   6.084   4.680  14.253 -0.0285 -0.2682 -0.4614
13968TIP3    H163319   6.088   4.752  14.190  0.9642 -0.0044 -0.1031
13968TIP3    H263320   6.149   4.702  14.320 -0.2417 -1.1271  0.0461
13969TIP3   OH263321   3.671   5.629  11.314 -0.0382  0.0464 -0.1130
13969TIP3    H163322   3.651   5.719  11.288  2.0161  0.5323 -0.2230
13969TIP3    H263323   3.730   5.597  11.245  3.0517  0.2946  2.1877
13970TIP3   OH263324   4.836   1.254   0.054 -0.2178  0.0322  0.0910
13970TIP3    H163325   4.770   1.185   0.044  0.4478 -0.6219  0.0379
13970TIP3    H263326   4.797   1.317   0.114 -0.4774 -0.8754  0.9091
13971TIP3   OH263327   2.554   5.724  13.575 -0.1341 -0.2327 -0.4099
13971TIP3    H163328   2.509   5.656  13.523  0.2389  0.1575 -1.2657
13971TIP3    H263329   2.500   5.802  13.563 -0.1056 -0.1649 -0.1068
13972TIP3   OH263330   1.656   0.026  11.416 -0.7430 -0.0123  0.2940
13972TIP3    H163331   1.631   0.005  11.506  1.2412  0.4574  1.0033
13972TIP3    H263332   1.642   0.120  11.408 -0.8344 -0.0386  0.1413
13973TIP3   OH263333   4.606   6.478  13.771  0.3994 -0.0970 -0.4240
13973TIP3    H163334   4.648   6.545  13.825  1.1611 -0.0740 -1.0115
13973TIP3    H263335   4.527   6.453  13.818  0.6572  0.4674  0.3113
13974TIP3   OH263336   2.634   0.581   3.042 -0.3990 -0.3009 -0.8936
13974TIP3    H163337   2.654   0.675   3.045  0.3101 -0.4172 -1.5590
13974TIP3    H263338   2.719   0.540   3.028 -0.6678 -1.0704 -0.3234
13975TIP3   OH263339   6.584   4.335  13.043 -0.1814 -0.0642  0.1932
13975TIP3    H163340   6.607   4.334  12.950  0.3318  1.3949  0.2824
13975TIP3    H263341   6.664   4.308  13.088 -0.4254 -0.7553  0.2269
13976TIP3   OH263342   5.724   0.977   0.625  0.2542  0.4837  0.2334
13976TIP3    H163343   5.781   0.974   0.548  2.5438  2.1349  1.7415
13976TIP3    H263344   5.780   0.948   0.697 -1.2075  0.9360  1.6057
13977TIP3   OH263345   3.402   2.626  13.434 -0.5036 -0.1099 -0.1016
13977TIP3    H163346   3.466   2.678  13.484 -0.4530  0.0772 -0.3571
13977TIP3    H263347   3.434   2.536  13.441 -0.0964  0.0080 -0.3963
13978TIP3   OH263348   4.263   1.844   5.000 -0.0451  0.5825  0.2579
13978TIP3    H163349   4.285   1.752   4.988  0.1222  0.7893 -1.2136
13978TIP3    H263350   4.345   1.891   4.986 -0.7406  1.1627 -2.5261
13979TIP3   OH263351   3.942   6.557   1.935  0.3469  0.4642  0.1571
13979TIP3    H163352   3.955   6.644   1.897 -3.4226  1.2174  0.1677
13979TIP3    H263353   3.945   6.571   2.029  0.8423  0.3537  0.1590
13980TIP3   OH263354   6.253   6.465   3.190 -0.4763  0.3231  0.0155
13980TIP3    H163355   6.260   6.410   3.268 -2.9533 -0.2125 -0.0523
13980TIP3    H263356   6.290   6.549   3.217  0.6233 -0.4719  1.0857
13981TIP3   OH263357   2.631   1.838  14.933  0.1456 -0.1121  0.3093
13981TIP3    H163358   2.625   1.747  14.904 -2.0752  0.0629  0.0086
13981TIP3    H263359   2.695   1.878  14.874  1.4215 -1.5222  0.6683
13982TIP3   OH263360   6.731   5.619   5.616 -0.5882  0.4287  0.1914
13982TIP3    H163361   6.754   5.711   5.627  0.3117  0.2503 -0.0947
13982TIP3    H263362   6.704   5.611   5.525  2.1324 -0.1188 -0.6548
13983TIP3   OH263363   2.617   1.583  14.821  0.1913 -0.4048  0.0586
13983TIP3    H163364   2.544   1.531  14.856  1.5283 -2.5176 -0.0778
13983TIP3    H263365   2.663   1.523  14.762  2.5763  0.5211  0.8351
13984TIP3   OH263366   1.930   2.859  11.784  0.8899  0.1507 -0.5524
13984TIP3    H163367   2.017   2.896  11.766  1.0279  0.7393  1.1694
13984TIP3    H263368   1.944   2.764  11.782  0.8359  0.0977 -3.5457
13985TIP3   OH263369   2.355   2.258   0.503 -0.4515 -0.5523  0.7751
13985TIP3    H163370   2.362   2.294   0.591 -1.7577  0.4121  0.5032
13985TIP3    H263371   2.374   2.332   0.445 -2.1798 -0.4929  0.2262
13986TIP3   OH263372   1.637   5.732   2.192  0.0560 -0.0934  0.3233
13986TIP3    H163373   1.641   5.795   2.263  1.7520 -0.3633  0.5258
13986TIP3    H263374   1.613   5.649   2.234 -1.2439  0.1964  0.1969
13987TIP3   OH263375   4.809   5.700  14.610 -0.0492 -0.9229 -0.1850
13987TIP3    H163376   4.724   5.658  14.619 -0.4983  0.1444  0.8374
13987TIP3    H263377   4.835   5.682  14.519 -1.3325 -1.2984 -0.5034
13988TIP3   OH263378   5.861   2.768   3.951 -0.4949 -0.4615 -0.9605
13988TIP3    H163379   5.774   2.777   3.988  0.0132  1.0168 -0.0343
13988TIP3    H263380   5.911   2.721   4.017 -0.3795 -0.6517 -1.1773
13989TIP3   OH263381   3.577   2.313  17.010  0.8215  0.2686  0.8575
13989TIP3    H163382   3.631   2.237  16.990 -0.7801 -0.3459 -1.6800
13989TIP3    H263383   3.587   2.371  16.934 -0.4531  1.0626  1.2523
13990TIP3   OH263384   2.802   5.168   5.807 -1.1528 -0.4538 -0.2720
13990TIP3    H163385   2.728   5.215   5.846 -0.2145 -0.4603  1.6141
13990TIP3    H263386   2.826   5.103   5.872  0.5993 -0.3763 -0.7859
13991TIP3   OH263387   0.088   2.992   3.613 -0.4284 -0.0768  0.3219
13991TIP3    H163388   0.077   2.945   3.530  0.4266  0.4915 -0.1319
13991TIP3    H263389   0.155   3.058   3.594  0.1204 -0.2439  1.5935
13992TIP3   OH263390   4.954   0.173   5.782  0.0248  0.3739 -0.3410
13992TIP3    H163391   4.958   0.226   5.702 -0.6865 -0.1466 -0.7396
13992TIP3    H263392   5.041   0.134   5.789  0.3491  1.0746 -0.4012
13993TIP3   OH263393   0.869   1.630  15.582  0.2495 -0.3156  0.1124
13993TIP3    H163394   0.843   1.549  15.539  1.1573  0.0149 -1.0926
13993TIP3    H263395   0.863   1.610  15.676 -0.4906 -1.4510 -0.1528
13994TIP3   OH263396   3.409   5.143  15.229  0.6272 -0.2288 -0.4231
13994TIP3    H163397   3.363   5.106  15.305 -2.0375  0.1230 -1.7444
13994TIP3    H263398   3.418   5.071  15.168  0.7906 -0.0203 -0.6482
13995TIP3   OH263399   6.039   0.657   3.247  0.4542  0.2591  0.7406
13995TIP3    H163400   6.026   0.748   3.221 -0.2118 -0.5887 -2.3059
13995TIP3    H263401   6.111   0.627   3.192 -0.2354 -1.3895  0.6915
13996TIP3   OH263402   2.026   6.717  12.110 -0.1328 -0.2331  0.3815
13996TIP3    H163403   2.005   6.626  12.130  0.6747 -0.2062  1.4693
13996TIP3    H263404   1.950   6.749  12.061 -0.6423 -1.3414  0.4048
13997TIP3   OH263405   5.105   2.027  11.694 -0.8917 -0.1859  0.0818
13997TIP3    H163406   5.199   2.007  11.698 -1.0344 -1.1624 -0.8970
13997TIP3    H263407   5.080   2.004  11.605 -2.0462  0.1553  0.3100
13998TIP3   OH263408   1.928   6.038   6.432 -0.4370 -0.1060  0.3808
13998TIP3    H163409   1.886   6.081   6.358 -1.0847 -0.7226  0.3832
13998TIP3    H263410   1.877   5.957   6.446  0.1796 -0.4062  0.9676
13999TIP3   OH263411   5.592   6.647  13.863  0.5151  0.1856 -0.3465
13999TIP3    H163412   5.535   6.651  13.940  0.9432  2.7316 -0.0715
13999TIP3    H263413   5.635   6.733  13.861 -0.0849  0.5487 -3.8472
14000TIP3   OH263414   5.399   2.395  10.519 -0.2668  0.2306  0.1797
14000TIP3    H163415   5.318   2.385  10.470 -0.8351 -0.7793  1.2476
14000TIP3    H263416   5.403   2.488  10.541 -0.1704  0.6275 -1.4542
14001TIP3   OH263417   2.306   1.796   3.695 -0.3361  0.4214  0.0142
14001TIP3    H163418   2.306   1.790   3.599  1.4951 -0.5544  0.0204
14001TIP3    H263419   2.396   1.775   3.720 -0.5591  1.4954  1.9214
14002TIP3   OH263420   0.170   5.971  16.922  0.4681  0.0776 -0.5101
14002TIP3    H163421   0.082   6.009  16.927  0.3445 -0.3369  1.7915
14002TIP3    H263422   0.228   6.042  16.950  0.7310 -0.0446 -0.7460
14003TIP3   OH263423   4.934   0.177   6.540 -0.4353 -0.2908 -0.3436
14003TIP3    H163424   4.848   0.135   6.529  1.1604 -3.3793 -2.4338
14003TIP3    H263425   4.975   0.129   6.612 -0.6895  1.7545  1.2460
14004TIP3   OH263426   4.257   1.565   4.444 -0.4694  0.3438  0.6523
14004TIP3    H163427   4.167   1.566   4.476 -0.3494  1.7964  1.0226
14004TIP3    H263428   4.248   1.552   4.349 -1.2361  2.2966  0.3875
14005TIP3   OH263429   2.367   3.737  13.021 -0.2419 -0.3182  0.0941
14005TIP3    H163430   2.309   3.802  13.060  0.6659  0.9822 -0.6641
14005TIP3    H263431   2.366   3.757  12.927 -0.2469 -1.6634 -0.2157
14006TIP3   OH263432   4.186   0.642   2.705  0.2586  0.3666  0.7007
14006TIP3    H163433   4.212   0.654   2.796  0.2426  3.4585  0.4103
14006TIP3    H263434   4.239   0.569   2.674  3.1021  1.6324  2.1794
14007TIP3   OH263435   6.538   2.359   1.508 -0.4477 -0.0865  0.3105
14007TIP3    H163436   6.452   2.317   1.507 -0.4052 -0.2415  1.4040
14007TIP3    H263437   6.596   2.299   1.461 -1.0162  0.2209 -0.8002
14008TIP3   OH263438   2.749   0.783   3.338  0.3545  0.4318 -0.4997
14008TIP3    H163439   2.843   0.789   3.357  0.2145 -2.3473  1.7951
14008TIP3    H263440   2.719   0.874   3.337  3.0101  1.3849 -1.1367
14009TIP3   OH263441   5.014   0.231  10.853 -0.0329 -0.3858 -0.1374
14009TIP3    H163442   4.940   0.174  10.875  0.8236 -1.7621 -0.6750
14009TIP3    H263443   5.059   0.185  10.783  1.6075  0.1964  0.4884
14010TIP3   OH263444   4.936   0.550  10.836 -0.1734 -0.0267 -0.2900
14010TIP3    H163445   4.981   0.467  10.851  0.1180  0.4206  1.5694
14010TIP3    H263446   5.003   0.617  10.850 -0.6764  0.5601 -0.6169
14011TIP3   OH263447   0.639   6.604  13.351  0.2624 -0.3416  0.3362
14011TIP3    H163448   0.626   6.680  13.407 -0.5271 -1.2519  1.4361
14011TIP3    H263449   0.733   6.599  13.338  0.4389  0.0459  1.3711
14012TIP3   OH263450   4.474   1.975   2.108  0.3927  0.5863 -0.6262
14012TIP3    H163451   4.413   1.917   2.153 -0.7964  1.3259 -1.2564
14012TIP3    H263452   4.499   1.927   2.029  1.5705 -0.2072  0.1795
14013TIP3   OH263453   2.291   5.043  14.293  0.8452  0.1450  0.2157
14013TIP3    H163454   2.320   5.123  14.249  1.3322 -0.5506 -0.7870
14013TIP3    H263455   2.211   5.067  14.338 -0.2282  0.6812 -1.8732
14014TIP3   OH263456   1.383   4.134   2.558 -0.2028 -0.0429 -0.1229
14014TIP3    H163457   1.433   4.165   2.633 -1.4147  1.4620  0.1032
14014TIP3    H263458   1.450   4.108   2.494  0.9488  2.4998 -0.0935
14015TIP3   OH263459   5.364   0.940  16.904  0.0023  0.0806 -0.3818
14015TIP3    H163460   5.323   0.876  16.962 -1.1574  1.4664  0.4102
14015TIP3    H263461   5.330   1.024  16.934  1.9034  1.1332 -1.0232
14016TIP3   OH263462   3.052   2.873   1.877  0.1538  0.5840  0.3269
14016TIP3    H163463   3.104   2.948   1.850  0.6182  0.4341  0.7943
14016TIP3    H263464   3.054   2.875   1.972 -0.3578  0.3428  0.3452
14017TIP3   OH263465   1.320   4.807   3.328  0.3161  0.3673  0.0071
14017TIP3    H163466   1.399   4.793   3.277  1.0988  2.5721  0.4915
14017TIP3    H263467   1.335   4.759   3.410  0.1689 -1.0246 -0.7524
14018TIP3   OH263468   4.897   6.365   1.880 -0.1851 -0.3044  0.5865
14018TIP3    H163469   4.901   6.373   1.975  0.8712  0.6483  0.4767
14018TIP3    H263470   4.988   6.352   1.853 -0.1736  1.6190 -0.4568
14019TIP3   OH263471   5.560   0.986  14.849  0.2096 -0.1777  0.6038
14019TIP3    H163472   5.521   0.949  14.928 -0.1756 -0.7519  0.1599
14019TIP3    H263473   5.536   1.078  14.851 -0.0125 -0.2433  1.0288
14020TIP3   OH263474   5.463   1.925   4.579  0.3302 -0.1743 -0.4137
14020TIP3    H163475   5.481   1.831   4.575  1.3733  0.0232 -0.6756
14020TIP3    H263476   5.480   1.949   4.670  1.4030  0.0016 -0.6485
14021TIP3   OH263477   4.443   1.487   4.050 -0.2338 -0.1583 -0.2755
14021TIP3    H163478   4.420   1.436   3.972 -1.3241  1.5596 -1.1369
14021TIP3    H263479   4.502   1.555   4.017 -0.5796  0.4943  0.4250
14022TIP3   OH263480   3.713   2.462   3.343 -0.4486 -0.1640 -0.5639
14022TIP3    H163481   3.754   2.499   3.264 -0.3810 -0.0106 -0.4583
14022TIP3    H263482   3.636   2.518   3.357  0.0810  0.4297  0.0428
14023TIP3   OH263483   5.152   3.737  15.707  0.1464  0.1136 -0.1455
14023TIP3    H163484   5.142   3.796  15.782 -1.0193  0.2195 -0.3722
14023TIP3    H263485   5.213   3.783  15.649  0.4246  0.3996  0.3596
14024TIP3   OH263486   6.670   0.253   1.716  0.2662  0.1325 -0.0354
14024TIP3    H163487   6.737   0.234   1.782 -1.0717  0.1725  1.3962
14024TIP3    H263488   6.654   0.347   1.724  1.3721  0.5133 -1.7337
14025TIP3   OH263489   1.010   4.072  10.449 -0.0601 -0.5314  0.0238
14025TIP3    H163490   1.032   3.990  10.404  0.1915  0.2429 -1.3339
14025TIP3    H263491   1.077   4.134  10.418 -1.7568  0.8470 -1.0557
14026TIP3   OH263492   0.344   6.134   1.040 -0.3866 -0.3163  0.2086
14026TIP3    H163493   0.282   6.110   0.972  0.4161  1.6096 -1.2901
14026TIP3    H263494   0.410   6.065   1.039 -1.7591 -1.7138  0.9603
14027TIP3   OH263495   0.212   2.067   0.739 -0.3763 -0.1873 -0.5587
14027TIP3    H163496   0.222   2.149   0.690 -0.1916 -1.1359 -2.1780
14027TIP3    H263497   0.167   2.093   0.819  0.6209  1.6530 -0.5364
14028TIP3   OH263498   6.330   3.713  14.647  0.8934 -0.2925 -0.1942
14028TIP3    H163499   6.302   3.804  14.637 -0.0347 -0.7121 -1.9558
14028TIP3    H263500   6.336   3.699  14.741  0.9368  1.5468  0.1068
14029TIP3   OH263501   6.260   6.098  12.764  0.5004 -0.5778  0.1345
14029TIP3    H163502   6.312   6.072  12.688  0.2305  0.6116 -0.4869
14029TIP3    H263503   6.200   6.165  12.731 -0.9690 -1.4008  0.9842
14030TIP3   OH263504   0.502   2.891  10.722  0.4598 -0.2283 -0.0152
14030TIP3    H163505   0.500   2.958  10.654 -0.5871  1.1330  1.2762
14030TIP3    H263506   0.590   2.854  10.718  0.9350  0.9639 -1.0108
14031TIP3   OH263507   1.261   3.700   4.570  0.2231 -0.2341 -0.5788
14031TIP3    H163508   1.204   3.630   4.538 -2.0724  1.2859 -0.1490
14031TIP3    H263509   1.260   3.689   4.665 -0.3401  0.4727 -0.4932
14032TIP3   OH263510   1.936   5.875  16.233 -0.4398  0.3628 -0.1403
14032TIP3    H163511   2.027   5.892  16.257 -0.3261  0.5036 -0.6697
14032TIP3    H263512   1.916   5.791  16.273 -0.4397  0.8696  0.9643
14033TIP3   OH263513   2.729   1.873   4.390 -0.1968  0.1051  0.3597
14033TIP3    H163514   2.693   1.795   4.348 -1.1051  1.3885 -1.4189
14033TIP3    H263515   2.652   1.923   4.417  0.3332  0.8389  0.5427
14034TIP3   OH263516   0.863   3.110  15.698  0.4573 -0.1494  0.2035
14034TIP3    H163517   0.778   3.151  15.714  0.3304 -1.4110  3.4415
14034TIP3    H263518   0.841   3.021  15.671  0.6144 -1.0785  2.8472
14035TIP3   OH263519   4.460   1.616   3.385 -0.1559  0.6981  0.1123
14035TIP3    H163520   4.489   1.575   3.304 -3.7583  0.6656 -1.3038
14035TIP3    H263521   4.417   1.545   3.434 -0.0727  1.2362  0.9923
14036TIP3   OH263522   2.651   0.847  14.221 -0.0634  0.1670 -0.1180
14036TIP3    H163523   2.557   0.837  14.206 -0.1699  1.1683 -0.2299
14036TIP3    H263524   2.692   0.795  14.152 -0.5513  1.5288 -1.5168
14037TIP3   OH263525   5.040   6.098  12.096  0.0603  0.1745  0.0590
14037TIP3    H163526   4.985   6.025  12.069 -2.6578  1.5566  1.4654
14037TIP3    H263527   5.009   6.173  12.046 -1.2977  1.5609  2.7410
14038TIP3   OH263528   1.835   2.034   2.764  0.0088  0.1320  0.4430
14038TIP3    H163529   1.773   2.106   2.754  1.0324  1.0498  0.5835
14038TIP3    H263530   1.819   2.000   2.852 -2.6349 -1.9148 -0.6798
14039TIP3   OH263531   3.832   3.239  16.179  0.9269 -0.4243 -0.4098
14039TIP3    H163532   3.872   3.224  16.265 -0.1727 -1.1399 -0.0006
14039TIP3    H263533   3.801   3.330  16.183  1.6236 -0.1804 -0.3755
14040TIP3   OH263534   2.798   3.645  10.386  0.3122  0.2425 -0.0339
14040TIP3    H163535   2.761   3.690  10.462 -1.2797  1.0316 -1.2037
14040TIP3    H263536   2.893   3.650  10.399  0.1014  1.3755  1.3152
14041TIP3   OH263537   3.857   6.611   4.546  0.6355 -0.4778 -0.4648
14041TIP3    H163538   3.900   6.617   4.461  3.4533  0.7149  0.8854
14041TIP3    H263539   3.880   6.524   4.578  2.4085  0.2133  0.3219
14042TIP3   OH263540   2.712   5.853   0.809  0.0373  0.1747 -0.0609
14042TIP3    H163541   2.718   5.862   0.904 -0.4612 -0.3501  0.0269
14042TIP3    H263542   2.773   5.782   0.789 -0.5052 -0.3103 -0.0218
14043TIP3   OH263543   0.138   3.003  10.931 -0.4533 -0.4926  0.0491
14043TIP3    H163544   0.182   3.077  10.972  1.1041 -0.5119 -1.4622
14043TIP3    H263545   0.088   3.042  10.859  0.0907 -0.8336 -0.5308
14044TIP3   OH263546   3.264   3.831   2.886 -0.8754 -0.3067  0.1530
14044TIP3    H163547   3.189   3.822   2.946  0.0469  1.0151  1.5722
14044TIP3    H263548   3.240   3.905   2.829 -0.1995  0.9262  1.4024
14045TIP3   OH263549   5.725   6.285   0.065 -0.3386 -0.0034 -0.0678
14045TIP3    H163550   5.819   6.291   0.083 -0.5542 -0.7860  1.5323
14045TIP3    H263551   5.695   6.376   0.064  0.4110  0.2447 -0.5044
14046TIP3   OH263552   5.454   5.850  13.201  0.0422  0.4122 -0.2032
14046TIP3    H163553   5.503   5.895  13.269 -0.3695 -1.3906  1.3574
14046TIP3    H263554   5.500   5.872  13.120  0.2574  3.0292  0.5215
14047TIP3   OH263555   4.012   3.960   4.406  0.1744 -0.3112  0.1076
14047TIP3    H163556   4.031   3.923   4.492  1.6305  0.5865  0.2089
14047TIP3    H263557   3.929   4.007   4.418  0.2545 -0.3686  0.9600
14048TIP3   OH263558   4.664   2.340   4.151 -0.4566  0.5062  0.9395
14048TIP3    H163559   4.628   2.255   4.177 -2.0970  0.1892 -1.9091
14048TIP3    H263560   4.589   2.400   4.155 -0.1809  0.9754 -0.4613
14049TIP3   OH263561   2.467   6.366  11.896  0.0584  0.2105  0.2794
14049TIP3    H163562   2.456   6.384  11.990  4.0066 -0.3610  1.0039
14049TIP3    H263563   2.554   6.399  11.875 -0.3340 -0.5342 -3.0056
14050TIP3   OH263564   6.284   1.014  15.404 -0.7180 -0.0902  0.5225
14050TIP3    H163565   6.273   1.106  15.429  0.8090  0.4791 -0.7717
14050TIP3    H263566   6.230   1.003  15.326  1.8051  0.7478 -1.4762
14051TIP3   OH263567   4.771   2.995  15.476 -0.0419  0.2684 -0.1991
14051TIP3    H163568   4.721   2.930  15.525 -0.6563  0.6067 -0.3612
14051TIP3    H263569   4.704   3.045  15.429  0.4022  1.1531  0.0945
14052TIP3   OH263570   0.218   1.751  13.482 -0.3308 -0.1625 -0.4154
14052TIP3    H163571   0.123   1.747  13.470 -0.4097  0.2812  0.0612
14052TIP3    H263572   0.233   1.827  13.538  0.3742  0.2789 -1.1796
14053TIP3   OH263573   3.195   3.503   4.494  0.4210 -0.1585 -0.0435
14053TIP3    H163574   3.184   3.578   4.552  2.5813 -1.8500  2.8164
14053TIP3    H263575   3.125   3.442   4.519  0.6962 -0.4522  0.0190
14054TIP3   OH263576   3.471   4.390   1.465  0.2787 -0.4229  0.4248
14054TIP3    H163577   3.488   4.320   1.402  0.4756 -0.9296  1.0283
14054TIP3    H263578   3.424   4.456   1.415 -2.3252 -2.1193  0.4362
14055TIP3   OH263579   5.953   3.010   4.459  0.0339  1.3234 -0.0238
14055TIP3    H163580   5.975   3.079   4.395 -0.2239  0.6370 -0.8769
14055TIP3    H263581   5.966   2.928   4.411  1.7444  0.6994  1.4116
14056TIP3   OH263582   5.698   4.635   0.666 -0.1703 -0.8740 -0.8712
14056TIP3    H163583   5.673   4.580   0.741 -0.0517  0.1917 -0.0209
14056TIP3    H263584   5.615   4.668   0.632 -0.1229  1.3093  0.9036
14057TIP3   OH263585   2.547   4.040   1.910  0.1041 -0.0882 -0.0269
14057TIP3    H163586   2.500   4.120   1.933 -1.1717 -0.6956 -0.4247
14057TIP3    H263587   2.565   3.998   1.994  2.3180  1.3900  0.3323
14058TIP3   OH263588   3.707   0.173  11.420 -0.6293  0.1230  0.0440
14058TIP3    H163589   3.766   0.201  11.490 -1.6963  2.9648 -0.0616
14058TIP3    H263590   3.643   0.117  11.464 -2.5576  3.5412  1.9861
14059TIP3   OH263591   6.622   5.592   6.623 -0.2834  0.4708 -0.1902
14059TIP3    H163592   6.610   5.504   6.588 -0.0914  0.3008  0.1643
14059TIP3    H263593   6.710   5.618   6.594 -0.3509  0.5575 -0.3188
14060TIP3   OH263594   4.469   6.169  16.577  0.2352  0.5367 -0.2133
14060TIP3    H163595   4.402   6.228  16.613  0.4966  0.7631 -0.0927
14060TIP3    H263596   4.548   6.188  16.628  0.2685 -0.0759 -0.0213
14061TIP3   OH263597   3.273   3.402   3.363 -0.5667  0.5309 -0.0072
14061TIP3    H163598   3.229   3.369   3.285 -0.0833  0.4129 -0.2368
14061TIP3    H263599   3.344   3.339   3.379 -0.1677  0.9884  0.0531
14062TIP3   OH263600   3.261   1.439   4.918  0.6069 -0.3242  0.4708
14062TIP3    H163601   3.217   1.363   4.880  2.4129 -0.6509 -1.1001
14062TIP3    H263602   3.214   1.514   4.881 -0.2274 -0.6531  0.8388
14063TIP3   OH263603   1.977   0.915   4.386  0.0314  0.5588 -0.1570
14063TIP3    H163604   1.884   0.936   4.375  0.2363  1.5889 -0.0297
14063TIP3    H263605   1.978   0.822   4.406 -0.9670  0.5032 -0.3061
14064TIP3   OH263606   5.646   0.713   5.008  0.1293  0.2111  0.5595
14064TIP3    H163607   5.605   0.700   4.922  3.0825  1.1102 -1.1545
14064TIP3    H263608   5.698   0.635   5.022 -0.7142 -0.1507  1.8325
14065TIP3   OH263609   5.078   4.241  15.957 -0.0404  0.2444  0.0725
14065TIP3    H163610   5.075   4.242  16.053  0.8881  0.2978  0.1096
14065TIP3    H263611   5.155   4.294  15.935  0.9625 -1.4013 -0.6238
14066TIP3   OH263612   4.559   3.838  16.984 -0.3617 -0.1212 -0.1620
14066TIP3    H163613   4.525   3.757  17.023 -1.5103  0.9928  1.2742
14066TIP3    H263614   4.566   3.818  16.891 -2.0840 -1.4061 -0.0792
14067TIP3   OH263615   6.024   3.920   4.142 -0.3244 -0.1926 -0.1866
14067TIP3    H163616   5.942   3.881   4.169 -0.0373 -0.2723  0.6093
14067TIP3    H263617   6.001   4.010   4.116 -0.4021  0.4685  1.9588
14068TIP3   OH263618   0.206   3.082   5.195 -0.2984 -0.7079  0.2700
14068TIP3    H163619   0.150   3.159   5.184 -1.9257 -1.9969 -0.7617
14068TIP3    H263620   0.294   3.115   5.175 -0.8232  1.0667  0.6626
14069TIP3   OH263621   5.268   0.294   4.658 -0.0146 -0.2038 -0.7402
14069TIP3    H163622   5.217   0.218   4.631  0.1052 -0.4766 -0.2136
14069TIP3    H263623   5.344   0.295   4.601  0.5938 -1.1751  0.0268
14070TIP3   OH263624   6.327   6.176  14.135  0.2901 -0.2240 -0.7922
14070TIP3    H163625   6.414   6.177  14.175 -0.3325 -2.1138  0.7412
14070TIP3    H263626   6.331   6.105  14.070  0.2623  0.5484 -1.6555
14071TIP3   OH263627   5.387   0.579   0.517  0.0390  0.7948  0.1640
14071TIP3    H163628   5.474   0.594   0.481 -0.0148 -0.8811 -0.8234
14071TIP3    H263629   5.355   0.665   0.542  1.4580  1.6093 -0.7143
14072TIP3   OH263630   6.195   0.992   4.548 -0.4066 -0.5475 -0.3172
14072TIP3    H163631   6.182   0.901   4.524 -1.6492 -0.4560 -0.0330
14072TIP3    H263632   6.150   1.042   4.480 -1.1749 -0.2072  0.4176
14073TIP3   OH263633   6.773   4.245  11.549  0.1181  0.1451  0.1615
14073TIP3    H163634   6.856   4.225  11.591  0.3171  1.3481  0.3972
14073TIP3    H263635   6.707   4.206  11.605  0.4965 -0.3051  0.2945
14074TIP3   OH263636   0.291   2.325   1.240  0.4231  0.0086 -0.1308
14074TIP3    H163637   0.250   2.405   1.274  0.3357  0.3502 -1.0130
14074TIP3    H263638   0.385   2.338   1.253  0.4074  0.2422 -0.2510
14075TIP3   OH263639   5.360   1.808   5.167  0.3843 -0.1758  0.0218
14075TIP3    H163640   5.284   1.790   5.111 -0.4959 -2.1963  1.7458
14075TIP3    H263641   5.394   1.892   5.134 -1.6682  0.0512 -1.7670
14076TIP3   OH263642   3.167   1.911   5.937  0.0143 -0.1294 -0.5691
14076TIP3    H163643   3.153   1.817   5.937  0.9006 -0.2781  0.2624
14076TIP3    H263644   3.262   1.921   5.941  0.0472  0.8095 -2.5723
14077TIP3   OH263645   2.345   6.305   5.591  0.5044 -0.5891 -0.4397
14077TIP3    H163646   2.271   6.277   5.537 -1.3985 -0.1869  1.8082
14077TIP3    H263647   2.370   6.226   5.639  1.0487 -0.5273 -0.6099
14078TIP3   OH263648   4.362   4.981   1.728 -0.0984  0.4622 -0.1600
14078TIP3    H163649   4.451   5.004   1.754 -0.7015  2.3407  0.4635
14078TIP3    H263650   4.306   5.031   1.788 -1.5557  0.2440 -1.2683
14079TIP3   OH263651   6.275   6.073  15.641  0.0123  0.1991  0.2459
14079TIP3    H163652   6.240   6.031  15.719 -2.4331 -0.1426 -0.9443
14079TIP3    H263653   6.367   6.090  15.662 -0.0290 -1.7863  2.3763
14080TIP3   OH263654   5.677   2.390   4.962  0.0702 -0.2620 -0.2143
14080TIP3    H163655   5.728   2.446   5.020 -1.1453  0.8035 -0.1098
14080TIP3    H263656   5.738   2.361   4.894  0.8056  0.9166 -0.0676
14081TIP3   OH263657   4.819   6.436  10.858  0.0807 -0.4746 -0.1890
14081TIP3    H163658   4.887   6.485  10.810 -1.3317  1.3421 -0.4431
14081TIP3    H263659   4.768   6.504  10.902  0.2927 -2.0030  2.5767
14082TIP3   OH263660   4.267   5.995   4.264  0.1234 -0.1807  0.0246
14082TIP3    H163661   4.359   6.020   4.272 -0.4450  1.6730  1.3808
14082TIP3    H263662   4.259   5.918   4.320  1.2897 -1.8717 -1.9681
14083TIP3   OH263663   0.029   2.192   0.331 -0.1700  0.8336 -0.3579
14083TIP3    H163664  -0.059   2.227   0.350 -0.7996 -1.1476  0.6080
14083TIP3    H263665   0.019   2.149   0.246 -1.5572 -3.4234  1.6689
14084TIP3   OH263666   2.200   6.782  13.911 -0.5897 -0.6801 -0.3482
14084TIP3    H163667   2.144   6.859  13.905 -0.9859 -0.6485  2.3041
14084TIP3    H263668   2.151   6.721  13.966  0.0650 -2.5353 -1.7032
14085TIP3   OH263669   3.351   3.393  11.852 -0.5575  0.2625 -0.2486
14085TIP3    H163670   3.296   3.467  11.828 -0.5720  0.9041  1.6201
14085TIP3    H263671   3.439   3.429  11.858 -0.5861  0.1981  0.8098
14086TIP3   OH263672   0.599   5.840  15.807  0.4952  0.4163 -0.5711
14086TIP3    H163673   0.601   5.857  15.713  1.4394 -0.7844 -0.7966
14086TIP3    H263674   0.533   5.901  15.841  0.4625  1.1839 -1.9326
14087TIP3   OH263675   2.380   5.847  13.113 -0.2089 -0.0273 -0.0361
14087TIP3    H163676   2.365   5.818  13.203 -0.7105  1.6988  0.4730
14087TIP3    H263677   2.344   5.935  13.110  2.3854  1.0754 -1.1401
14088TIP3   OH263678   2.112   6.785   5.413 -0.3270  0.3234  0.0515
14088TIP3    H163679   2.118   6.740   5.497 -0.7961 -0.8781 -0.5372
14088TIP3    H263680   2.072   6.870   5.434 -2.0625 -0.6269  0.8419
14089TIP3   OH263681   3.067   6.516   3.541  0.5380 -0.2993 -0.1834
14089TIP3    H163682   3.075   6.605   3.507  1.1614  0.0261  0.7500
14089TIP3    H263683   3.011   6.471   3.479  0.5334  0.6407 -0.8822
14090TIP3   OH263684   1.266   4.784   1.081 -0.0759  0.0338 -0.1075
14090TIP3    H163685   1.249   4.829   0.999 -0.0617 -1.4567 -0.9670
14090TIP3    H263686   1.217   4.701   1.074 -0.0209 -0.1597  1.3533
14091TIP3   OH263687   3.414   4.797   2.324  0.0081  0.3721 -1.3195
14091TIP3    H163688   3.403   4.727   2.259 -2.2113 -0.2921 -0.3318
14091TIP3    H263689   3.414   4.877   2.273  1.5997 -0.2529 -2.3909
14092TIP3   OH263690   3.630   0.725  16.355  0.0384 -0.4023 -0.2287
14092TIP3    H163691   3.710   0.730  16.408 -1.0689  0.6297  1.4304
14092TIP3    H263692   3.605   0.816  16.340 -0.8757 -0.7160 -0.6769
14093TIP3   OH263693   0.922   1.020   1.656  0.8061 -0.0797  0.1478
14093TIP3    H163694   0.883   0.996   1.740  2.5664  2.3506  1.7869
14093TIP3    H263695   0.889   1.108   1.639  2.6476  0.5750 -0.2440
14094TIP3   OH263696   2.669   1.222  10.330 -0.1948 -0.2637 -0.2486
14094TIP3    H163697   2.628   1.159  10.270 -0.2409 -0.6286  0.1558
14094TIP3    H263698   2.609   1.227  10.404  0.1175 -0.2292  0.0076
14095TIP3   OH263699   3.821   3.936  11.625  0.3385 -0.1027 -0.1876
14095TIP3    H163700   3.908   3.932  11.666  0.9956 -2.1015 -1.5951
14095TIP3    H263701   3.839   3.958  11.533 -0.8204  1.1061 -0.1615
14096TIP3   OH263702   4.050   4.022   5.439  0.5054 -0.1156  0.0298
14096TIP3    H163703   4.122   3.983   5.390  1.2548  0.4160  0.7001
14096TIP3    H263704   4.071   4.115   5.443  0.5172 -0.1656  1.4605
14097TIP3   OH263705   1.975   6.214   4.189  0.2869  0.5468  0.0933
14097TIP3    H163706   1.905   6.173   4.241  1.1883 -0.9580  0.1960
14097TIP3    H263707   2.053   6.206   4.243  1.2298 -0.9347 -1.3646
14098TIP3   OH263708   1.039   6.026   4.918 -0.3545 -0.1679  0.4938
14098TIP3    H163709   0.966   6.042   4.978 -0.5364 -1.9674  0.7968
14098TIP3    H263710   1.004   6.047   4.831 -1.0551 -0.4733  0.6958
14099TIP3   OH263711   6.270   2.280  14.450  0.2094  0.2836  0.5116
14099TIP3    H163712   6.282   2.258  14.357 -1.4208 -0.8048  0.5103
14099TIP3    H263713   6.359   2.281  14.485  0.7334 -3.4372 -0.2222
14100TIP3   OH263714   3.813   2.224  15.551 -0.1142  0.6272 -0.0044
14100TIP3    H163715   3.793   2.290  15.485  0.4189 -0.6322 -1.4888
14100TIP3    H263716   3.883   2.264  15.603  2.1935  0.2914 -2.5859
14101TIP3   OH263717   0.831   0.720  13.811  0.2404  0.2735 -0.1876
14101TIP3    H163718   0.748   0.696  13.770  0.1605 -1.2053  0.7439
14101TIP3    H263719   0.821   0.813  13.834 -2.5222 -0.5761  2.8461
14102TIP3   OH263720   2.301   4.524  12.682 -0.1668  0.3119 -0.4074
14102TIP3    H163721   2.293   4.480  12.766  0.1931  0.9964 -0.0006
14102TIP3    H263722   2.384   4.492  12.646 -1.4283 -1.8150 -1.6349
14103TIP3   OH263723   5.260   0.948  14.670  0.2394 -0.5832  0.2535
14103TIP3    H163724   5.276   0.867  14.621 -0.4725 -1.9811  2.1817
14103TIP3    H263725   5.341   0.998  14.661 -0.2694 -0.1255 -3.3036
14104TIP3   OH263726   0.053   3.847  14.028 -0.9797 -0.9561 -0.2173
14104TIP3    H163727   0.052   3.919  14.091  0.0175 -1.1597  0.0451
14104TIP3    H263728   0.145   3.820  14.023 -1.3050 -2.0915 -0.4423
14105TIP3   OH263729   2.869   4.195   0.670 -0.1008  0.8006  0.3441
14105TIP3    H163730   2.924   4.139   0.615  0.4471 -0.2014  1.8714
14105TIP3    H263731   2.869   4.280   0.625  0.2194 -0.0070 -1.2555
14106TIP3   OH263732   5.242   3.732   2.887 -0.9354 -0.0773 -0.0991
14106TIP3    H163733   5.313   3.750   2.825 -0.7420  1.0305  0.4240
14106TIP3    H263734   5.195   3.659   2.848 -0.6206  0.3758 -1.3962
14107TIP3   OH263735   2.760   1.330   4.446  0.1727 -0.0369 -0.0571
14107TIP3    H163736   2.725   1.383   4.518 -2.3830  0.1555 -1.2979
14107TIP3    H263737   2.786   1.248   4.487 -1.3009  0.0260  1.0952
14108TIP3   OH263738   2.213   5.800   5.712  0.5185 -0.5193  0.6266
14108TIP3    H163739   2.219   5.727   5.774 -1.6459  0.9166  2.7289
14108TIP3    H263740   2.134   5.847   5.739  0.3405  1.1012 -2.3281
14109TIP3   OH263741   6.396   6.157  11.272 -0.2569  0.0723  0.2846
14109TIP3    H163742   6.402   6.250  11.251  0.6054 -0.0309  0.0348
14109TIP3    H263743   6.470   6.117  11.227 -0.4671 -0.6978  0.6017
14110TIP3   OH263744   6.589   4.027  16.281 -0.5031  0.5494  0.2913
14110TIP3    H163745   6.661   4.032  16.218 -1.0185  1.1679 -0.2734
14110TIP3    H263746   6.521   3.977  16.236  0.5378 -2.4701  1.8441
14111TIP3   OH263747   3.451   3.042  13.858 -0.2181 -0.0152 -0.1675
14111TIP3    H163748   3.436   3.104  13.786  1.1570  0.2233 -0.2811
14111TIP3    H263749   3.385   2.974  13.845  0.4073 -0.3377 -2.0890
14112TIP3   OH263750   2.396   0.165   1.373 -0.0639 -0.1937  0.3299
14112TIP3    H163751   2.447   0.169   1.454 -1.9125 -1.7177  1.6665
14112TIP3    H263752   2.443   0.101   1.319  1.0528  0.6588  0.2650
14113TIP3   OH263753   6.761   4.852  12.950  0.0208 -0.0407 -0.7163
14113TIP3    H163754   6.703   4.777  12.965 -1.0730  0.8653 -0.2474
14113TIP3    H263755   6.779   4.850  12.856 -0.4890 -0.5325 -0.8098
14114TIP3   OH263756   3.788   2.249  13.647 -0.7193 -0.1966  0.6912
14114TIP3    H163757   3.738   2.173  13.677 -0.7509  0.1378  1.5211
14114TIP3    H263758   3.733   2.290  13.581  0.0840 -1.9080 -1.1549
14115TIP3   OH263759   2.768   5.098   3.813 -0.4638  0.1093 -0.1415
14115TIP3    H163760   2.729   5.078   3.898  0.2497  0.9479  0.4025
14115TIP3    H263761   2.844   5.153   3.833  1.3136 -1.8270 -1.1060
14116TIP3   OH263762   5.238   5.645  13.194  0.4047  0.7645 -0.2777
14116TIP3    H163763   5.304   5.713  13.183 -0.4326  1.4212 -1.5890
14116TIP3    H263764   5.195   5.666  13.277  1.4999  0.6028  0.3491
14117TIP3   OH263765   1.665   5.135   4.342  0.0748 -0.0612  0.0078
14117TIP3    H163766   1.614   5.080   4.282  1.9844 -0.1763 -1.6125
14117TIP3    H263767   1.714   5.073   4.396 -1.3476  0.0511  1.5322
14118TIP3   OH263768   2.870   3.371   1.057 -0.2371 -0.4501 -0.4190
14118TIP3    H163769   2.892   3.279   1.069 -0.9428 -0.6611 -0.7124
14118TIP3    H263770   2.952   3.418   1.074  0.1597 -1.1384 -0.4134
14119TIP3   OH263771   2.473   0.962   2.522  0.3330  0.5721 -0.1173
14119TIP3    H163772   2.559   0.938   2.556  0.3976  0.2103 -0.5320
14119TIP3    H263773   2.425   0.994   2.598  1.4613  2.6178 -0.1897
14120TIP3   OH263774   1.901   2.895   5.229  0.1629 -0.1424  0.5186
14120TIP3    H163775   1.822   2.907   5.281 -0.6437  0.8286 -0.8736
14120TIP3    H263776   1.910   2.800   5.222 -1.1702 -0.2738  0.2720
14121TIP3   OH263777   6.111   3.962   4.785 -0.1961 -0.2526  0.7061
14121TIP3    H163778   6.077   3.989   4.870 -1.2448  0.3804  0.1076
14121TIP3    H263779   6.142   4.043   4.745 -1.3767 -0.2344 -0.2347
14122TIP3   OH263780   3.131   1.734  11.448 -0.4241 -0.3900 -0.1315
14122TIP3    H163781   3.205   1.679  11.425 -0.8894 -0.5486 -1.3228
14122TIP3    H263782   3.054   1.680  11.430 -0.8445 -0.6790  2.2468
14123TIP3   OH263783   3.316   0.551  14.138  0.6235  0.2148 -0.4876
14123TIP3    H163784   3.297   0.639  14.104 -1.3813  0.6845  1.5887
14123TIP3    H263785   3.243   0.497  14.107 -1.5927  0.7773  3.0792
14124TIP3   OH263786   5.997   2.257  16.620 -0.5789  0.7844 -0.5180
14124TIP3    H163787   6.069   2.206  16.582  0.2116  1.2667  0.2920
14124TIP3    H263788   6.041   2.324  16.673 -1.5493  2.6714 -1.9848
14125TIP3   OH263789   3.809   0.415  15.337  0.0778 -0.3385 -0.0121
14125TIP3    H163790   3.840   0.415  15.247 -3.3424  0.6131 -1.3706
14125TIP3    H263791   3.821   0.504  15.368  1.3096 -0.6803  0.5265
14126TIP3   OH263792   4.361   2.315   0.506  0.1001 -0.1462 -0.2031
14126TIP3    H163793   4.449   2.277   0.503  0.0316 -0.2669 -0.6087
14126TIP3    H263794   4.302   2.240   0.509  0.0611 -0.3921  5.5976
14127TIP3   OH263795   1.725   2.538   0.543  0.3857  0.2121  0.5508
14127TIP3    H163796   1.642   2.560   0.502 -0.8127 -2.6024  1.2446
14127TIP3    H263797   1.778   2.503   0.472  0.6183  1.0109  0.3155
14128TIP3   OH263798   6.175   0.545   2.739  0.4781  0.1982  0.3805
14128TIP3    H163799   6.142   0.456   2.751  0.0408  0.3239  0.1213
14128TIP3    H263800   6.264   0.534   2.704  0.0581 -0.1320 -0.6081
14129TIP3   OH263801   3.976   1.649   5.464 -0.3581  0.8508 -0.2319
14129TIP3    H163802   4.013   1.618   5.547 -1.7556  1.8661  0.8017
14129TIP3    H263803   3.931   1.573   5.427  0.3104  0.3841 -0.1027
14130TIP3   OH263804   0.308   0.128   0.598 -0.3085 -0.0001  0.2119
14130TIP3    H163805   0.323   0.051   0.653 -0.4599 -0.4789 -0.3998
14130TIP3    H263806   0.313   0.094   0.508  2.1036  1.1313 -0.1640
14131TIP3   OH263807   3.785   6.153   5.828 -0.0940  0.2860  0.0747
14131TIP3    H163808   3.825   6.129   5.912 -0.2609  1.9231  0.6513
14131TIP3    H263809   3.825   6.092   5.765  0.2766 -0.7622  1.2649
14132TIP3   OH263810   5.140   2.797  15.931 -0.4774 -0.5547 -0.3822
14132TIP3    H163811   5.166   2.830  16.017  1.3426 -0.7002 -0.8468
14132TIP3    H263812   5.162   2.704  15.933 -1.3677 -0.7848 -0.6735
14133TIP3   OH263813   2.034   0.089  14.984  0.0871  0.4870 -0.3368
14133TIP3    H163814   2.017   0.135  15.066  0.7482  2.0747 -1.0378
14133TIP3    H263815   1.948   0.056  14.957 -0.1425 -0.0466  0.9563
14134TIP3   OH263816   4.767   3.761  11.582 -0.3606  0.0721 -0.3054
14134TIP3    H163817   4.801   3.842  11.619 -0.0019 -0.7851  1.3624
14134TIP3    H263818   4.841   3.724  11.533 -0.4346  0.5914 -0.8153
14135TIP3   OH263819   3.559   5.712   1.332  0.6805 -0.3065 -0.3886
14135TIP3    H163820   3.576   5.806   1.330 -1.4690  0.1767  1.2739
14135TIP3    H263821   3.522   5.692   1.246 -1.1870  0.9111  0.0800
14136TIP3   OH263822   1.864   3.236   5.350  0.2451 -0.4092 -0.0036
14136TIP3    H163823   1.925   3.309   5.360 -0.4402  0.2291 -0.4373
14136TIP3    H263824   1.893   3.191   5.271 -0.0863  0.1260 -0.4292
14137TIP3   OH263825   3.403   4.548  11.224  0.0758 -0.2213 -0.3593
14137TIP3    H163826   3.322   4.592  11.199 -1.1025 -1.5259  0.9179
14137TIP3    H263827   3.394   4.532  11.318  0.8337 -2.2842 -0.5681
14138TIP3   OH263828   2.360   6.525   5.981 -0.1608  0.8813  0.5104
14138TIP3    H163829   2.319   6.517   5.895 -1.8909 -0.1863  1.3807
14138TIP3    H263830   2.303   6.585   6.029  0.3126  0.7965  1.1892
14139TIP3   OH263831   2.003   2.301  16.597  0.3044  0.1541 -0.0199
14139TIP3    H163832   2.061   2.377  16.607  1.8774 -0.8037 -1.2820
14139TIP3    H263833   1.986   2.296  16.503  1.5415 -1.8992 -0.2189
14140TIP3   OH263834   5.466   3.828   1.397  0.8838 -0.5132 -0.5413
14140TIP3    H163835   5.455   3.923   1.400 -0.4772 -0.6635 -0.1067
14140TIP3    H263836   5.519   3.812   1.318  0.8515  0.5782 -0.7964
14141TIP3   OH263837   4.902   0.974   3.021 -0.1021  0.2374 -0.3003
14141TIP3    H163838   4.883   1.062   2.990 -1.2502  0.3704  0.6950
14141TIP3    H263839   4.995   0.962   3.005 -0.0546  1.4088 -0.9782
14142TIP3   OH263840   5.734   1.664  16.910 -0.4543  0.0105  0.5678
14142TIP3    H163841   5.701   1.727  16.847  1.3225  0.3268 -0.0814
14142TIP3    H263842   5.759   1.717  16.986 -0.7239 -0.1436  0.7670
14143TIP3   OH263843   4.312   0.446  12.981 -0.2436  0.0230 -0.7497
14143TIP3    H163844   4.344   0.488  12.901 -0.1469 -0.0790 -0.7645
14143TIP3    H263845   4.375   0.471  13.049 -0.2663  0.0201 -0.7274
14144TIP3   OH263846   5.786   0.229  10.902 -0.6447 -0.1612 -0.2447
14144TIP3    H163847   5.779   0.270  10.816 -2.8532  1.2864  0.5446
14144TIP3    H263848   5.697   0.200  10.923 -0.0921 -0.8191  1.4027
14145TIP3   OH263849   2.296   4.598   6.602  0.7729 -0.2518 -0.1950
14145TIP3    H163850   2.280   4.594   6.508 -1.0075  1.5586 -0.0264
14145TIP3    H263851   2.295   4.691   6.623 -0.0794 -0.6557  1.7789
14146TIP3   OH263852   6.404   1.811  10.602 -0.2897 -0.5499  0.5908
14146TIP3    H163853   6.492   1.824  10.565 -1.2788  1.5488 -1.2295
14146TIP3    H263854   6.415   1.830  10.696  1.0922  0.1392  0.3187
14147TIP3   OH263855   0.307   4.481   4.033 -0.1572  0.2007  0.6484
14147TIP3    H163856   0.372   4.431   3.984  0.7962  1.0928  0.9500
14147TIP3    H263857   0.231   4.424   4.038 -0.7036  0.4612 -2.7949
14148TIP3   OH263858   0.418   2.759   6.439  0.0013  0.3185 -0.1122
14148TIP3    H163859   0.484   2.711   6.490 -0.1347 -0.4373 -0.6369
14148TIP3    H263860   0.371   2.811   6.504  0.3903  0.0236  0.4159
14149TIP3   OH263861   3.310   5.777  16.036  0.1852 -0.1943  0.0043
14149TIP3    H163862   3.312   5.706  15.972 -0.6392  0.1724 -0.4422
14149TIP3    H263863   3.401   5.785  16.066  0.1376 -2.0500  0.7588
14150TIP3   OH263864   3.102   0.538   2.686  0.0180  0.0982  0.4823
14150TIP3    H163865   3.101   0.592   2.764 -1.1665  0.7638  0.0472
14150TIP3    H263866   3.032   0.575   2.631  0.6678 -0.4887 -0.7820
14151TIP3   OH263867   2.218   6.720   6.101  0.9184 -0.0004  0.7128
14151TIP3    H163868   2.272   6.788   6.141 -1.3111  1.6964  1.0634
14151TIP3    H263869   2.128   6.746   6.121 -0.1641 -1.2616 -2.0265
14152TIP3   OH263870   3.552   3.788  13.558  0.3003 -0.6617  0.0102
14152TIP3    H163871   3.527   3.881  13.558  1.4248 -0.3250  1.2897
14152TIP3    H263872   3.484   3.745  13.506  0.2413  0.9962 -1.3773
14153TIP3   OH263873   5.463   3.879   5.115 -1.0954 -0.5678  0.1572
14153TIP3    H163874   5.498   3.936   5.046  1.5575 -1.3104  0.7961
14153TIP3    H263875   5.378   3.850   5.080 -1.1637  1.3289 -1.4950
14154TIP3   OH263876   1.280   1.236  12.830  0.0270  0.1538  0.2331
14154TIP3    H163877   1.341   1.199  12.766 -0.1994  2.0848 -1.1823
14154TIP3    H263878   1.241   1.160  12.873 -0.1855 -1.2491 -2.2807
14155TIP3   OH263879   4.974   0.735  11.764 -0.1881 -0.1552 -0.7325
14155TIP3    H163880   5.046   0.676  11.743 -1.6903 -1.9334 -1.1133
14155TIP3    H263881   5.003   0.820  11.732  1.6854 -0.8288 -0.9644
14156TIP3   OH263882   4.865   1.325   6.562 -0.3468  0.1537 -0.4906
14156TIP3    H163883   4.909   1.254   6.610 -0.2308  0.3965 -0.2311
14156TIP3    H263884   4.773   1.315   6.583 -0.4134 -0.3368 -1.0072
14157TIP3   OH263885   6.637   0.569  16.230  0.7317  0.4631  0.3841
14157TIP3    H163886   6.647   0.552  16.324  0.5436  1.3328  0.5714
14157TIP3    H263887   6.594   0.491  16.196 -0.0676  0.5352  1.1946
14158TIP3   OH263888   3.941   3.798   3.781 -0.0633  0.3092 -0.2739
14158TIP3    H163889   3.960   3.712   3.819 -0.0520 -0.1459 -1.2910
14158TIP3    H263890   3.976   3.860   3.845  0.8307 -0.4519  0.0085
14159TIP3   OH263891   3.405   0.304  11.795  0.0807 -0.0736  0.0260
14159TIP3    H163892   3.427   0.217  11.761 -1.0572 -0.2068 -0.4131
14159TIP3    H263893   3.476   0.360  11.766 -0.3051 -0.4049 -1.6581
14160TIP3   OH263894   5.936   2.072   4.618 -0.6229  0.5050  0.3608
14160TIP3    H163895   5.910   2.035   4.534 -2.2905  0.3042  0.9235
14160TIP3    H263896   5.955   1.997   4.673 -1.3055  0.5527  0.6795
14161TIP3   OH263897   2.359   0.078   4.559  0.3444 -0.2557  0.3358
14161TIP3    H163898   2.435   0.133   4.578 -0.4117  0.7962  0.3648
14161TIP3    H263899   2.391  -0.012   4.569  0.8242  0.1737  3.4995
14162TIP3   OH263900   4.897   4.050  11.639  0.5274  0.1167 -0.3357
14162TIP3    H163901   4.958   4.075  11.570  1.3877 -0.7155  0.1133
14162TIP3    H263902   4.943   4.067  11.721 -0.6830  1.6152  0.0959
14163TIP3   OH263903   5.926   4.206   3.664 -0.2645 -0.8762  0.0522
14163TIP3    H163904   5.997   4.151   3.695  0.8412  0.9697  0.9279
14163TIP3    H263905   5.962   4.253   3.590 -1.4917 -1.9284 -1.2829
14164TIP3   OH263906   1.229   5.536  13.859 -0.3531 -0.6226 -0.2456
14164TIP3    H163907   1.313   5.499  13.885  0.7256  1.2415 -0.9267
14164TIP3    H263908   1.190   5.569  13.940 -0.7941 -2.0714  0.1790
14165TIP3   OH263909   4.584   5.875   2.220 -0.4109  0.0011 -0.0202
14165TIP3    H163910   4.504   5.926   2.225 -0.1859  0.5147 -1.4094
14165TIP3    H263911   4.640   5.922   2.158  1.2759  0.0590  1.4537
14166TIP3   OH263912   3.505   6.168   1.782 -0.0648 -0.9893  0.3179
14166TIP3    H163913   3.597   6.178   1.758 -0.9026  3.1593 -2.2723
14166TIP3    H263914   3.500   6.200   1.872  0.9356 -0.2374  0.1183
14167TIP3   OH263915   0.986   6.168   3.581 -0.2257 -0.8018 -0.3011
14167TIP3    H163916   0.954   6.222   3.653 -0.3083  0.3931 -1.1956
14167TIP3    H263917   0.907   6.143   3.533 -0.1504 -1.3957 -0.1284
14168TIP3   OH263918   2.178   4.786   4.099 -0.1219 -0.3358  0.1081
14168TIP3    H163919   2.149   4.824   4.181 -0.1693 -1.4526  0.6304
14168TIP3    H263920   2.273   4.780   4.107  0.0056  0.6976 -0.4425
14169TIP3   OH263921   4.379   4.053   6.000  0.3296  0.1143 -0.1593
14169TIP3    H163922   4.411   4.000   6.072 -0.3214 -0.4928 -0.3095
14169TIP3    H263923   4.414   4.141   6.016  2.3518 -0.5911 -0.5055
14170TIP3   OH263924   4.635   5.398  15.022  0.3300  0.1744 -0.3559
14170TIP3    H163925   4.693   5.388  15.098  0.9869  0.7396 -0.7700
14170TIP3    H263926   4.653   5.486  14.990  1.5107 -0.7127 -2.3255
14171TIP3   OH263927   6.819   5.720  13.175  0.1114  0.1715 -0.0330
14171TIP3    H163928   6.876   5.752  13.105  1.1757 -2.5974 -0.5560
14171TIP3    H263929   6.734   5.706  13.133  0.1305  0.6312 -0.2242
14172TIP3   OH263930   2.657   4.784  12.280  0.1098  0.7498  0.0511
14172TIP3    H163931   2.668   4.705  12.227  1.0415  0.5795  0.4756
14172TIP3    H263932   2.609   4.755  12.358  1.6632  0.2753  0.8772
14173TIP3   OH263933   1.867   5.454   5.593  0.1940 -0.7112 -0.1765
14173TIP3    H163934   1.842   5.522   5.531 -1.2746 -0.9760  0.0844
14173TIP3    H263935   1.940   5.493   5.643  0.6641 -0.0933 -1.3143
14174TIP3   OH263936   1.345   2.296  15.030  0.1526 -0.4584 -0.0518
14174TIP3    H163937   1.363   2.384  14.997 -1.9445  0.4444  1.0663
14174TIP3    H263938   1.392   2.239  14.969 -0.3917  1.2961 -2.2922
14175TIP3   OH263939   2.194   0.877  11.858  0.4582 -0.2225  0.3150
14175TIP3    H163940   2.194   0.787  11.824 -0.1547 -0.6830  1.4930
14175TIP3    H263941   2.105   0.909  11.843  0.0534 -0.5785  1.8177
14176TIP3   OH263942   6.433   3.149   5.739  0.1717  0.1348 -0.4656
14176TIP3    H163943   6.407   3.179   5.826  1.2710 -0.0822 -0.0462
14176TIP3    H263944   6.489   3.219   5.705 -0.4999  0.3589 -1.1370
14177TIP3   OH263945   3.540   6.479  13.593  0.2767 -0.6615  0.5477
14177TIP3    H163946   3.455   6.489  13.550  0.7672  1.1269 -0.0863
14177TIP3    H263947   3.520   6.434  13.675 -1.3490  0.1306  0.6225
14178TIP3   OH263948   1.612   5.610   5.711 -0.7317  0.1981  0.4548
14178TIP3    H163949   1.693   5.567   5.740 -1.2749 -0.5764  0.8620
14178TIP3    H263950   1.642   5.685   5.660  0.2477 -0.4676  0.0194
14179TIP3   OH263951   1.881   6.656  16.562 -0.0741  0.4024  0.1322
14179TIP3    H163952   1.787   6.675  16.571  0.0419  0.8001  0.5509
14179TIP3    H263953   1.916   6.669  16.650 -0.0877 -2.3980  0.6420
14180TIP3   OH263954   5.342   6.551   5.696 -0.2880 -0.4029 -0.0588
14180TIP3    H163955   5.270   6.521   5.751 -0.2123  0.4179  0.5095
14180TIP3    H263956   5.387   6.617   5.750  0.1717 -0.0521 -0.8602
14181TIP3   OH263957   2.844   1.709  12.963 -0.0648 -0.3560 -0.0801
14181TIP3    H163958   2.909   1.639  12.972  1.0657  0.5858 -0.7685
14181TIP3    H263959   2.872   1.776  13.024 -0.5160 -0.0280 -0.2281
14182TIP3   OH263960   5.919   3.524  13.862  0.5208 -0.2444  0.4467
14182TIP3    H163961   5.898   3.585  13.932 -0.0916 -0.1750  0.2120
14182TIP3    H263962   5.959   3.449  13.906 -0.0033 -0.2694  0.8902
14183TIP3   OH263963   6.272   1.269  15.190 -0.6134  0.4479  0.4408
14183TIP3    H163964   6.280   1.235  15.101 -0.4154  2.9096 -0.5642
14183TIP3    H263965   6.296   1.362  15.182 -0.5949  0.7308  3.0687
14184TIP3   OH263966   0.643   3.427   5.025  0.3753 -0.3212 -0.4102
14184TIP3    H163967   0.635   3.499   4.962  2.0365  0.3634  0.1159
14184TIP3    H263968   0.647   3.349   4.970  1.1855  0.2125 -1.1563
14185TIP3   OH263969   3.525   2.251   3.384  0.3635 -0.3678 -0.0178
14185TIP3    H163970   3.513   2.250   3.479 -0.3530 -0.1352 -0.0989
14185TIP3    H263971   3.595   2.314   3.369 -0.4298  0.6038  0.2675
14186TIP3   OH263972   6.277   0.579  14.834 -0.4371  0.3129  0.0461
14186TIP3    H163973   6.321   0.613  14.757 -0.8827 -0.4054 -0.5455
14186TIP3    H263974   6.339   0.592  14.906  0.8313 -0.8236 -0.7857
14187TIP3   OH263975   3.379   5.178   3.247  0.1764  0.4031 -0.2436
14187TIP3    H163976   3.340   5.139   3.169 -0.4323  1.2673 -0.3848
14187TIP3    H263977   3.451   5.119   3.270 -0.8465 -0.9419 -0.3132
14188TIP3   OH263978   0.275   1.924  12.420 -0.1320 -0.0646  0.5516
14188TIP3    H163979   0.201   1.880  12.379  0.9196  0.0099 -1.5421
14188TIP3    H263980   0.344   1.858  12.422  0.7997  0.8305 -0.7076
14189TIP3   OH263981   1.955   1.322  15.484  0.1326  0.4843  0.3193
14189TIP3    H163982   2.047   1.321  15.508  0.1433 -0.3659  0.2694
14189TIP3    H263983   1.915   1.253  15.537 -0.3147  0.2735 -0.2718
14190TIP3   OH263984   6.114   3.318   0.479  0.4719  0.3506 -0.4092
14190TIP3    H163985   6.060   3.341   0.554  0.9200  1.3519 -0.3688
14190TIP3    H263986   6.200   3.353   0.500  0.9431 -0.5419 -0.8089
14191TIP3   OH263987   2.550   2.735   0.364  0.2531 -0.2331 -0.4984
14191TIP3    H163988   2.579   2.644   0.370  0.2539 -0.1548  0.8455
14191TIP3    H263989   2.618   2.785   0.408  0.5234  0.4992 -1.6916
14192TIP3   OH263990   5.528   1.239  15.869 -0.1654  0.1629  0.3163
14192TIP3    H163991   5.526   1.213  15.962 -1.4673 -1.7757 -0.1841
14192TIP3    H263992   5.513   1.157  15.821 -2.1664  1.4806 -1.5136
14193TIP3   OH263993   6.443   0.727   0.005  0.2651  0.8202 -0.4987
14193TIP3    H163994   6.499   0.775  -0.057  1.6774 -1.6369 -1.2770
14193TIP3    H263995   6.495   0.720   0.084 -0.1857  1.0579 -0.1737
14194TIP3   OH263996   5.098   5.575  14.587  0.3463 -0.7078  0.4521
14194TIP3    H163997   5.036   5.645  14.607 -1.0256 -1.3104 -1.4360
14194TIP3    H263998   5.183   5.619  14.586 -0.6147  1.3177 -2.0653
14195TIP3   OH263999   4.995   3.292  10.981 -0.1885 -0.3327 -0.4823
14195TIP3    H164000   4.965   3.379  11.007 -1.0992 -0.9237  0.5138
14195TIP3    H264001   4.929   3.232  11.016  0.4119 -1.4312 -1.1653
14196TIP3   OH264002   3.758   0.020   5.715  0.2851  0.5669  0.1620
14196TIP3    H164003   3.700   0.096   5.717 -0.0340  0.3349 -0.2002
14196TIP3    H264004   3.836   0.049   5.762 -0.5036  0.5723  1.5199
14197TIP3   OH264005   0.934   4.452   2.127  0.0240  0.3501  0.2907
14197TIP3    H164006   1.027   4.431   2.114  0.2377  0.7196  1.1782
14197TIP3    H264007   0.888   4.373   2.098  0.5687  0.3941 -0.7462
14198TIP3   OH264008   6.341   5.187  12.340  0.3328 -0.8992 -0.2488
14198TIP3    H164009   6.375   5.108  12.383 -0.0076 -1.5599 -1.1730
14198TIP3    H264010   6.394   5.196  12.261  1.2339  0.5467  0.4633
14199TIP3   OH264011   3.255   3.230  13.280  0.0259  0.1764  0.0543
14199TIP3    H164012   3.340   3.198  13.250 -0.0224 -0.2006  0.3045
14199TIP3    H264013   3.205   3.150  13.299 -0.2224  0.3992  0.3478
14200TIP3   OH264014   1.524   4.122   2.111 -0.4208  0.5264  0.4083
14200TIP3    H164015   1.454   4.146   2.172  0.7703  1.0242  1.6377
14200TIP3    H264016   1.499   4.036   2.079 -0.3685 -0.4897  2.8318
14201TIP3   OH264017   0.405   6.666  15.961 -0.4161 -0.2535 -0.7860
14201TIP3    H164018   0.380   6.723  15.888  0.9840  1.0379 -0.3046
14201TIP3    H264019   0.428   6.725  16.031  2.9247 -1.2771 -0.8577
14202TIP3   OH264020   4.199   3.114   1.539  0.3376 -0.7379 -0.2733
14202TIP3    H164021   4.115   3.161   1.541 -0.8511 -2.7200  1.4639
14202TIP3    H264022   4.201   3.072   1.453  1.3796  2.2058 -1.8165
14203TIP3   OH264023   2.503   6.560   3.465  0.1350  0.3500  0.1758
14203TIP3    H164024   2.523   6.574   3.557  0.0382 -1.0012  0.4141
14203TIP3    H264025   2.448   6.482   3.463 -0.2743  0.6377 -0.9866
14204TIP3   OH264026   6.787   6.495  13.774  0.2637  0.4929 -0.1104
14204TIP3    H164027   6.873   6.452  13.767  0.7367  0.5766  3.3354
14204TIP3    H264028   6.805   6.586  13.751  0.1622 -0.1361 -3.1816
14205TIP3   OH264029   0.342   2.923  14.532 -0.0388 -0.2814 -0.5609
14205TIP3    H164030   0.397   2.966  14.597  1.0328 -2.7235  0.2562
14205TIP3    H264031   0.263   2.898  14.581  0.2330 -1.0089 -0.4716
14206TIP3   OH264032   4.352   3.459  12.882  0.0556 -0.1910  0.0750
14206TIP3    H164033   4.385   3.510  12.809  0.0996  1.4785  1.2100
14206TIP3    H264034   4.431   3.425  12.925  0.0292 -1.1843 -0.6199
14207TIP3   OH264035   6.412   2.838   3.383  0.3951 -0.0162  0.1538
14207TIP3    H164036   6.462   2.878   3.454  0.8336 -0.5447  0.1485
14207TIP3    H264037   6.373   2.759   3.422 -1.2473  0.8952  0.4282
14208TIP3   OH264038   1.794   4.079  13.152 -0.9650 -0.1531  0.3219
14208TIP3    H164039   1.735   4.036  13.090 -0.8853  0.7662 -0.4136
14208TIP3    H264040   1.835   4.007  13.199 -0.7782 -0.8908 -0.9243
14209TIP3   OH264041   4.945   5.977  14.096 -0.1769 -0.7384 -0.1808
14209TIP3    H164042   4.969   6.039  14.165  3.0503 -1.8769 -0.1019
14209TIP3    H264043   4.980   6.016  14.016 -0.0513 -1.4116 -0.4653
14210TIP3   OH264044   3.650   0.909  16.961  0.6372  0.1585 -0.3648
14210TIP3    H164045   3.658   0.958  16.879  0.4803 -1.2420 -1.2665
14210TIP3    H264046   3.561   0.926  16.991  0.2497 -0.3155 -1.1934
14211TIP3   OH264047   5.526   2.241   5.947 -0.6037 -0.0445  0.2721
14211TIP3    H164048   5.570   2.323   5.973 -1.7859  0.0684  2.1355
14211TIP3    H264049   5.464   2.224   6.018 -2.5312 -0.9784 -1.5194
14212TIP3   OH264050   2.229   2.126  15.737 -0.2743  0.2312  0.5542
14212TIP3    H164051   2.265   2.207  15.701 -0.4121 -0.0929 -0.3577
14212TIP3    H264052   2.292   2.059  15.712 -0.2020  0.0448  1.2354
14213TIP3   OH264053   4.183   3.321  16.350  0.4308 -0.4479 -0.0934
14213TIP3    H164054   4.265   3.369  16.360  0.2271 -0.0753 -0.2210
14213TIP3    H264055   4.136   3.367  16.281 -0.6379  0.3716  1.1645
14214TIP3   OH264056   6.053   0.854   0.572  0.1769  0.7250 -0.6922
14214TIP3    H164057   6.002   0.895   0.502 -0.1029 -1.3117 -1.7462
14214TIP3    H264058   6.072   0.926   0.632 -3.2484  1.7608 -0.6181
14215TIP3   OH264059   3.504   1.471   5.495  0.2075 -0.2276 -0.2633
14215TIP3    H164060   3.474   1.540   5.554  1.9617  0.3850  0.0019
14215TIP3    H264061   3.502   1.511   5.408 -0.7773 -0.5712 -0.4114
14216TIP3   OH264062   6.209   0.801   1.338 -0.3063  0.2568  0.1626
14216TIP3    H164063   6.222   0.771   1.428 -0.7299  0.3335  0.2475
14216TIP3    H264064   6.248   0.889   1.337 -0.4570  0.3250  0.3143
14217TIP3   OH264065   3.259   2.873   1.421 -0.0250 -0.0283  0.0060
14217TIP3    H164066   3.174   2.898   1.384  0.4686 -0.3752 -1.3780
14217TIP3    H264067   3.293   2.806   1.362  1.8870  1.1551 -0.3225
14218TIP3   OH264068   5.639   0.543  12.909  0.0034 -0.3694 -0.2512
14218TIP3    H164069   5.637   0.621  12.965 -0.8062  0.5939 -1.5586
14218TIP3    H264070   5.731   0.522  12.899  0.1867 -0.2053  0.9343
14219TIP3   OH264071   2.045   0.946   0.895 -0.6706 -0.6190 -0.3051
14219TIP3    H164072   2.021   1.012   0.960 -0.1018  0.5638 -1.2499
14219TIP3    H264073   1.996   0.971   0.816  0.2844 -0.7366 -0.9619
14220TIP3   OH264074   1.017   0.294   2.477  0.5388  0.1511 -0.1616
14220TIP3    H164075   0.930   0.322   2.449  0.1511  1.0226  1.7805
14220TIP3    H264076   1.074   0.368   2.457  0.6485 -0.0084 -0.4528
14221TIP3   OH264077   1.914   6.773  11.350  0.3151  0.1001  0.3503
14221TIP3    H164078   1.900   6.686  11.311  1.3656  0.2981 -0.5010
14221TIP3    H264079   1.826   6.812  11.353  0.1918  0.1542 -2.0333
14222TIP3   OH264080   2.901   4.175  11.186  0.5212 -0.0456 -0.1815
14222TIP3    H164081   2.835   4.124  11.139  1.4555 -0.4267 -1.1196
14222TIP3    H264082   2.851   4.223  11.252 -0.5391 -1.1699 -0.1345
14223TIP3   OH264083   1.835   0.065  12.009 -0.1912  0.1658  0.0947
14223TIP3    H164084   1.766   0.068  11.943  0.5962  0.3251 -0.7333
14223TIP3    H264085   1.879   0.149  12.002 -1.5740  1.2141  2.4907
14224TIP3   OH264086   3.579   4.100   1.858  0.3772  0.0470 -0.0664
14224TIP3    H164087   3.635   4.061   1.791  0.9030  1.5077 -0.5159
14224TIP3    H264088   3.639   4.136   1.922 -0.0397  1.1610 -0.2806
14225TIP3   OH264089   0.700   6.027   2.558 -0.0021 -0.2586  0.8061
14225TIP3    H164090   0.707   6.082   2.636 -0.0493 -0.5906  1.0475
14225TIP3    H264091   0.766   6.062   2.498 -1.9856  1.9940 -0.2651
14226TIP3   OH264092   1.797   0.709   0.850 -0.4683 -0.2402  0.0211
14226TIP3    H164093   1.727   0.771   0.830 -0.3955 -0.3426 -0.5963
14226TIP3    H264094   1.758   0.648   0.913 -0.5645  0.3738  0.5667
14227TIP3   OH264095   5.817   2.869  15.245  0.2945 -0.1865  0.0978
14227TIP3    H164096   5.832   2.832  15.158  1.3230  1.2852 -0.3835
14227TIP3    H264097   5.722   2.879  15.250  0.2584  0.2633 -1.1132
14228TIP3   OH264098   1.926   0.667   4.494 -0.3077 -0.1848 -0.9129
14228TIP3    H164099   1.970   0.596   4.542 -2.5400 -0.5006  0.8144
14228TIP3    H264100   1.840   0.631   4.471 -0.8086  1.3844 -1.5849
14229TIP3   OH264101   3.195   3.917  13.209  0.4118 -0.1225  0.2064
14229TIP3    H164102   3.170   3.982  13.274  3.4337  2.3130 -0.8401
14229TIP3    H264103   3.187   3.962  13.125  2.4075 -1.1247 -0.5971
14230TIP3   OH264104   4.573   3.081  16.784  0.4394 -0.2270  0.1909
14230TIP3    H164105   4.527   3.000  16.806  0.4587 -0.5180 -0.8176
14230TIP3    H264106   4.534   3.110  16.702  0.1261  1.0353  0.7556
14231TIP3   OH264107   6.115   6.635  15.743  0.4630 -0.4391 -0.2031
14231TIP3    H164108   6.203   6.599  15.752  1.7109  2.0153 -1.4648
14231TIP3    H264109   6.085   6.645  15.833  0.5592 -3.1906  0.2202
14232TIP3   OH264110   5.367   0.116   2.343 -0.0018  0.0833  0.2896
14232TIP3    H164111   5.449   0.074   2.315 -0.0970 -0.7456  1.1982
14232TIP3    H264112   5.298   0.060   2.307 -0.1758  0.7301 -0.3977
14233TIP3   OH264113   0.032   5.815   1.761  0.1461  0.3847 -0.1132
14233TIP3    H164114   0.105   5.871   1.736  0.3861 -0.5843 -1.7611
14233TIP3    H264115   0.072   5.744   1.811  0.0411  0.8867  0.6999
14234TIP3   OH264116   5.819   3.226  11.788  0.0194 -0.4425 -0.0768
14234TIP3    H164117   5.812   3.309  11.740  0.1762  0.6749  1.7118
14234TIP3    H264118   5.738   3.220  11.837  0.2282 -1.0978  0.1898
14235TIP3   OH264119   0.354   4.874   3.407 -1.0316 -0.2639  0.5009
14235TIP3    H164120   0.302   4.827   3.342 -0.7644 -0.1820  0.2199
14235TIP3    H264121   0.426   4.814   3.428  0.1458  0.5548 -0.9604
14236TIP3   OH264122   1.274   4.376   5.596  0.1864 -0.4400 -0.3725
14236TIP3    H164123   1.209   4.311   5.621  0.9866 -0.8273  0.8200
14236TIP3    H264124   1.357   4.328   5.597  0.4537 -0.0695 -2.3154
14237TIP3   OH264125   1.090   1.047   4.223  0.5315  0.3313  0.6007
14237TIP3    H164126   1.154   0.999   4.277  1.5488 -0.2815 -1.0802
14237TIP3    H264127   1.067   1.122   4.277  1.2626 -0.4040  2.0293
14238TIP3   OH264128   1.228   3.567   1.632  0.4296 -0.3799 -0.3579
14238TIP3    H164129   1.233   3.472   1.641  0.5281 -0.3338  0.0918
14238TIP3    H264130   1.319   3.594   1.621  0.5880 -0.1842  1.1781
14239TIP3   OH264131   5.548   1.565  14.934  0.3564  0.0019  0.3982
14239TIP3    H164132   5.514   1.507  14.865  1.2819 -0.6971  0.5196
14239TIP3    H264133   5.566   1.647  14.889  0.1493 -0.1786 -0.0226
14240TIP3   OH264134   4.723   6.029   3.545 -0.7117  0.1231  0.1711
14240TIP3    H164135   4.634   6.012   3.577 -0.0877 -0.8228  1.4961
14240TIP3    H264136   4.772   5.949   3.567  0.1799  0.1139 -1.6815
14241TIP3   OH264137   5.300   6.221  16.190  0.2673  0.7610  0.2820
14241TIP3    H164138   5.369   6.214  16.125 -1.1300  1.6507 -1.3813
14241TIP3    H264139   5.233   6.159  16.161  0.6508 -0.6948  2.3184
14242TIP3   OH264140   1.439   0.947   1.057  0.7242 -0.1384  0.2345
14242TIP3    H164141   1.478   1.026   1.095  0.1203  0.8161 -1.0788
14242TIP3    H264142   1.348   0.970   1.039  0.6626 -0.9791 -0.6287
14243TIP3   OH264143   6.183   1.062   4.927  0.0079 -0.5539  0.1504
14243TIP3    H164144   6.109   1.050   4.987 -0.3719  1.3010  0.0947
14243TIP3    H264145   6.154   1.128   4.865  1.8467  0.5362  0.3760
14244TIP3   OH264146   4.924   4.322  14.980  0.1208 -0.0351 -0.3924
14244TIP3    H164147   5.009   4.350  15.014  0.7708 -3.6294  1.4056
14244TIP3    H264148   4.941   4.239  14.936 -2.3405 -0.4302 -0.7511
14245TIP3   OH264149   5.121   5.157   3.874 -0.1661  0.0734  0.1247
14245TIP3    H164150   5.105   5.241   3.916  0.1030  0.2134 -0.0484
14245TIP3    H264151   5.100   5.172   3.782  3.6923  1.1424 -0.7569
14246TIP3   OH264152   1.765   0.380   2.160 -0.8973  0.9772  0.4597
14246TIP3    H164153   1.798   0.295   2.130 -5.1793 -0.8746  0.4017
14246TIP3    H264154   1.814   0.397   2.240  0.3699 -1.3301  0.2774
14247TIP3   OH264155   0.442   4.972  11.050  0.4750 -0.1009 -0.4632
14247TIP3    H164156   0.392   4.893  11.030  1.0024 -0.5926  0.1243
14247TIP3    H264157   0.430   4.985  11.144  0.3940  0.5290 -0.5504
14248TIP3   OH264158   2.965   3.261   0.615  0.0310 -0.9091 -0.1491
14248TIP3    H164159   2.911   3.233   0.689  1.3592 -0.3270  1.0881
14248TIP3    H264160   2.910   3.324   0.568 -0.5596 -0.7191  0.7666
14249TIP3   OH264161   2.101   1.848  15.739  0.3454 -1.1247  0.1638
14249TIP3    H164162   2.159   1.909  15.693 -0.8345  1.3100  1.7249
14249TIP3    H264163   2.097   1.771  15.682  1.9954  0.1885 -1.8533
14250TIP3   OH264164   4.745   6.203  17.069 -0.0012 -0.3271  0.1795
14250TIP3    H164165   4.813   6.244  17.123 -0.9567 -0.0390  1.2093
14250TIP3    H264166   4.764   6.109  17.072  1.4666 -0.1141 -1.1559
14251TIP3   OH264167   5.472   5.035  10.472 -0.4852  0.0199  0.3574
14251TIP3    H164168   5.473   5.120  10.429  0.5063  0.0593  0.4255
14251TIP3    H264169   5.415   5.047  10.548 -1.0303  0.3716 -0.1004
14252TIP3   OH264170   1.109   5.411  16.926  1.3731  0.0273  0.0082
14252TIP3    H164171   1.196   5.450  16.926  0.0998  3.1623  0.6833
14252TIP3    H264172   1.070   5.438  17.009 -0.5836 -0.4244 -0.6968
14253TIP3   OH264173   3.746   5.198   5.943  0.1519  0.4245 -0.7602
14253TIP3    H164174   3.710   5.279   5.978  1.0205  0.8470 -0.8030
14253TIP3    H264175   3.752   5.140   6.019  0.4595  0.7547 -0.5243
14254TIP3   OH264176   0.099   5.180  16.945 -0.2434 -0.3521  0.3151
14254TIP3    H164177   0.123   5.131  16.867 -1.6980  0.6898 -0.8584
14254TIP3    H264178   0.165   5.249  16.951 -0.4942 -0.0288 -0.4291
14255TIP3   OH264179   4.172   5.631  13.205 -0.3618  0.1297 -0.4888
14255TIP3    H164180   4.180   5.560  13.269  0.1250 -1.3842 -2.1536
14255TIP3    H264181   4.243   5.691  13.228  1.1414 -1.4386 -0.8188
14256TIP3   OH264182   5.036   4.340  14.444 -0.3152  0.2999 -0.3305
14256TIP3    H164183   5.122   4.372  14.470 -0.1822 -1.4142  1.6404
14256TIP3    H264184   5.012   4.394  14.369  1.3196  2.5801  0.6622
14257TIP3   OH264185   6.467   3.657   1.903 -0.6510 -0.1738 -0.5917
14257TIP3    H164186   6.473   3.566   1.933  0.7309 -0.4433 -1.6066
14257TIP3    H264187   6.437   3.651   1.813 -0.7667  0.3945 -0.5946
14258TIP3   OH264188   2.527   3.552   5.021 -0.5100  0.0499 -0.4671
14258TIP3    H164189   2.556   3.467   5.055 -0.7162 -0.7002 -2.0861
14258TIP3    H264190   2.582   3.615   5.067  0.1135 -1.0020  0.2884
14259TIP3   OH264191   1.584   1.181  15.321  0.6008  0.3010  0.0079
14259TIP3    H164192   1.584   1.094  15.361  0.2572 -0.3325 -1.3021
14259TIP3    H264193   1.495   1.213  15.332  0.1831 -0.3631 -1.2004
14260TIP3   OH264194   4.896   2.391   0.805 -0.2782  0.1740 -0.2995
14260TIP3    H164195   4.952   2.398   0.728  1.1784  0.8388  0.7697
14260TIP3    H264196   4.870   2.481   0.824  1.5389  0.4075  1.4583
14261TIP3   OH264197   2.953   6.455  12.536 -0.3759 -0.1751 -0.3830
14261TIP3    H164198   2.874   6.502  12.563 -0.0726  0.4024 -0.4807
14261TIP3    H264199   2.992   6.510  12.468 -1.2935 -1.7473 -2.3081
14262TIP3   OH264200   1.385   3.312   2.860  0.3182 -0.1366  0.2278
14262TIP3    H164201   1.473   3.346   2.846 -0.2676  1.3159 -0.0452
14262TIP3    H264202   1.327   3.375   2.818 -0.9000 -0.7032  0.9910
14263TIP3   OH264203   3.350   6.678   2.174  0.1834 -0.2175  0.4484
14263TIP3    H164204   3.425   6.639   2.220  0.7500  0.9968  0.6146
14263TIP3    H264205   3.356   6.771   2.195 -0.6667  0.0770 -0.5493
14264TIP3   OH264206   0.794   4.590  11.577 -0.7121  0.5264 -0.2346
14264TIP3    H164207   0.881   4.624  11.602 -0.3338  0.3171 -1.2306
14264TIP3    H264208   0.789   4.505  11.621 -0.0262  0.1288 -0.9042
14265TIP3   OH264209   2.205   3.246  15.721 -0.0497  0.1853  0.2430
14265TIP3    H164210   2.214   3.230  15.627  0.2678  0.0182  0.2996
14265TIP3    H264211   2.224   3.161  15.761  1.2675  0.5879  0.5275
14266TIP3   OH264212   4.168   0.573   0.062 -0.1561  0.0791 -0.2015
14266TIP3    H164213   4.090   0.520   0.044 -0.4929  1.1349 -2.0862
14266TIP3    H264214   4.178   0.629  -0.015  0.6402  2.2247  1.3474
14267TIP3   OH264215   6.688   2.912  16.711  0.3034 -0.4486  0.0847
14267TIP3    H164216   6.732   2.944  16.633  0.9789 -0.7021  0.3564
14267TIP3    H264217   6.616   2.858  16.678  1.0914 -1.2503 -0.3765
14268TIP3   OH264218   0.414   1.909  15.541  0.2565 -0.3882 -0.3511
14268TIP3    H164219   0.460   1.825  15.537  1.2583  0.0849  0.7159
14268TIP3    H264220   0.422   1.937  15.632 -0.1628  0.8111 -0.6597
14269TIP3   OH264221   0.836   5.831   1.913  0.0541  0.2221 -0.0546
14269TIP3    H164222   0.777   5.880   1.970  1.2038 -0.0783  1.4472
14269TIP3    H264223   0.779   5.791   1.848 -1.2858  0.6800  0.8041
14270TIP3   OH264224   0.684   4.199  11.772  0.0303 -0.6593  0.2833
14270TIP3    H164225   0.691   4.285  11.814  0.6993 -0.1313 -0.8441
14270TIP3    H264226   0.645   4.143  11.838  0.0747  0.3879  1.2309
14271TIP3   OH264227   3.748   6.413  10.463 -0.4570  0.3144  0.3712
14271TIP3    H164228   3.827   6.421  10.409  0.4724 -0.1812  1.5968
14271TIP3    H264229   3.781   6.396  10.551 -1.9579 -0.7360  0.7794
14272TIP3   OH264230   4.065   5.511  12.784 -0.0657  0.5469  0.1447
14272TIP3    H164231   4.121   5.445  12.743 -0.2611  1.9963 -2.6890
14272TIP3    H264232   3.997   5.460  12.828  1.5332 -1.1517  0.7725
14273TIP3   OH264233   3.628   3.608  16.666 -0.3177 -0.0693  0.1578
14273TIP3    H164234   3.578   3.648  16.737  0.4551  0.7982  0.2342
14273TIP3    H264235   3.591   3.648  16.586  0.7371  1.1807  0.2561
14274TIP3   OH264236   5.132   1.542  12.818  0.4403 -1.5901  0.0157
14274TIP3    H164237   5.081   1.500  12.749  0.6777 -1.3731 -0.2954
14274TIP3    H264238   5.213   1.491  12.822  1.4528 -0.2430 -1.4880
14275TIP3   OH264239   6.231   4.605  16.259  0.2103 -0.6288  0.0388
14275TIP3    H164240   6.311   4.587  16.308  3.1680  1.8524 -3.2987
14275TIP3    H264241   6.231   4.540  16.189 -0.1609 -0.0305 -0.5245
14276TIP3   OH264242   2.933   2.093  15.450  0.6036 -0.8423 -0.8648
14276TIP3    H164243   2.966   2.082  15.361 -0.3289 -0.7237 -1.2376
14276TIP3    H264244   2.842   2.062  15.446 -0.4995  2.0385 -0.7453
14277TIP3   OH264245   0.129   4.070  14.606 -0.0106  0.6086 -0.2484
14277TIP3    H164246   0.113   4.089  14.698  0.0649  1.7001 -0.4456
14277TIP3    H264247   0.130   4.156  14.563  4.0702  0.5380 -0.6485
14278TIP3   OH264248   2.750   3.803   5.462  0.7666 -0.0619  0.1235
14278TIP3    H164249   2.803   3.878   5.488 -0.3822  2.0212 -2.9676
14278TIP3    H264250   2.690   3.790   5.536  1.5463  1.5270  1.0986
14279TIP3   OH264251   5.407   6.641  15.942 -0.1517 -0.2746 -0.3958
14279TIP3    H164252   5.457   6.656  15.861 -1.1753 -0.2866 -1.0405
14279TIP3    H264253   5.317   6.662  15.919 -0.0908  2.6321  1.5362
14280TIP3   OH264254   2.465   0.128   1.943 -0.1700 -0.4695 -0.1510
14280TIP3    H164255   2.453   0.223   1.938 -2.3686 -0.7596 -1.7228
14280TIP3    H264256   2.557   0.114   1.922 -0.1793  1.2411 -1.4778
14281TIP3   OH264257   5.016   5.657   2.106  0.7664  0.8679 -0.4423
14281TIP3    H164258   5.082   5.589   2.121 -0.7406 -0.7699 -0.8003
14281TIP3    H264259   4.986   5.642   2.016 -0.5104  1.1579 -0.0927
14282TIP3   OH264260   2.171   3.222   0.800 -0.4133  0.1091 -0.6811
14282TIP3    H164261   2.175   3.213   0.705 -0.8472 -0.1323 -0.6770
14282TIP3    H264262   2.079   3.210   0.822 -0.3091  0.1226 -0.2253
14283TIP3   OH264263   2.101   0.668  12.645 -0.1960 -0.0689  0.4831
14283TIP3    H164264   2.170   0.701  12.587 -0.9147  1.7209  0.5739
14283TIP3    H264265   2.019   0.695  12.603 -0.9567 -3.0110 -0.1386
14284TIP3   OH264266   2.302   5.568  15.176 -0.0684  0.5665  0.0209
14284TIP3    H164267   2.234   5.580  15.110 -0.9221  2.1029  1.1285
14284TIP3    H264268   2.257   5.530  15.252  0.5365  0.5059  0.3659
14285TIP3   OH264269   6.354   4.640   2.050  0.2442 -0.4347  0.1523
14285TIP3    H164270   6.293   4.593   1.993 -0.7022  0.5327  0.3264
14285TIP3    H264271   6.378   4.718   2.000 -0.3215  0.2446  0.9007
14286TIP3   OH264272   3.042   2.037  10.572  0.0035 -0.0888 -0.6558
14286TIP3    H164273   2.991   2.008  10.648  0.0640  1.1122 -0.1301
14286TIP3    H264274   2.988   2.013  10.496  0.4600 -2.3494 -0.3474
14287TIP3   OH264275   1.460   3.463  10.460  0.1465  0.2596 -0.2046
14287TIP3    H164276   1.535   3.509  10.497 -0.4079  0.6754  0.4184
14287TIP3    H264277   1.498   3.402  10.397  1.1056 -0.4829  1.0558
14288TIP3   OH264278   1.257   5.064  13.168  0.4547 -0.2439  0.6917
14288TIP3    H164279   1.204   5.121  13.113 -0.6144  0.3109  2.2149
14288TIP3    H264280   1.242   4.976  13.133  0.3136  0.1567 -0.2808
14289TIP3   OH264281   6.695   6.819   1.953 -0.2597  0.0591 -0.9310
14289TIP3    H164282   6.714   6.837   2.045 -0.6724  0.1518 -0.8620
14289TIP3    H264283   6.627   6.882   1.929 -0.2399 -0.0412 -1.2679
14290TIP3   OH264284   2.215   3.768  17.021  0.1509  0.1725  0.1305
14290TIP3    H164285   2.123   3.772  16.994  0.4394  1.3496 -0.8030
14290TIP3    H264286   2.264   3.786  16.941  1.2676 -1.6831  0.3409
14291TIP3   OH264287   3.144   3.109  11.884 -0.0630 -0.7945 -0.2373
14291TIP3    H164288   3.215   3.138  11.941 -0.0268 -0.7376 -0.3096
14291TIP3    H264289   3.065   3.123  11.935 -0.0646 -0.3289 -0.3616
14292TIP3   OH264290   6.039   3.463  16.418  0.7203 -0.0524 -0.8738
14292TIP3    H164291   6.060   3.387  16.364 -0.1288  1.3148 -3.3053
14292TIP3    H264292   5.962   3.436  16.469  0.0601 -0.6764 -2.1387
14293TIP3   OH264293   4.541   3.108  13.360  0.0345 -0.3386  0.1485
14293TIP3    H164294   4.585   3.084  13.279 -0.8795  0.2008 -0.5370
14293TIP3    H264295   4.513   3.199  13.346 -0.7030 -0.4474  0.8085
14294TIP3   OH264296   0.037   6.742   3.504  0.0823  0.1635  0.1023
14294TIP3    H164297  -0.030   6.677   3.524 -2.3494  1.7360 -2.1561
14294TIP3    H264298   0.060   6.724   3.413 -0.4073  2.1705 -0.4624
14295TIP3   OH264299   4.198   3.932   2.283 -0.3414 -0.3751  0.9793
14295TIP3    H164300   4.211   4.027   2.278  0.7657 -0.5330  0.7749
14295TIP3    H264301   4.130   3.914   2.218 -1.2525  0.3841  1.6726
14296TIP3   OH264302   6.508   4.113   3.580  0.0526  0.4571 -0.5571
14296TIP3    H164303   6.553   4.176   3.637 -0.3094  1.1397 -1.0023
14296TIP3    H264304   6.481   4.042   3.638 -0.2579  1.1074  0.1181
14297TIP3   OH264305   6.520   2.286  12.302 -0.0469  0.1215  0.1583
14297TIP3    H164306   6.435   2.252  12.274 -1.1294  1.4937  1.6075
14297TIP3    H264307   6.564   2.312  12.221 -0.5622 -1.5433 -0.6839
14298TIP3   OH264308   4.481   4.422  16.648  0.0725 -0.1196 -0.3297
14298TIP3    H164309   4.475   4.510  16.685  1.5399 -0.2141  0.1764
14298TIP3    H264310   4.521   4.369  16.717  1.3086 -0.6695 -1.4253
14299TIP3   OH264311   6.818   6.114  10.563 -0.2431 -0.1194 -0.4207
14299TIP3    H164312   6.733   6.156  10.552 -0.4100  0.1696  1.5592
14299TIP3    H264313   6.800   6.020  10.553 -1.2644 -0.2570  1.9839
14300TIP3   OH264314   0.522   0.550  15.472  0.7643  0.0695 -0.5193
14300TIP3    H164315   0.493   0.641  15.474 -3.1885 -1.0133  0.5397
14300TIP3    H264316   0.610   0.552  15.510  1.3568  3.5057 -1.7091
14301TIP3   OH264317   2.347   3.798   2.763 -0.4671  0.1759  0.1314
14301TIP3    H164318   2.317   3.878   2.806 -1.2567  0.2562 -0.5468
14301TIP3    H264319   2.399   3.753   2.830 -2.2585 -0.0602  1.4362
14302TIP3   OH264320   4.753   4.001   6.526 -0.5659  0.4904  0.9102
14302TIP3    H164321   4.806   3.922   6.514 -2.1607 -0.9638  2.7842
14302TIP3    H264322   4.788   4.041   6.605  0.1723  1.6571  0.0203
14303TIP3   OH264323   1.964   6.543   3.316  0.2903 -0.0192 -0.8017
14303TIP3    H164324   2.034   6.479   3.332  1.4120  1.3365 -0.0394
14303TIP3    H264325   1.999   6.600   3.248 -0.3481  0.2806 -0.8853
14304TIP3   OH264326   2.151   4.184  16.426  0.5039  0.0246  0.2497
14304TIP3    H164327   2.164   4.145  16.340 -0.8064 -1.3233  0.6220
14304TIP3    H264328   2.238   4.181  16.467  0.8792 -0.4767 -0.5571
14305TIP3   OH264329   3.790   1.142   1.747 -0.1555 -0.2562  0.2500
14305TIP3    H164330   3.700   1.109   1.753 -0.8669  1.6166  0.3745
14305TIP3    H264331   3.794   1.187   1.663  0.5531  0.0415  0.4310
14306TIP3   OH264332   4.052   1.735  11.561  0.3678 -0.4584 -0.4305
14306TIP3    H164333   3.976   1.681  11.540 -0.7535  0.6540  0.5774
14306TIP3    H264334   4.067   1.787  11.482 -0.0582 -0.5364 -0.5624
14307TIP3   OH264335   2.133   1.568  11.581  0.0836  0.0940 -0.3233
14307TIP3    H164336   2.195   1.546  11.511 -0.2130 -1.0444 -0.2446
14307TIP3    H264337   2.169   1.648  11.620  1.2158 -0.2507 -0.6188
14308TIP3   OH264338   4.351   1.944  11.649 -0.4949  0.2065  0.2137
14308TIP3    H164339   4.299   1.964  11.570 -0.0290  0.8679  0.0659
14308TIP3    H264340   4.430   1.997  11.639  0.6882 -1.5672 -0.0583
14309TIP3   OH264341   5.517   0.626  12.520  0.2024 -0.8611  0.2864
14309TIP3    H164342   5.461   0.697  12.489 -1.9603 -2.1563  0.9633
14309TIP3    H264343   5.550   0.584  12.440 -0.3964 -0.5110 -0.1534
14310TIP3   OH264344   5.718   6.648  12.579 -0.0758  0.1167  0.2647
14310TIP3    H164345   5.623   6.648  12.593 -0.1088 -0.0021  0.0415
14310TIP3    H264346   5.740   6.740  12.562 -0.0718  0.2283  0.8372
14311TIP3   OH264347   2.346   5.032   3.983 -0.3771  0.1278 -0.2889
14311TIP3    H164348   2.366   4.956   4.038 -2.0415  0.6169  1.0955
14311TIP3    H264349   2.257   5.056   4.008  0.0801  2.5165 -0.7360
14312TIP3   OH264350   0.437   1.654  17.058 -0.1235 -0.3996 -0.3680
14312TIP3    H164351   0.520   1.608  17.062 -0.4093 -0.9857 -0.9710
14312TIP3    H264352   0.404   1.652  17.148 -0.3942 -1.8961 -0.4741
14313TIP3   OH264353   5.138   5.883  15.689 -0.5805  0.1490  0.5414
14313TIP3    H164354   5.076   5.877  15.616 -0.3452 -0.2102  0.3644
14313TIP3    H264355   5.223   5.897  15.647 -0.5503  0.7077  0.7865
14314TIP3   OH264356   1.925   2.075   5.239  0.0042 -0.1844  0.3124
14314TIP3    H164357   1.881   2.160   5.241 -2.5505 -1.4256  0.8895
14314TIP3    H264358   1.933   2.050   5.331  0.8015 -0.5612  0.1516
14315TIP3   OH264359   2.912   5.008   6.034 -0.6024  0.2231  0.0986
14315TIP3    H164360   2.971   4.990   5.961  1.6016 -0.5891  1.9735
14315TIP3    H264361   2.962   5.065   6.092 -2.4180  1.1090  0.8637
14316TIP3   OH264362   4.776   6.444  16.611  0.7338 -0.1867  0.0597
14316TIP3    H164363   4.760   6.351  16.626 -0.4265  0.1663  1.2549
14316TIP3    H264364   4.716   6.467  16.540  0.6463 -0.2532  0.1109
14317TIP3   OH264365   3.184   0.826  15.206 -0.2648 -0.3979  0.1154
14317TIP3    H164366   3.135   0.745  15.216  0.0583 -0.9505 -2.3432
14317TIP3    H264367   3.270   0.807  15.242  0.2019 -1.5995 -1.5095
14318TIP3   OH264368   4.529   3.305  16.006 -0.3939  0.1405 -0.1549
14318TIP3    H164369   4.505   3.247  15.934 -0.5980  1.0505 -0.8388
14318TIP3    H264370   4.449   3.352  16.028 -0.3352 -0.1224  0.6734
14319TIP3   OH264371   6.268   5.424   5.891  0.6357 -0.3183  0.1504
14319TIP3    H164372   6.299   5.345   5.935  0.2999 -1.3282 -1.3310
14319TIP3    H264373   6.201   5.392   5.831  1.5342  0.8668 -1.5618
14320TIP3   OH264374   0.774   1.706   1.477 -0.4937 -0.1133 -0.2432
14320TIP3    H164375   0.679   1.717   1.478 -0.6804 -1.2832 -1.5252
14320TIP3    H264376   0.795   1.691   1.385  0.8859 -0.3219  0.0866
14321TIP3   OH264377   5.347   0.238   2.880  0.9302  0.3221  0.5092
14321TIP3    H164378   5.300   0.156   2.866 -0.8802  1.5813 -1.2189
14321TIP3    H264379   5.408   0.243   2.806 -0.6052  1.5850 -0.7218
14322TIP3   OH264380   5.708   3.611  13.372 -0.3815 -0.7534 -0.3338
14322TIP3    H164381   5.697   3.660  13.290  0.9555 -1.9970 -1.3176
14322TIP3    H264382   5.769   3.664  13.424  0.4690 -0.9713 -1.0754
14323TIP3   OH264383   3.975   5.242   1.306 -0.5382  0.0947  0.3762
14323TIP3    H164384   3.963   5.150   1.329 -1.1832 -0.1574 -0.8667
14323TIP3    H264385   3.946   5.290   1.383  0.5174 -0.7419  1.3256
14324TIP3   OH264386   3.385   0.801  15.416 -0.1601  0.1375 -0.1385
14324TIP3    H164387   3.385   0.890  15.451  1.9713  0.3299 -0.4827
14324TIP3    H264388   3.428   0.748  15.483 -0.4285 -0.4318 -0.4058
14325TIP3   OH264389   4.482   6.646   3.037  0.0239  0.1478  0.7795
14325TIP3    H164390   4.445   6.731   3.013  0.9472  0.9514  2.0634
14325TIP3    H264391   4.544   6.666   3.108 -2.7059 -2.0268  4.1191
14326TIP3   OH264392   5.568   4.420  15.319  0.0696 -0.3646  0.5080
14326TIP3    H164393   5.662   4.425  15.299 -0.3326 -0.5574 -1.6336
14326TIP3    H264394   5.558   4.476  15.396  1.9685 -0.5381  0.9512
14327TIP3   OH264395   6.359   2.763  15.139 -0.1664 -0.0002  0.0166
14327TIP3    H164396   6.365   2.848  15.184 -1.1190  0.2886 -0.3817
14327TIP3    H264397   6.450   2.731  15.137 -0.0082  0.2559  1.5761
14328TIP3   OH264398   5.508   1.046   5.598 -0.2821 -0.5212 -0.2044
14328TIP3    H164399   5.426   1.060   5.647 -0.0474 -0.8560  0.2904
14328TIP3    H264400   5.485   1.067   5.508 -0.4343  1.2213  0.2090
14329TIP3   OH264401   4.165   6.217  12.755  0.3031  0.4756 -0.3384
14329TIP3    H164402   4.178   6.227  12.661  0.7522  0.4233 -0.2810
14329TIP3    H264403   4.183   6.125  12.773  0.4795  0.5442 -0.1586
14330TIP3   OH264404   2.262   2.781  16.944  0.2234 -1.0073 -0.6679
14330TIP3    H164405   2.187   2.836  16.923  0.4515 -0.9888 -1.4580
14330TIP3    H264406   2.334   2.843  16.960 -0.0419 -0.9983  0.6425
14331TIP3   OH264407   0.328   4.036  11.900  0.2449  0.0631 -0.0942
14331TIP3    H164408   0.295   3.946  11.901 -0.0142  0.1519 -0.3106
14331TIP3    H264409   0.261   4.087  11.946  1.2644 -0.1286  1.6874
14332TIP3   OH264410   1.177   0.792  12.818 -0.4245  0.1442 -0.1420
14332TIP3    H164411   1.180   0.739  12.738  0.2979 -0.5326  0.3149
14332TIP3    H264412   1.223   0.739  12.884 -0.6726  0.8535  0.6261
14333TIP3   OH264413   3.388   2.819  11.604 -0.1180 -0.0726 -0.1243
14333TIP3    H164414   3.471   2.863  11.619 -0.3970  0.6959 -0.7967
14333TIP3    H264415   3.325   2.889  11.591 -1.2896 -0.5673  2.2498
14334TIP3   OH264416   4.390   4.613  11.065 -0.4157  0.3174  0.4426
14334TIP3    H164417   4.333   4.609  11.142 -1.2825 -0.6538 -0.2334
14334TIP3    H264418   4.469   4.567  11.093 -1.0179 -0.6876  0.5289
14335TIP3   OH264419   4.033   3.077   3.758  0.9873 -0.2997  0.3951
14335TIP3    H164420   4.104   3.059   3.697  1.1520  1.2663  0.0657
14335TIP3    H264421   3.986   3.151   3.718  0.9787  0.6357  2.0430
14336TIP3   OH264422   1.295   4.623  12.249 -0.1010  0.2513 -0.3689
14336TIP3    H164423   1.354   4.615  12.324 -0.1848 -2.2336 -0.4789
14336TIP3    H264424   1.207   4.623  12.287 -0.1251 -0.1326 -0.4268
14337TIP3   OH264425   5.830   5.959  13.751  0.6752  0.2979 -0.3544
14337TIP3    H164426   5.748   5.921  13.718  1.2723 -0.0901 -1.4451
14337TIP3    H264427   5.860   5.897  13.817 -0.9493  1.4836  1.6422
14338TIP3   OH264428   3.725   6.059   4.750  0.3558 -0.2303  0.0552
14338TIP3    H164429   3.760   6.095   4.669 -0.7480  2.4129  0.6613
14338TIP3    H264430   3.640   6.023   4.725  0.6576 -0.7787 -0.2071
14339TIP3   OH264431   6.266   5.917   4.408 -0.3706  0.1421  0.4469
14339TIP3    H164432   6.250   5.896   4.500  2.3001  0.1622  0.9890
14339TIP3    H264433   6.246   6.011   4.402  0.5937  0.4312  1.3541
14340TIP3   OH264434   0.151   5.255   5.333 -0.1228 -0.1016  0.9782
14340TIP3    H164435   0.239   5.258   5.297 -0.0685  1.3215  1.1692
14340TIP3    H264436   0.164   5.247   5.428 -0.1631  0.6830  1.0614
14341TIP3   OH264437   6.455   3.155  13.489 -0.0225  0.0296 -0.0809
14341TIP3    H164438   6.436   3.228  13.430 -0.2042 -0.9964 -1.3496
14341TIP3    H264439   6.381   3.096  13.478  0.7275 -0.9408 -0.0688
14342TIP3   OH264440   6.465   0.520  12.134  0.2676 -0.1304  0.1363
14342TIP3    H164441   6.470   0.466  12.055 -1.2782 -0.8241  0.4847
14342TIP3    H264442   6.400   0.587  12.114 -0.1169 -0.2929  0.7900
14343TIP3   OH264443   2.428   1.317   0.146 -0.1128  0.5293  0.1532
14343TIP3    H164444   2.399   1.378   0.079  0.7488  1.1825  0.3597
14343TIP3    H264445   2.424   1.366   0.227 -0.4249 -0.0247  0.4816
14344TIP3   OH264446   0.264   1.673  16.414  0.2981 -0.9740  0.0375
14344TIP3    H164447   0.214   1.649  16.492  0.1118 -1.1531 -0.1339
14344TIP3    H264448   0.223   1.754  16.383 -0.1146 -1.3093 -0.3024
14345TIP3   OH264449   1.217   2.271  15.782  0.1966 -0.4565 -0.1352
14345TIP3    H164450   1.206   2.176  15.786 -0.2178 -0.4630 -0.9788
14345TIP3    H264451   1.194   2.302  15.869 -0.9900 -1.0220 -0.2210
14346TIP3   OH264452   0.635   2.267   2.932  0.5023  0.0288  0.4617
14346TIP3    H164453   0.666   2.302   3.015  1.7235 -0.4027  0.2009
14346TIP3    H264454   0.710   2.222   2.895 -0.8058 -2.3226  0.4745
14347TIP3   OH264455   5.711   4.680   1.802  0.5080 -0.1874  0.4351
14347TIP3    H164456   5.800   4.702   1.831  0.5587 -1.3948  1.2959
14347TIP3    H264457   5.675   4.763   1.770  1.0113  0.9236  2.5669
14348TIP3   OH264458   2.201   0.546   4.694 -0.3396  0.1669  0.8917
14348TIP3    H164459   2.199   0.555   4.789 -1.1392  1.1458  0.8032
14348TIP3    H264460   2.117   0.505   4.672 -0.3975  0.4538  0.5662
14349TIP3   OH264461   0.189   3.281   2.912 -0.3044 -0.3973  0.1420
14349TIP3    H164462   0.219   3.197   2.877  1.4563  1.1463 -2.4068
14349TIP3    H264463   0.269   3.328   2.934 -1.2273  0.7752  1.1220
14350TIP3   OH264464   1.489   0.417  10.318 -0.6274  0.0382  0.0048
14350TIP3    H164465   1.478   0.329  10.282  0.9753 -0.5145  0.7171
14350TIP3    H264466   1.433   0.473  10.265 -0.4572 -1.1634 -1.5235
14351TIP3   OH264467   3.825   4.504   1.042  0.0781 -0.1337  0.3225
14351TIP3    H164468   3.732   4.484   1.056 -0.1918  0.8930  0.1005
14351TIP3    H264469   3.852   4.549   1.122  0.3500 -0.2963  0.3235
14352TIP3   OH264470   5.324   4.434   1.340  0.1206 -0.0575  0.3364
14352TIP3    H164471   5.316   4.419   1.434 -0.1595 -1.2822  0.1412
14352TIP3    H264472   5.416   4.414   1.320  0.6153  1.7985  0.5867
14353TIP3   OH264473   1.361   3.591  13.314 -0.4715  0.0686 -0.1439
14353TIP3    H164474   1.308   3.539  13.254 -0.7231  1.1709 -0.9035
14353TIP3    H264475   1.368   3.538  13.393 -1.8678 -0.5236 -0.4040
14354TIP3   OH264476   5.868   4.778  17.035 -0.3696 -0.8789  0.3175
14354TIP3    H164477   5.831   4.699  17.075  1.3353 -1.3800  1.0005
14354TIP3    H264478   5.855   4.766  16.941 -1.4125 -1.2828  0.5010
14355TIP3   OH264479   1.317   6.389  10.881 -0.0616 -0.1417 -0.2977
14355TIP3    H164480   1.326   6.476  10.843  1.3947 -1.1115 -2.3469
14355TIP3    H264481   1.404   6.350  10.875 -1.2637 -2.9260 -2.6130
14356TIP3   OH264482   6.416   3.757  13.299  0.0748 -0.0511 -0.4830
14356TIP3    H164483   6.384   3.776  13.388 -1.8036  1.1010 -1.3384
14356TIP3    H264484   6.371   3.820  13.244  1.3570 -0.6305 -2.2606
14357TIP3   OH264485   6.806   6.669   4.310  0.0648  0.0196 -0.6922
14357TIP3    H164486   6.850   6.707   4.234  1.1201  0.6894  0.2224
14357TIP3    H264487   6.877   6.631   4.362 -0.6661 -0.6461 -0.1498
14358TIP3   OH264488   3.210   2.816   3.626  0.1285 -0.3626  0.1848
14358TIP3    H164489   3.129   2.852   3.662 -0.6457 -1.3776 -0.4786
14358TIP3    H264490   3.279   2.859   3.675 -0.8525 -1.2593  2.4695
14359TIP3   OH264491   2.492   4.971  11.050  0.4008  0.2392 -0.2625
14359TIP3    H164492   2.428   5.017  10.995 -1.1044 -2.5093 -0.9821
14359TIP3    H264493   2.563   4.950  10.990  0.5532  0.5699 -0.2031
14360TIP3   OH264494   3.319   0.345   4.121 -0.4421 -0.2869  0.1868
14360TIP3    H164495   3.342   0.261   4.081  0.4637  0.3636 -0.6903
14360TIP3    H264496   3.238   0.370   4.077  0.4708  0.3556 -1.1892
14361TIP3   OH264497   5.150   5.321  11.086  0.3061 -0.0317  0.6274
14361TIP3    H164498   5.178   5.230  11.098  2.8292  0.6415  0.3067
14361TIP3    H264499   5.230   5.372  11.091 -1.0164  2.1860  0.4977
14362TIP3   OH264500   0.900   3.272  15.490  1.0980 -0.2511  0.2584
14362TIP3    H164501   0.893   3.232  15.576  0.6170 -0.9529 -0.0940
14362TIP3    H264502   0.991   3.300  15.483  1.4205 -1.2090  0.5471
14363TIP3   OH264503   1.144   0.604   4.934  0.3066  0.1924  0.1454
14363TIP3    H164504   1.079   0.534   4.932  0.9433 -0.4092  0.2250
14363TIP3    H264505   1.142   0.641   4.845 -2.4888  2.4143  0.9816
14364TIP3   OH264506   2.919   3.124   2.966 -0.2711  0.3981  0.3637
14364TIP3    H164507   2.886   3.162   3.048 -0.3227  0.8842  0.1144
14364TIP3    H264508   2.861   3.157   2.898 -0.1178  0.1376  0.1022
14365TIP3   OH264509   1.518   6.279   1.431  0.3825  0.4006 -0.0888
14365TIP3    H164510   1.579   6.211   1.403  1.5248  0.9535  0.9490
14365TIP3    H264511   1.553   6.309   1.515 -0.4134  1.8525 -0.2422
14366TIP3   OH264512   2.455   3.608   0.750  0.1907 -0.1965 -0.2704
14366TIP3    H164513   2.506   3.688   0.755  0.6039 -0.3689 -1.3829
14366TIP3    H264514   2.364   3.637   0.746  0.2414  0.1460  0.8317
14367TIP3   OH264515   3.884   5.118   2.520 -0.2251 -0.3884  0.2348
14367TIP3    H164516   3.935   5.154   2.593  0.0614 -0.1973 -0.0555
14367TIP3    H264517   3.796   5.155   2.532  0.2007  0.9025 -0.3865
14368TIP3   OH264518   0.663   1.009  14.818 -0.4356 -0.4866 -0.5729
14368TIP3    H164519   0.706   0.971  14.895 -1.6199 -0.7616 -0.0189
14368TIP3    H264520   0.714   1.086  14.797 -0.9437  0.4605  1.4415
14369TIP3   OH264521   4.180   4.184  10.793  0.0171 -0.4033 -0.9265
14369TIP3    H164522   4.188   4.213  10.703  1.7244 -0.8533 -0.9655
14369TIP3    H264523   4.202   4.261  10.845  0.1907 -0.4486 -0.9308
14370TIP3   OH264524   5.338   3.594   1.520  0.0304 -0.1675  0.2028
14370TIP3    H164525   5.289   3.574   1.441  1.2877  1.0758 -0.9313
14370TIP3    H264526   5.376   3.681   1.505  0.0902  0.2289  2.2761
14371TIP3   OH264527   0.110   2.371  13.100 -0.2235 -0.1205 -0.4282
14371TIP3    H164528   0.027   2.347  13.057 -0.0899 -0.2249 -0.6327
14371TIP3    H264529   0.167   2.295  13.085  0.5807  0.7392 -2.0663
14372TIP3   OH264530   1.029   2.109   5.737 -0.5632 -0.0145 -0.3316
14372TIP3    H164531   1.030   2.137   5.646  2.1682 -2.2544 -1.1448
14372TIP3    H264532   1.091   2.168   5.781 -0.2461 -0.2530 -0.4485
14373TIP3   OH264533   5.636   4.540   2.134  0.5162  0.1687 -0.0734
14373TIP3    H164534   5.566   4.474   2.129  1.6121 -1.1370  0.9898
14373TIP3    H264535   5.598   4.610   2.188 -0.3234 -0.0279 -0.3888
14374TIP3   OH264536   0.033   5.990   1.977 -0.3201  0.0920 -0.2196
14374TIP3    H164537   0.046   5.983   1.882 -1.1904  1.0376 -0.4227
14374TIP3    H264538   0.120   6.008   2.012 -0.1132  0.4950 -0.9234
14375TIP3   OH264539   1.099   3.164  12.493 -0.0035 -0.4663 -0.5466
14375TIP3    H164540   1.073   3.073  12.504  0.7720 -0.4591  1.8477
14375TIP3    H264541   1.175   3.160  12.434 -0.1373 -1.3264 -0.6675
14376TIP3   OH264542   1.914   5.641   5.844 -0.3021 -0.1618  0.6664
14376TIP3    H164543   1.875   5.699   5.910 -0.2704 -1.7959  2.1959
14376TIP3    H264544   2.005   5.631   5.872 -0.2132 -0.6476  0.2075
14377TIP3   OH264545   3.012   6.694   4.038  0.1453  0.4367  0.4032
14377TIP3    H164546   3.064   6.615   4.052  1.9598  1.8282  2.1939
14377TIP3    H264547   2.933   6.680   4.091 -0.0633 -0.5954 -0.1533
14378TIP3   OH264548   0.675   1.346   5.171  0.6193  0.3638 -0.3648
14378TIP3    H164549   0.723   1.427   5.154  2.4764 -0.6842 -0.3715
14378TIP3    H264550   0.607   1.371   5.234  2.9728  1.4362  1.9622
14379TIP3   OH264551   0.990   5.744   1.414 -0.5972 -0.1648  0.1693
14379TIP3    H164552   1.052   5.729   1.343  0.4700  1.1484  0.7691
14379TIP3    H264553   0.905   5.719   1.378  0.1927 -1.5181 -0.8496
14380TIP3   OH264554   5.752   2.239   1.966  0.7667  0.5082 -0.5152
14380TIP3    H164555   5.721   2.162   2.014  2.8899  0.8088  1.5337
14380TIP3    H264556   5.814   2.204   1.902  1.1009  0.4470 -0.1581
14381TIP3   OH264557   3.160   3.020  16.484 -0.1367 -0.5819  0.8525
14381TIP3    H164558   3.240   2.968  16.490  0.1823 -0.4742 -1.5931
14381TIP3    H264559   3.185   3.106  16.518  0.5587 -0.7624  0.8114
14382TIP3   OH264560   1.166   3.643   4.823 -0.0474  0.2136 -0.9351
14382TIP3    H164561   1.117   3.702   4.880  0.6974  0.0403 -0.0965
14382TIP3    H264562   1.125   3.557   4.837  2.1646 -0.5121  1.9115
14383TIP3   OH264563   3.733   6.770   4.143 -0.3258 -0.5227 -0.4251
14383TIP3    H164564   3.659   6.710   4.152 -1.5958  1.1902  1.4565
14383TIP3    H264565   3.742   6.784   4.049 -2.5217 -0.6711 -0.7125
14384TIP3   OH264566   0.227   6.696  14.741 -0.1851 -0.3223 -0.6078
14384TIP3    H164567   0.269   6.614  14.766  0.7373  0.5538  0.8656
14384TIP3    H264568   0.277   6.726  14.664  0.3946 -0.4623 -0.2961
14385TIP3   OH264569   0.527   1.690   1.111 -0.1295 -0.4026 -0.0447
14385TIP3    H164570   0.485   1.772   1.085 -0.1661 -0.0282  1.1436
14385TIP3    H264571   0.462   1.646   1.166  0.1879 -0.8700 -0.0319
14386TIP3   OH264572   5.202   4.954   4.180 -0.5651 -0.6547  0.2981
14386TIP3    H164573   5.229   5.031   4.230 -1.8662 -0.4124  0.6684
14386TIP3    H264574   5.251   4.960   4.099 -0.8278  0.7248  0.2133
14387TIP3   OH264575   5.418   1.718  11.773  0.2332  0.1765  0.7019
14387TIP3    H164576   5.331   1.711  11.733  1.8276  0.0344 -3.0888
14387TIP3    H264577   5.443   1.627  11.792 -0.7354  0.2782  2.7351
14388TIP3   OH264578   2.898   0.646   1.319 -0.0196 -0.3764  0.5146
14388TIP3    H164579   2.863   0.610   1.400  0.4438 -0.6239  0.6092
14388TIP3    H264580   2.846   0.725   1.303  1.2090  0.8303  2.1439
14389TIP3   OH264581   2.907   1.712   0.974  0.3321 -0.1509  0.0987
14389TIP3    H164582   2.844   1.745   1.038  0.8756 -0.7334  0.9667
14389TIP3    H264583   2.962   1.652   1.024  0.1130 -1.4528 -1.1580
14390TIP3   OH264584   0.230   2.233   4.637  0.3153  0.2320 -0.4098
14390TIP3    H164585   0.292   2.263   4.570  0.2635  0.4171 -0.3749
14390TIP3    H264586   0.148   2.278   4.616 -0.1375 -0.8999 -1.1476
14391TIP3   OH264587   5.540   0.321  15.391  0.2016 -0.0079  0.1899
14391TIP3    H164588   5.613   0.266  15.362 -1.1458 -1.9815  0.3196
14391TIP3    H264589   5.554   0.332  15.485 -0.8857 -2.5092  0.7310
14392TIP3   OH264590   6.427   3.279   5.977 -0.0592 -0.2646 -0.0388
14392TIP3    H164591   6.513   3.317   5.994  0.1783 -0.8713  0.1470
14392TIP3    H264592   6.365   3.349   5.997  0.3999  0.2423 -0.3638
14393TIP3   OH264593   1.592   2.387   1.974  0.5447 -0.1065  0.0450
14393TIP3    H164594   1.580   2.417   1.884 -0.1160 -0.5797 -0.0362
14393TIP3    H264595   1.559   2.297   1.974  0.6694 -0.1616  0.7253
14394TIP3   OH264596   1.288   4.423   2.860  1.5526  0.3059 -0.2987
14394TIP3    H164597   1.382   4.413   2.846  1.7506  0.9959  0.5078
14394TIP3    H264598   1.272   4.517   2.852  0.9130  0.1835 -0.5114
14395TIP3   OH264599   2.010   0.115  16.659  0.3273 -0.1829  0.0702
14395TIP3    H164600   1.918   0.125  16.682  0.3534 -0.0682  0.1258
14395TIP3    H264601   2.033   0.027  16.689  0.9103  0.6926  2.3846
14396TIP3   OH264602   1.403   0.879   0.605 -0.1680  0.4873 -0.1904
14396TIP3    H164603   1.390   0.785   0.596 -0.7537  0.5075  0.3867
14396TIP3    H264604   1.421   0.910   0.516 -0.9029 -0.0296 -0.5210
14397TIP3   OH264605   3.668   4.465   6.310 -0.6111  0.3297 -0.1535
14397TIP3    H164606   3.660   4.469   6.406  1.4951 -0.6441  0.1189
14397TIP3    H264607   3.738   4.528   6.290 -0.7731  0.2409 -1.0101
14398TIP3   OH264608   5.376   2.698  15.752  0.5010 -0.1050 -0.5552
14398TIP3    H164609   5.346   2.637  15.820  2.0602 -1.2188 -0.8114
14398TIP3    H264610   5.297   2.724  15.706 -0.4065 -0.5350  0.7095
14399TIP3   OH264611   1.996   4.191   1.862  0.5027 -0.2790  0.5864
14399TIP3    H164612   2.004   4.242   1.781  1.2689 -0.3622  0.5994
14399TIP3    H264613   2.039   4.245   1.929  0.9183 -0.7396  0.6950
14400TIP3   OH264614   6.747   0.603  13.363  0.9131  0.4829 -0.4013
14400TIP3    H164615   6.673   0.663  13.345 -0.3571 -0.3536  1.7274
14400TIP3    H264616   6.819   0.661  13.386  0.4046  1.2799 -0.7436
14401TIP3   OH264617   2.245   4.331   0.517  0.0133 -0.6379  0.7145
14401TIP3    H164618   2.245   4.334   0.422 -1.9701  1.4518  0.6861
14401TIP3    H264619   2.337   4.343   0.542  0.4763 -0.5582 -0.9271
14402TIP3   OH264620   0.593   6.809   0.496  0.3675 -0.0822 -0.3357
14402TIP3    H164621   0.586   6.732   0.552  0.9134  0.3589  0.3655
14402TIP3    H264622   0.511   6.811   0.447  0.8623 -1.8260 -1.3285
14403TIP3   OH264623   2.825   1.124   5.175 -0.0676  0.2227 -0.0983
14403TIP3    H164624   2.844   1.135   5.268 -1.1094  1.1987  0.0278
14403TIP3    H264625   2.885   1.184   5.131 -0.8878  1.2282  0.1036
14404TIP3   OH264626   0.194   4.038   5.014 -0.0687  0.2043  0.4182
14404TIP3    H164627   0.124   3.977   5.037 -0.3280  0.3026 -0.0826
14404TIP3    H264628   0.266   3.982   4.986  0.5770  0.0435  2.2631
14405TIP3   OH264629   3.314   3.879   5.819  0.9679 -0.0938  0.7200
14405TIP3    H164630   3.363   3.809   5.862  1.8872 -0.5657 -0.9905
14405TIP3    H264631   3.375   3.915   5.755 -0.5744  0.0000 -0.7649
14406TIP3   OH264632   6.752   5.288  12.893 -0.0775 -1.0546 -0.7162
14406TIP3    H164633   6.789   5.221  12.951 -0.1384 -2.9410 -2.6968
14406TIP3    H264634   6.662   5.298  12.923  1.1028  1.6771  2.5126
14407TIP3   OH264635   2.316   4.740  12.162 -0.0733  0.3442 -0.0629
14407TIP3    H164636   2.358   4.802  12.221 -1.4769 -0.2209  1.6323
14407TIP3    H264637   2.223   4.743  12.185 -0.2133 -2.3340  0.1214
14408TIP3   OH264638   0.745   1.302  13.638 -0.1640  0.3269  0.2721
14408TIP3    H164639   0.800   1.224  13.647  0.1682  0.6122  0.7360
14408TIP3    H264640   0.783   1.350  13.564 -0.6737 -0.1887 -0.3453
14409TIP3   OH264641   4.769   1.980   4.128 -0.3201 -0.1245 -0.5170
14409TIP3    H164642   4.728   1.980   4.042  0.0958 -0.2028 -0.7144
14409TIP3    H264643   4.695   1.983   4.189 -0.6085  0.2819 -0.8757
14410TIP3   OH264644   2.991   4.279  15.127  0.4754 -0.8246  0.0279
14410TIP3    H164645   2.966   4.313  15.213 -1.2851  0.6862 -1.0428
14410TIP3    H264646   3.032   4.353  15.083 -0.7740 -0.8843 -1.2821
14411TIP3   OH264647   5.695   2.053  11.971 -0.9890  0.1658  0.2552
14411TIP3    H164648   5.687   1.958  11.957 -0.7926 -0.0587  1.5415
14411TIP3    H264649   5.611   2.078  12.009 -1.3168  0.6628 -0.7526
14412TIP3   OH264650   5.140   3.153   1.422 -0.1913 -0.4147  0.0744
14412TIP3    H164651   5.093   3.192   1.348  0.4591 -0.7368 -0.5167
14412TIP3    H264652   5.231   3.178   1.407  0.0298 -1.0112  0.4341
14413TIP3   OH264653   6.721   4.545   5.365 -0.0779 -0.1782 -0.1073
14413TIP3    H164654   6.765   4.624   5.395  0.3517 -0.3533 -0.2802
14413TIP3    H264655   6.789   4.477   5.363  0.2096  0.0849 -2.5878
14414TIP3   OH264656   1.056   4.091   5.484 -0.2949 -0.2979 -0.1834
14414TIP3    H164657   1.062   4.076   5.579  0.1008  1.4386  0.1002
14414TIP3    H264658   1.148   4.099   5.456 -0.3612 -1.7846 -0.9186
14415TIP3   OH264659   3.946   3.012  15.259 -0.8666 -0.6584  0.3697
14415TIP3    H164660   3.938   2.938  15.199 -1.4704 -2.1928  2.2068
14415TIP3    H264661   3.967   2.971  15.344  0.1358  1.3993  1.1796
14416TIP3   OH264662   0.265   1.652   4.131  0.3276 -0.3879  0.3120
14416TIP3    H164663   0.327   1.655   4.203  1.9639 -0.4755 -1.0482
14416TIP3    H264664   0.192   1.707   4.161 -0.1624 -2.2739  2.9597
14417TIP3   OH264665   3.325   3.509  11.019 -0.3798  1.1485 -0.2381
14417TIP3    H164666   3.252   3.516  10.957 -3.1426  0.1869  2.6367
14417TIP3    H264667   3.340   3.415  11.029 -0.5847  1.2441  1.1546
14418TIP3   OH264668   0.836   1.580   4.134 -0.2296 -0.3373  0.4189
14418TIP3    H164669   0.847   1.622   4.220 -2.1883  0.0718  0.5088
14418TIP3    H264670   0.795   1.496   4.153 -0.3452 -0.4040 -0.1054
14419TIP3   OH264671   5.837   6.343  16.137  0.0029 -0.0135 -0.0674
14419TIP3    H164672   5.752   6.301  16.122 -1.1257  1.1481  2.4507
14419TIP3    H264673   5.873   6.298  16.213  2.2498 -1.2031 -1.7243
14420TIP3   OH264674   5.058   1.863  14.892  0.0166  0.0541  0.0389
14420TIP3    H164675   5.140   1.903  14.864  0.1914 -0.0084  0.4523
14420TIP3    H264676   5.007   1.854  14.812  0.9282 -1.1168 -0.4276
14421TIP3   OH264677   1.141   3.583  12.512  0.4981  0.1177  0.2810
14421TIP3    H164678   1.158   3.562  12.604  2.4243  2.1616  0.5064
14421TIP3    H264679   1.053   3.550  12.495  1.0283 -2.5642  2.0989
14422TIP3   OH264680   0.971   1.943  15.165  0.2553  0.0362  0.4592
14422TIP3    H164681   1.037   1.940  15.234  2.1183 -1.9697 -1.2923
14422TIP3    H264682   0.972   1.856  15.127 -1.2041  0.8804 -1.6596
14423TIP3   OH264683   1.002   5.452   3.126 -0.4872  0.1461  0.1463
14423TIP3    H164684   0.933   5.516   3.142 -0.4131 -0.0071  1.1698
14423TIP3    H264685   1.057   5.456   3.204 -1.3452 -2.2497  0.9838
14424TIP3   OH264686   3.662   6.151  16.942  0.1368 -0.2613  0.0312
14424TIP3    H164687   3.721   6.219  16.973  1.6903 -1.9021  0.8248
14424TIP3    H264688   3.649   6.171  16.849 -1.4458  2.4622  0.7266
14425TIP3   OH264689   2.123   5.774  14.813  0.1306  0.2734  0.3098
14425TIP3    H164690   2.144   5.867  14.807 -0.2729  0.3204 -0.6489
14425TIP3    H264691   2.057   5.760  14.744 -0.2149 -0.6058  0.8025
14426TIP3   OH264692   4.693   3.557   0.140 -0.2860 -0.1868 -0.2725
14426TIP3    H164693   4.758   3.532   0.074 -1.0754  1.8961 -1.9534
14426TIP3    H264694   4.609   3.549   0.094 -1.0351 -0.4864  1.0922
14427TIP3   OH264695   1.825   3.930  15.129  0.0221 -0.4146 -0.0858
14427TIP3    H164696   1.749   3.964  15.176 -0.3867 -1.5564  0.1115
14427TIP3    H264697   1.834   3.840  15.160  1.0045 -0.5324 -0.6723
14428TIP3   OH264698   1.854   3.219   3.576  0.0819  0.7755 -0.4822
14428TIP3    H164699   1.838   3.299   3.525 -0.6564 -0.2155 -1.8730
14428TIP3    H264700   1.950   3.213   3.579  0.1458  1.3941 -0.9044
14429TIP3   OH264701   3.693   0.917  14.944 -0.2632 -0.1334  0.0498
14429TIP3    H164702   3.773   0.900  14.895  0.2126 -0.5109  0.9476
14429TIP3    H264703   3.637   0.841  14.927 -0.2279 -0.1124 -0.1611
14430TIP3   OH264704   5.354   1.271  16.981  0.3777 -0.2095 -0.0719
14430TIP3    H164705   5.313   1.355  17.003  2.1840  0.6487  0.2086
14430TIP3    H264706   5.439   1.295  16.944  2.3790 -1.9330  2.9693
14431TIP3   OH264707   2.645   0.688   2.432 -0.1748 -0.4819 -0.1397
14431TIP3    H164708   2.551   0.676   2.423 -0.4089  1.1959 -0.3641
14431TIP3    H264709   2.682   0.658   2.349 -0.7048  0.3764 -0.6979
14432TIP3   OH264710   3.377   4.793  15.529 -0.5950 -0.8146  0.2153
14432TIP3    H164711   3.457   4.842  15.546 -1.2111  0.1081  0.5464
14432TIP3    H264712   3.405   4.718  15.477  1.1063 -2.6754  3.5397
14433TIP3   OH264713   4.855   1.552  13.768 -0.7241 -0.2521  0.9441
14433TIP3    H164714   4.782   1.511  13.722 -0.4424 -0.6207  0.8225
14433TIP3    H264715   4.911   1.585  13.699 -1.7490  1.8335  1.0197
14434TIP3   OH264716   1.564   3.200  13.417 -0.0455  0.4321  0.0853
14434TIP3    H164717   1.531   3.215  13.329 -0.0828  1.0048  0.1927
14434TIP3    H264718   1.491   3.161  13.464  0.2679 -0.7876 -0.3859
14435TIP3   OH264719   1.762   2.287   5.161 -0.7009  0.4539 -0.7249
14435TIP3    H164720   1.721   2.364   5.201 -0.3970  0.4974 -0.4973
14435TIP3    H264721   1.842   2.319   5.122 -0.1264  0.1070  0.1298
14436TIP3   OH264722   5.041   0.850   1.109 -0.1454  0.4991  0.1031
14436TIP3    H164723   5.034   0.945   1.118 -2.4031  0.4777 -0.6654
14436TIP3    H264724   4.958   0.817   1.144  1.1084 -1.3318  1.5499
14437TIP3   OH264725   0.058   5.103   4.792 -0.3390  0.2491  0.3463
14437TIP3    H164726   0.073   5.080   4.883 -1.3687 -1.5256  0.1151
14437TIP3    H264727   0.128   5.165   4.771 -0.2177  0.8769  2.3789
14438TIP3   OH264728   0.310   6.032   2.696  0.2132 -0.1683 -0.4330
14438TIP3    H164729   0.236   6.086   2.669  0.2372 -0.3416 -0.8493
14438TIP3    H264730   0.300   5.951   2.647 -0.3600 -0.9341  0.8949
14439TIP3   OH264731   5.132   3.039   6.751 -0.1839 -0.5569  0.5973
14439TIP3    H164732   5.061   3.102   6.742 -1.4316 -1.9800  0.1525
14439TIP3    H264733   5.183   3.071   6.825 -0.4029  1.2971  0.0069
14440TIP3   OH264734   1.569   3.203   2.608  0.1770 -0.0875  0.1953
14440TIP3    H164735   1.507   3.249   2.551 -0.4080  0.7348  1.4588
14440TIP3    H264736   1.531   3.115   2.618  0.3312 -0.2732 -0.7270
14441TIP3   OH264737   3.757   0.757  15.390  0.7368 -0.2131 -0.0071
14441TIP3    H164738   3.703   0.796  15.459  0.6095  1.2888 -0.9006
14441TIP3    H264739   3.844   0.750  15.429  0.7206  0.8273  0.2406
14442TIP3   OH264740   1.455   1.614   4.855  0.0612 -0.6601  0.2508
14442TIP3    H164741   1.514   1.686   4.877  0.6712 -1.4967  1.4097
14442TIP3    H264742   1.400   1.603   4.933 -4.5869  2.7319 -2.0032
14443TIP3   OH264743   6.579   3.521   5.268 -0.1918  0.2407 -0.4354
14443TIP3    H164744   6.569   3.616   5.261 -0.0245  0.1510 -2.6286
14443TIP3    H264745   6.493   3.490   5.297  0.3694  1.1599  2.6378
14444TIP3   OH264746   5.924   6.009   3.115 -0.0068  0.1752  0.3590
14444TIP3    H164747   5.987   5.972   3.177 -0.4219  1.3163  1.5082
14444TIP3    H264748   5.925   5.949   3.040  1.5878 -0.4480  0.8421
14445TIP3   OH264749   1.832   6.201   2.104  0.6045 -0.8463 -0.1748
14445TIP3    H164750   1.784   6.201   2.187  1.5882  0.3237  0.4332
14445TIP3    H264751   1.904   6.139   2.117  0.9844 -0.3809  0.0155
14446TIP3   OH264752   3.420   3.127   3.011 -0.3540 -0.2231 -0.1440
14446TIP3    H164753   3.364   3.101   3.084 -1.0710  0.7133 -0.3432
14446TIP3    H264754   3.387   3.075   2.937 -0.5924 -0.0891 -0.1331
14447TIP3   OH264755   1.236   0.723  12.197  0.4487  0.4115  0.4334
14447TIP3    H164756   1.286   0.800  12.169 -1.5295  0.9471 -1.9384
14447TIP3    H264757   1.148   0.738  12.163  0.0621 -3.0597 -0.4700
14448TIP3   OH264758   3.781   1.467   5.344 -0.0289  0.2266  0.4670
14448TIP3    H164759   3.691   1.500   5.339 -0.0859  0.0513  0.3441
14448TIP3    H264760   3.774   1.387   5.396  0.3471  1.2809  2.2213
14449TIP3   OH264761   3.861   5.744   2.012  0.1929  0.4533  0.2367
14449TIP3    H164762   3.853   5.670   1.952  1.0006 -0.4482  1.2103
14449TIP3    H264763   3.818   5.716   2.093 -0.0440  1.2883  0.4179
14450TIP3   OH264764   5.269   1.400   6.138  0.0686 -0.3448  0.0410
14450TIP3    H164765   5.351   1.415   6.090 -0.7129 -0.4580 -1.3663
14450TIP3    H264766   5.297   1.365   6.223  1.4912  0.0465 -0.2379
14451TIP3   OH264767   2.385   6.754   1.758  0.4006 -0.2508  0.1664
14451TIP3    H164768   2.408   6.681   1.816 -1.2961 -0.8663  0.1225
14451TIP3    H264769   2.409   6.832   1.808  0.3301 -0.8042  1.0969
14452TIP3   OH264770   1.882   2.476  10.546  0.0517  0.3221  0.1886
14452TIP3    H164771   1.959   2.518  10.584  0.5921 -0.3790 -0.1150
14452TIP3    H264772   1.853   2.537  10.478  0.4201  0.5272  0.2139
14453TIP3   OH264773   2.065   5.288   5.376  0.6610 -0.0358  0.4778
14453TIP3    H164774   2.019   5.365   5.410  0.7679 -0.1854  0.9700
14453TIP3    H264775   2.156   5.317   5.369  0.5005  0.2467 -0.4551
14454TIP3   OH264776   2.799   0.050   4.139  0.4694  0.3117  0.4601
14454TIP3    H164777   2.730   0.092   4.088  1.0044  1.1333  0.3918
14454TIP3    H264778   2.880   0.077   4.096  0.8691 -0.0399  0.9795
14455TIP3   OH264779   6.203   3.727  11.527 -0.6958 -0.0445 -0.6236
14455TIP3    H164780   6.167   3.743  11.440 -0.6557  3.4667 -0.1548
14455TIP3    H264781   6.141   3.768  11.587  0.4983 -0.1844  0.7800
14456TIP3   OH264782   3.491   5.351   5.316 -0.2549 -0.6340  0.2141
14456TIP3    H164783   3.556   5.412   5.352 -1.1869 -0.4157  1.5630
14456TIP3    H264784   3.536   5.266   5.315  0.6009 -0.1920 -0.4439
14457TIP3   OH264785   4.785   3.948   4.477  0.5291  0.5369 -0.2190
14457TIP3    H164786   4.756   3.867   4.519 -1.9929 -0.0099 -2.7015
14457TIP3    H264787   4.842   3.919   4.407  1.5141  1.1324  0.3189
14458TIP3   OH264788   5.933   4.787  14.641 -0.2572  0.2960 -0.1153
14458TIP3    H164789   5.866   4.809  14.706 -0.6612 -1.6379  0.1803
14458TIP3    H264790   5.898   4.710  14.596  2.1491 -1.4368  0.7503
14459TIP3   OH264791   6.587   5.579  16.136  0.7028 -0.1661  0.2962
14459TIP3    H164792   6.577   5.673  16.153  2.5532 -0.1698  1.7177
14459TIP3    H264793   6.498   5.548  16.118 -0.1601  1.5914  1.3261
14460TIP3   OH264794   2.144   6.183   2.808 -0.0312  0.3766 -0.0780
14460TIP3    H164795   2.202   6.246   2.765 -0.7568  0.7062 -0.5799
14460TIP3    H264796   2.201   6.107   2.825  0.3067  0.2625 -1.5475
14461TIP3   OH264797   3.309   0.559  13.785  0.1326 -0.3983  0.3055
14461TIP3    H164798   3.350   0.543  13.869 -1.7749 -1.7500  1.0495
14461TIP3    H264799   3.280   0.473  13.755  1.9904 -0.1844 -2.4614
14462TIP3   OH264800   3.040   5.354  12.597 -0.7903 -0.4136  0.3184
14462TIP3    H164801   3.003   5.303  12.525 -1.5904  1.6536 -0.8119
14462TIP3    H264802   3.050   5.442  12.561  0.8719  0.1803  2.0756
14463TIP3   OH264803   0.913   5.062   1.944  0.1755  0.0236  0.0437
14463TIP3    H164804   0.862   5.045   2.023  1.1213  1.6835  1.0746
14463TIP3    H264805   1.002   5.031   1.966  0.3800  0.2523 -0.4560
14464TIP3   OH264806   1.990   6.793   5.134  0.0234  0.4901  0.8233
14464TIP3    H164807   2.059   6.842   5.178  1.8283 -1.3592  0.2085
14464TIP3    H264808   1.935   6.860   5.095  1.5180  2.0561  1.2624
14465TIP3   OH264809   0.503   2.485   4.833 -0.4244 -0.0681  0.1165
14465TIP3    H164810   0.518   2.575   4.863 -1.2201 -0.0118  0.3665
14465TIP3    H264811   0.496   2.434   4.914 -4.0184  0.3003  0.2109
14466TIP3   OH264812   5.957   0.880   2.551  0.1170  0.3527  0.1649
14466TIP3    H164813   5.903   0.826   2.494  0.3013  0.3209  0.0186
14466TIP3    H264814   6.035   0.826   2.568 -0.8541 -0.5353  2.1633
14467TIP3   OH264815   1.417   6.538   1.321 -0.1982 -0.4877  0.1584
14467TIP3    H164816   1.470   6.520   1.243 -0.1131 -0.4719  0.2119
14467TIP3    H264817   1.425   6.459   1.374  1.4586  0.2729  1.1187
14468TIP3   OH264818   0.812   2.737  15.367 -0.6959  0.4377  0.0297
14468TIP3    H164819   0.739   2.720  15.307 -1.1691  1.1339  0.4063
14468TIP3    H264820   0.845   2.650  15.389 -1.1289  0.1370 -0.4847
14469TIP3   OH264821   2.919   1.361  12.434  0.2365  0.1172  0.2727
14469TIP3    H164822   2.952   1.441  12.395 -0.2096  0.5239  0.7174
14469TIP3    H264823   2.860   1.390  12.504  1.2480 -0.5595  1.4709
14470TIP3   OH264824   1.262   1.062  13.940  0.3486  0.2341 -0.1596
14470TIP3    H164825   1.275   1.093  13.850  2.8516 -2.4647 -0.8796
14470TIP3    H264826   1.351   1.046  13.973 -0.5328  0.4901  2.6084
14471TIP3   OH264827   4.162   2.937   4.398 -0.1336  0.0475  0.6264
14471TIP3    H164828   4.084   2.954   4.451 -0.6716 -0.5295  0.0319
14471TIP3    H264829   4.143   2.979   4.314 -0.0953 -0.6598  0.2570
14472TIP3   OH264830   5.225   6.704  14.603 -0.4748 -0.2021 -0.1950
14472TIP3    H164831   5.166   6.775  14.577 -0.7133  0.2400  1.4100
14472TIP3    H264832   5.308   6.724  14.561 -0.7428  0.6389 -0.3420
14473TIP3   OH264833   1.403   4.797  12.070  0.2644 -0.7744 -0.1013
14473TIP3    H164834   1.324   4.846  12.045  0.3986 -1.8070 -2.8325
14473TIP3    H264835   1.370   4.720  12.115 -0.1374 -0.1933  0.6341
14474TIP3   OH264836   6.730   5.796   2.546  0.3150  0.4823 -0.0769
14474TIP3    H164837   6.674   5.721   2.565  0.4193  0.7068  1.1942
14474TIP3    H264838   6.730   5.802   2.451 -0.1230 -0.8016 -0.1807
14475TIP3   OH264839   1.248   5.645   2.368  0.3403 -0.0213  0.2645
14475TIP3    H164840   1.302   5.566   2.370  0.7260  0.2474  1.2082
14475TIP3    H264841   1.310   5.717   2.375  0.0797  0.4497 -1.6605
14476TIP3   OH264842   1.492   3.474  14.690  0.0754  0.2178 -0.2676
14476TIP3    H164843   1.419   3.423  14.724  0.4707 -0.6153 -0.6191
14476TIP3    H264844   1.542   3.500  14.768 -0.5330  0.6975 -0.0367
14477TIP3   OH264845   5.329   4.200   5.027  0.3817  0.1798 -0.1561
14477TIP3    H164846   5.249   4.148   5.017  0.2310  0.6163 -1.3544
14477TIP3    H264847   5.346   4.235   4.940  2.1185 -0.2231 -0.0256
14478TIP3   OH264848   6.240   1.168  11.419  0.4908  0.5113  0.7398
14478TIP3    H164849   6.167   1.179  11.357 -1.4515 -1.2948  2.5274
14478TIP3    H264850   6.319   1.177  11.366 -1.0651 -0.1802 -1.8450
14479TIP3   OH264851   3.017   1.217   3.878 -0.0333  0.1050 -0.0682
14479TIP3    H164852   3.009   1.123   3.864 -0.0712  0.0636  0.2315
14479TIP3    H264853   3.105   1.239   3.847 -0.1622  0.0343 -0.4857
14480TIP3   OH264854   3.472   1.169  16.940  0.1057 -0.1935 -0.2920
14480TIP3    H164855   3.543   1.127  16.891 -0.8604 -0.6249 -1.3812
14480TIP3    H264856   3.393   1.146  16.891 -1.0847 -1.6491  2.1269
14481TIP3   OH264857   3.607   1.016   2.301  0.0039  0.0712  0.5325
14481TIP3    H164858   3.602   1.107   2.331  0.5782 -0.0852  1.1330
14481TIP3    H264859   3.635   0.967   2.378  2.3236 -0.2474 -0.4253
14482TIP3   OH264860   3.989   1.224   4.958  0.1171 -0.6032  0.0615
14482TIP3    H164861   4.024   1.288   4.896  0.6372 -1.8466 -0.9751
14482TIP3    H264862   3.983   1.272   5.041  0.0393  0.9099 -0.7731
14483TIP3   OH264863   5.253   3.048   1.950  0.4904 -0.3928 -0.0410
14483TIP3    H164864   5.238   2.953   1.944 -2.2269 -0.0569  0.2069
14483TIP3    H264865   5.201   3.084   1.878 -0.2818  1.0282  1.1795
14484TIP3   OH264866   6.655   5.935  10.284  0.0573  0.0324 -0.2595
14484TIP3    H164867   6.615   6.016  10.252  0.6749 -0.6875 -3.0748
14484TIP3    H264868   6.726   5.917  10.223 -0.2043 -2.7642  0.1344
14485TIP3   OH264869   3.841   4.730  15.134  0.8349  0.4288 -0.1299
14485TIP3    H164870   3.781   4.738  15.208  0.8502  1.7972 -0.2380
14485TIP3    H264871   3.813   4.650  15.088  1.4215 -0.9918  1.8376
14486TIP3   OH264872   3.415   4.173   6.578  0.2453  0.1020 -0.5826
14486TIP3    H164873   3.355   4.132   6.641  2.2661  1.7390  2.7020
14486TIP3    H264874   3.466   4.100   6.543 -1.0629 -0.8874 -0.5086
14487TIP3   OH264875   5.539   0.661   6.125  0.2012 -0.3632 -0.0550
14487TIP3    H164876   5.628   0.688   6.148  0.1878 -1.8269  2.0123
14487TIP3    H264877   5.495   0.743   6.101  1.6174  0.6418  0.6104
14488TIP3   OH264878   4.048   3.947  12.022  0.2657  0.2531 -0.3974
14488TIP3    H164879   3.994   4.012  12.067  1.7042  2.8668 -2.1860
14488TIP3    H264880   4.105   3.912  12.091 -0.9706  0.3363  0.7212
14489TIP3   OH264881   2.047   4.858  16.996 -0.4777 -0.3219  0.0692
14489TIP3    H164882   2.041   4.853  16.900  0.5572  0.5619 -0.0574
14489TIP3    H264883   2.126   4.808  17.017 -1.8212 -2.3265  0.6918
14490TIP3   OH264884   6.050   2.934  14.185 -0.3517 -0.7306 -0.1802
14490TIP3    H164885   6.042   2.887  14.268 -0.0979  1.8080  1.3808
14490TIP3    H264886   6.142   2.926  14.162  0.4797  1.6309  1.8566
14491TIP3   OH264887   5.858   1.072  16.066  0.7009  0.0106 -0.4387
14491TIP3    H164888   5.786   1.110  16.016  1.1343  0.2030 -0.9272
14491TIP3    H264889   5.929   1.063  16.003  1.3097  0.3840  0.1772
14492TIP3   OH264890   1.644   4.268   1.934 -0.2346 -0.0512  0.7114
14492TIP3    H164891   1.725   4.278   1.985  0.0037 -3.1321  1.1207
14492TIP3    H264892   1.579   4.241   1.998 -0.7582 -0.7732 -0.1054
14493TIP3   OH264893   5.898   6.007  13.304  0.9365 -0.0729 -0.0871
14493TIP3    H164894   5.984   5.995  13.264  2.5243  0.3406  2.8920
14493TIP3    H264895   5.877   6.099  13.289 -0.3034 -0.7259 -3.0098
14494TIP3   OH264896   5.948   2.387  12.729  0.1789  0.6982  0.1652
14494TIP3    H164897   5.993   2.337  12.797 -0.7145 -0.3863 -0.0109
14494TIP3    H264898   5.908   2.460  12.775 -0.8453 -0.3065  0.9182
14495TIP3   OH264899   1.745   5.872   4.453  0.1637  0.0971  0.5982
14495TIP3    H164900   1.778   5.917   4.531 -1.3123  0.6438  0.9309
14495TIP3    H264901   1.790   5.788   4.454  1.6977  0.8662  0.9034
14496TIP3   OH264902   0.382   5.476   4.766  0.1369  0.2714 -0.1022
14496TIP3    H164903   0.471   5.471   4.798 -0.0873 -0.3304  0.4412
14496TIP3    H264904   0.388   5.450   4.674  0.3854 -0.6936  0.1847
14497TIP3   OH264905   4.551   2.727   3.204  1.1545  0.6504 -0.0602
14497TIP3    H164906   4.618   2.791   3.178  0.7129  1.3875  0.6000
14497TIP3    H264907   4.547   2.733   3.299  0.1940  0.5630 -0.0880
14498TIP3   OH264908   5.153   4.701   4.825  0.2505  0.1700 -0.3285
14498TIP3    H164909   5.105   4.725   4.904  1.1263  0.3816  0.1483
14498TIP3    H264910   5.143   4.778   4.768 -1.8339 -0.6343 -1.1608
14499TIP3   OH264911   1.670   2.670   4.235 -0.2633 -0.0737 -0.0508
14499TIP3    H164912   1.710   2.588   4.206 -0.2680 -0.0585 -0.1008
14499TIP3    H264913   1.576   2.653   4.232 -0.2527 -0.6134  1.5102
14500TIP3   OH264914   4.697   4.181   5.738  0.1017  0.3581  0.4870
14500TIP3    H164915   4.660   4.092   5.742  0.0435  0.4075  1.0811
14500TIP3    H264916   4.782   4.173   5.781  0.8081  0.2462 -0.8637
14501TIP3   OH264917   1.765   0.849  16.888 -0.1467 -0.1198  0.2073
14501TIP3    H164918   1.692   0.867  16.828  1.0874  1.3397 -0.9067
14501TIP3    H264919   1.783   0.756  16.876 -0.7482 -0.1249 -0.7319
14502TIP3   OH264920   6.654   6.182   2.434  0.2251  0.1017  0.1040
14502TIP3    H164921   6.639   6.276   2.417 -3.3219 -0.4754 -0.7385
14502TIP3    H264922   6.679   6.147   2.349  3.5386  0.4451  0.7912
14503TIP3   OH264923   5.453   3.820  12.188 -0.7784 -0.7534  0.4383
14503TIP3    H164924   5.511   3.895  12.179 -0.1282 -1.1909  0.8997
14503TIP3    H264925   5.371   3.848  12.147  0.0594 -0.4831 -1.1632
14504TIP3   OH264926   6.689   4.041  14.658 -0.0884  0.1196 -0.1933
14504TIP3    H164927   6.658   4.130  14.670 -0.8452 -0.3068  1.2476
14504TIP3    H264928   6.784   4.050  14.646 -0.1837  1.1199 -0.2857
14505TIP3   OH264929   5.972   4.468   1.448  0.0625 -0.5870 -0.2042
14505TIP3    H164930   5.899   4.466   1.510 -0.7684  1.1024 -1.0444
14505TIP3    H264931   5.944   4.412   1.376 -0.0972 -0.5183 -0.1972
14506TIP3   OH264932   2.831   3.216   3.191 -0.6972 -0.0406 -0.2876
14506TIP3    H164933   2.822   3.215   3.287 -2.3158  0.0048 -0.4191
14506TIP3    H264934   2.885   3.293   3.173 -0.3648 -0.0541  0.5717
14507TIP3   OH264935   1.434   3.146   4.329  0.0018  0.3764 -0.3650
14507TIP3    H164936   1.387   3.103   4.400  0.5500  2.5553  1.4365
14507TIP3    H264937   1.526   3.133   4.350  0.2194 -0.6150 -1.7964
14508TIP3   OH264938   5.523   1.180   4.776 -0.2134  0.4307  0.0156
14508TIP3    H164939   5.581   1.251   4.805  1.0768 -1.4287  2.3470
14508TIP3    H264940   5.494   1.137   4.857 -2.0249 -0.9092 -1.2479
14509TIP3   OH264941   5.104   3.799   0.362 -0.1677  0.2051  0.3993
14509TIP3    H164942   5.105   3.706   0.342  2.2907  0.5865 -1.6148
14509TIP3    H264943   5.019   3.830   0.329  0.1723 -0.8253 -1.5202
14510TIP3   OH264944   2.629   3.548  14.167  0.1016 -0.1388 -0.0734
14510TIP3    H164945   2.605   3.536  14.075 -1.0178 -1.3032  0.3467
14510TIP3    H264946   2.559   3.603  14.203  0.5607  0.3546  0.0937
14511TIP3   OH264947   5.687   3.208   2.209 -0.2449  0.0013 -0.4403
14511TIP3    H164948   5.621   3.276   2.198  0.6313  0.7489 -1.2056
14511TIP3    H264949   5.668   3.144   2.141  0.0889  0.4407 -0.9490
14512TIP3   OH264950   2.222   6.429  14.421  0.0253 -0.3002 -0.3847
14512TIP3    H164951   2.200   6.337  14.408 -1.3600  0.1316 -1.2785
14512TIP3    H264952   2.154   6.462  14.478  0.8539  0.0478  0.4214
14513TIP3   OH264953   0.269   3.734   5.194 -0.5072 -0.2952  0.2783
14513TIP3    H164954   0.288   3.745   5.287 -1.6078  0.3797  0.4322
14513TIP3    H264955   0.355   3.737   5.152 -0.1716  3.5409  0.8572
14514TIP3   OH264956   2.973   0.692  13.696 -0.1076 -0.1433  0.3178
14514TIP3    H164957   2.919   0.743  13.756  0.1877  0.7501 -0.1631
14514TIP3    H264958   2.945   0.601  13.711 -1.9074  0.2970 -0.0683
14515TIP3   OH264959   1.793   1.153   2.052  0.1558  0.0099 -0.0357
14515TIP3    H164960   1.869   1.209   2.065 -1.6799  2.6115  0.5476
14515TIP3    H264961   1.804   1.081   2.115  0.1487  2.6733  3.3257
14516TIP3   OH264962   0.788   0.707   2.510 -0.8328 -0.3463 -0.4418
14516TIP3    H164963   0.742   0.700   2.427  0.0312  3.6588 -1.4554
14516TIP3    H264964   0.881   0.702   2.487 -0.5873 -1.5993  0.6760
14517TIP3   OH264965   2.263   4.851  11.714 -0.4054 -0.2996 -0.1646
14517TIP3    H164966   2.321   4.778  11.692  0.5333 -0.0452  1.3179
14517TIP3    H264967   2.304   4.928  11.675 -1.7356 -0.5996 -2.2862
14518TIP3   OH264968   1.687   6.314   3.899  0.5498  0.9000  0.0591
14518TIP3    H164969   1.619   6.368   3.859  0.9785  1.2113 -0.2657
14518TIP3    H264970   1.708   6.358   3.981  1.4718  1.7109 -0.5783
14519TIP3   OH264971   0.788   4.658  13.836 -0.0395 -0.3043  0.3914
14519TIP3    H164972   0.770   4.680  13.928  0.2462 -0.1014  0.4007
14519TIP3    H264973   0.702   4.643  13.798 -0.1109 -1.5124  0.9660
14520TIP3   OH264974   1.828   1.865   0.123 -0.0328 -0.0559  0.2395
14520TIP3    H164975   1.904   1.922   0.122  0.8803 -1.2449 -0.8981
14520TIP3    H264976   1.778   1.893   0.200  0.6253  1.9072  0.0124
14521TIP3   OH264977   2.553   0.055   5.786  0.5323 -0.2240 -0.2563
14521TIP3    H164978   2.617  -0.011   5.760  1.0677  0.0625  0.3148
14521TIP3    H264979   2.565   0.064   5.880 -1.3379 -1.2054  0.1245
14522TIP3   OH264980   1.959   1.722  11.869 -0.7250  0.0769 -0.0594
14522TIP3    H164981   2.041   1.742  11.823 -0.9777 -1.2040 -1.1480
14522TIP3    H264982   1.975   1.637  11.911 -0.6518  1.0247  1.9261
14523TIP3   OH264983   4.205   5.777  13.561  0.3681 -0.7000 -0.7626
14523TIP3    H164984   4.116   5.797  13.532  1.2177  0.5263 -2.7491
14523TIP3    H264985   4.201   5.687  13.593 -1.5462 -0.7166 -0.9431
14524TIP3   OH264986   0.099   0.075   0.370  0.4068  0.2234 -0.0184
14524TIP3    H164987   0.033   0.016   0.407  0.6305  0.6587  1.1133
14524TIP3    H264988   0.086   0.070   0.275  1.4622 -2.8611 -0.0944
14525TIP3   OH264989   5.832   3.639  15.863  0.1269 -0.3494 -0.3954
14525TIP3    H164990   5.891   3.711  15.887 -2.5400  2.7613 -2.3724
14525TIP3    H264991   5.770   3.634  15.936  0.2400 -0.5789 -0.3141
14526TIP3   OH264992   4.961   5.133  11.372  0.0448  0.5246 -0.4666
14526TIP3    H164993   4.984   5.045  11.403  1.7863  1.1109  0.0426
14526TIP3    H264994   4.960   5.125  11.277  1.5442  0.2005 -0.4925
14527TIP3   OH264995   3.576   2.121  13.442  0.5984 -0.6176 -0.1395
14527TIP3    H164996   3.618   2.125  13.356  2.6545  0.6811  0.8235
14527TIP3    H264997   3.559   2.213  13.464 -1.7289 -1.0358  0.0562
14528TIP3   OH264998   1.451   6.626   0.077  0.5204 -0.3519 -0.2901
14528TIP3    H164999   1.435   6.532   0.088 -1.8064  0.0658  0.5519
14528TIP3    H265000   1.402   6.667   0.149  1.9793  1.4919 -0.2828
14529TIP3   OH265001   0.849   5.189   0.585  0.1046  0.4209 -0.2287
14529TIP3    H165002   0.900   5.110   0.602  0.3287  0.6274  0.0744
14529TIP3    H265003   0.777   5.160   0.529  2.4330  0.7023 -3.6922
14530TIP3   OH265004   0.143   2.629   5.247 -0.1440 -0.4074 -0.1029
14530TIP3    H165005   0.097   2.546   5.259  0.4515 -0.5774  1.1374
14530TIP3    H265006   0.106   2.687   5.314  0.2633 -0.0365 -0.1938
14531TIP3   OH265007   5.284   1.220  12.994 -0.4224 -0.2238  0.2078
14531TIP3    H165008   5.246   1.175  12.919  0.6604 -0.0267 -0.4712
14531TIP3    H265009   5.261   1.165  13.069  0.9217 -1.9903 -0.6016
14532TIP3   OH265010   3.523   0.401   1.709  0.4915 -0.1190  0.2772
14532TIP3    H165011   3.535   0.322   1.762  0.3531 -0.3890 -0.0862
14532TIP3    H265012   3.574   0.384   1.629 -1.6554 -0.9888 -0.9818
14533TIP3   OH265013   4.634   1.042   4.480 -0.9534 -0.0353  0.2884
14533TIP3    H165014   4.638   0.977   4.409 -1.3837  0.1514  0.0898
14533TIP3    H265015   4.565   1.011   4.538 -1.9933  0.8468 -0.4286
14534TIP3   OH265016   5.895   4.842   1.212  0.7273 -0.2615  0.2706
14534TIP3    H165017   5.900   4.786   1.289 -2.4165  0.5206  1.1608
14534TIP3    H265018   5.916   4.930   1.244 -2.3172  0.3831  0.7540
14535TIP3   OH265019   6.061   2.746   3.428 -0.2308  0.0295 -0.2701
14535TIP3    H165020   6.070   2.750   3.332  0.0346  1.1929 -0.2081
14535TIP3    H265021   5.977   2.788   3.445  0.4987  1.3714  0.1185
14536TIP3   OH265022   5.314   3.885  15.476 -0.2913 -0.2050  0.0657
14536TIP3    H165023   5.325   3.850  15.388  2.7615 -1.5500  0.8479
14536TIP3    H265024   5.297   3.978  15.463 -1.5330 -0.6551 -1.9324
14537TIP3   OH265025   3.234   1.887  16.686 -0.0365 -0.0621 -0.2189
14537TIP3    H165026   3.326   1.875  16.713 -0.3412 -2.2296  0.0784
14537TIP3    H265027   3.196   1.942  16.755  0.7185 -0.3111  0.4160
14538TIP3   OH265028   0.220   2.361  15.453  0.5245  0.3861 -0.4009
14538TIP3    H165029   0.281   2.370  15.380  1.0770  0.9633  0.1271
14538TIP3    H265030   0.274   2.365  15.531 -0.0261 -0.5542  0.0493
14539TIP3   OH265031   0.078   6.320  12.458  0.0889 -0.0070  0.1460
14539TIP3    H165032   0.069   6.261  12.384 -0.8014 -1.2986  1.2444
14539TIP3    H265033   0.008   6.295  12.518  0.4856  1.3200  1.2192
14540TIP3   OH265034   0.373   6.236   1.640  0.1910  0.6802  0.6793
14540TIP3    H165035   0.440   6.240   1.708  1.5077 -0.5696 -0.4736
14540TIP3    H265036   0.411   6.181   1.572 -2.8474 -1.9425  0.8796
14541TIP3   OH265037   6.371   0.315   2.534 -0.8308  0.5592 -0.2944
14541TIP3    H165038   6.380   0.226   2.569  3.7892  0.6587 -0.6747
14541TIP3    H265039   6.384   0.372   2.610  2.4599  0.7728 -0.9004
14542TIP3   OH265040   5.041   6.693  16.653 -0.4246 -0.3558  0.3475
14542TIP3    H165041   5.052   6.602  16.680  0.8426 -0.1908  0.4835
14542TIP3    H265042   4.949   6.701  16.631 -0.4761 -1.7840 -0.0716
14543TIP3   OH265043   3.891   2.975  14.800 -0.2331  0.1451 -0.0766
14543TIP3    H165044   3.836   2.935  14.867 -0.6706  1.0263  0.1025
14543TIP3    H265045   3.907   3.064  14.831  0.7374  0.1221 -0.4570
14544TIP3   OH265046   6.730   5.206  14.858 -0.1936  0.1396  0.5157
14544TIP3    H165047   6.696   5.118  14.874 -0.1729  0.2331  1.0672
14544TIP3    H265048   6.707   5.256  14.936 -1.0993  0.8949 -0.2133
14545TIP3   OH265049   2.440   4.200  14.836  0.0677  0.3340  0.4300
14545TIP3    H165050   2.383   4.184  14.761  0.6305  0.0291  0.0534
14545TIP3    H265051   2.383   4.194  14.912 -0.6030  1.1291 -0.0043
14546TIP3   OH265052   0.337   0.507   0.303 -0.6882 -0.6306 -0.8321
14546TIP3    H165053   0.378   0.499   0.389  0.3646  1.2601 -1.1078
14546TIP3    H265054   0.346   0.599   0.280 -0.7629 -1.1202 -3.0650
14547TIP3   OH265055   2.927   2.320   3.963 -0.9825  0.2304  0.0856
14547TIP3    H165056   2.885   2.301   4.046  0.3694 -1.0894  0.4943
14547TIP3    H265057   2.981   2.397   3.980 -0.6538 -0.0806  0.4566
14548TIP3   OH265058   3.585   5.467   3.036 -0.0510 -0.2130 -0.0100
14548TIP3    H165059   3.504   5.449   2.987 -0.6933  2.2002  0.0444
14548TIP3    H265060   3.598   5.561   3.027  1.2544 -0.0957  2.2927
14549TIP3   OH265061   2.948   0.450   5.621  0.1740  0.5365 -0.5807
14549TIP3    H165062   2.973   0.360   5.597  0.4301  0.4771 -0.0987
14549TIP3    H265063   2.906   0.441   5.707 -0.2916  0.8129 -0.7707
14550TIP3   OH265064   0.879   0.394  11.451  0.2634 -0.3892  0.3704
14550TIP3    H165065   0.879   0.431  11.363  0.2605 -1.1587  0.0323
14550TIP3    H265066   0.787   0.377  11.470  0.2976 -0.6385  0.3290
14551TIP3   OH265067   1.448   4.561   4.698 -0.4757 -0.3081 -0.0153
14551TIP3    H165068   1.441   4.497   4.769 -0.4378 -0.8666 -0.5118
14551TIP3    H265069   1.402   4.522   4.625  0.8743 -0.4663 -0.8058
14552TIP3   OH265070   2.239   6.032   4.891  0.4499  0.1617  0.0567
14552TIP3    H165071   2.280   5.979   4.823  0.2223  2.3613 -1.8971
14552TIP3    H265072   2.310   6.089   4.923  0.6270 -1.0249  1.9312
14553TIP3   OH265073   6.001   5.640  16.951 -0.0960 -0.0054  0.2074
14553TIP3    H165074   5.944   5.611  17.023 -1.8690  3.3137  0.3441
14553TIP3    H265075   6.055   5.709  16.989 -0.8122  1.5712 -1.4828
14554TIP3   OH265076   2.929   6.327   3.764 -0.4199  0.3966 -0.2163
14554TIP3    H165077   3.007   6.371   3.730  0.0583 -1.2487 -1.3740
14554TIP3    H265078   2.964   6.263   3.826 -0.8920 -0.0357 -0.3983
14555TIP3   OH265079   2.332   2.975   1.452  0.0628  0.2022  0.1532
14555TIP3    H165080   2.357   2.893   1.494 -0.8820 -0.3437 -0.3177
14555TIP3    H265081   2.360   3.043   1.513  0.9902 -0.4619  0.4813
14556TIP3   OH265082   5.232   1.668   3.139  0.2199 -0.1141 -0.7042
14556TIP3    H165083   5.193   1.581   3.149 -0.0043  0.2477  2.3766
14556TIP3    H265084   5.158   1.728   3.131  0.3125  0.0243 -0.5295
14557TIP3   OH265085   1.529   3.635  16.952  0.0251  0.3854 -0.3723
14557TIP3    H165086   1.577   3.691  17.013  0.6538  1.1552 -1.5164
14557TIP3    H265087   1.595   3.610  16.887 -0.2272 -1.7714  0.1353
14558TIP3   OH265088   2.020   3.688  14.859 -0.1741 -0.3150 -0.2358
14558TIP3    H165089   2.055   3.650  14.779  0.9673  0.9435 -0.3829
14558TIP3    H265090   1.977   3.616  14.904 -1.3632 -0.9399 -2.2404
14559TIP3   OH265091   4.427   3.488  11.063  0.1048 -0.0523  0.6163
14559TIP3    H165092   4.495   3.536  11.110 -0.4943  0.7027  0.7345
14559TIP3    H265093   4.367   3.555  11.033 -1.0366 -0.7568  1.2233
14560TIP3   OH265094   1.471   0.133   5.004 -0.0060  0.1867  0.9947
14560TIP3    H165095   1.514   0.103   4.924 -0.3500  0.7233  0.5975
14560TIP3    H265096   1.406   0.065   5.024 -0.7426  0.6105  0.1379
14561TIP3   OH265097   0.694   1.742   1.929 -0.6285 -0.2066 -0.1411
14561TIP3    H165098   0.669   1.717   1.840 -1.5860 -1.5582  0.4747
14561TIP3    H265099   0.681   1.837   1.932 -1.0377 -0.2115 -1.3035
14562TIP3   OH265100   3.426   4.935  13.178  0.9588  0.4731  0.0823
14562TIP3    H165101   3.405   4.878  13.252  1.7014  1.5950  1.1933
14562TIP3    H265102   3.503   4.895  13.138  0.4828 -0.2037 -0.1804
14563TIP3   OH265103   4.317   3.239  14.629  0.0443  0.2933 -0.0696
14563TIP3    H165104   4.305   3.334  14.623  0.7116  0.3913  0.0192
14563TIP3    H265105   4.383   3.219  14.563  2.7951  0.4749  2.4049
14564TIP3   OH265106   2.359   0.185  16.979  0.1827 -0.4291 -0.1972
14564TIP3    H165107   2.449   0.159  16.999 -0.4045 -0.9107  2.1492
14564TIP3    H265108   2.347   0.163  16.886  1.9829 -1.8405 -0.1463
14565TIP3   OH265109   6.184   5.027   4.856 -0.5249 -0.5901  0.5318
14565TIP3    H165110   6.093   5.003   4.837 -0.3274 -0.5182 -0.5648
14565TIP3    H265111   6.219   5.057   4.772 -0.2469  1.9120  1.4628
14566TIP3   OH265112   0.656   0.065  15.259 -0.0275  0.0314 -0.2442
14566TIP3    H165113   0.648   0.013  15.179  0.6662 -2.0361  0.9703
14566TIP3    H265114   0.583   0.126  15.256 -1.0478 -1.2109 -1.5977
14567TIP3   OH265115   6.367   3.010  11.927  0.3828  0.3681  0.6620
14567TIP3    H165116   6.367   3.025  11.832 -1.8037  0.2307  0.5814
14567TIP3    H265117   6.460   3.005  11.950  0.9866  0.0677 -1.5150
14568TIP3   OH265118   2.549   2.009   0.649  0.5378  0.0971  0.0376
14568TIP3    H165119   2.560   2.041   0.738 -1.1175 -0.7223  0.5666
14568TIP3    H265120   2.552   2.088   0.594  1.3099  0.6304  0.8300
14569TIP3   OH265121   2.504   6.711   3.713  0.4378 -0.0156 -0.2722
14569TIP3    H165122   2.465   6.737   3.797 -0.1912  0.9210 -0.8334
14569TIP3    H265123   2.598   6.704   3.731  0.4856  1.5590  0.1881
14570TIP3   OH265124   4.580   0.777   0.131  0.5110  0.1685  0.1577
14570TIP3    H165125   4.644   0.754   0.064  1.6365  0.0227  1.2509
14570TIP3    H265126   4.518   0.704   0.131  0.7241 -0.0183 -0.4359
14571TIP3   OH265127   4.387   1.686  11.738 -0.2795 -0.2626 -0.0999
14571TIP3    H165128   4.407   1.779  11.731  1.4951 -0.5312  0.7924
14571TIP3    H265129   4.301   1.683  11.780 -0.2661  0.9802  0.0467
14572TIP3   OH265130   0.097   2.352  14.744  0.2687 -0.1762  0.4023
14572TIP3    H165131   0.157   2.295  14.793  0.8641  1.9852  2.3522
14572TIP3    H265132   0.148   2.381  14.669  1.1789  0.4094  1.2149
14573TIP3   OH265133   5.021   4.330  11.986 -0.1234 -0.9647 -0.2248
14573TIP3    H165134   5.007   4.267  11.915 -0.5717 -0.4392 -0.6082
14573TIP3    H265135   5.085   4.392  11.950  0.7641 -1.5116  0.3569
14574TIP3   OH265136   5.227   6.406  11.007  0.2502 -0.1609 -0.2640
14574TIP3    H165137   5.295   6.359  10.958  0.0433 -0.1511 -0.5627
14574TIP3    H265138   5.169   6.441  10.940  0.1660  0.1631 -0.0235
14575TIP3   OH265139   6.278   1.174  14.915  0.3161  0.0620  0.4180
14575TIP3    H165140   6.364   1.141  14.888 -0.3089 -0.5148 -0.9447
14575TIP3    H265141   6.224   1.096  14.922 -0.8854  0.6332 -1.7064
14576TIP3   OH265142   2.565   1.862  16.283  0.0936  0.0626  0.9493
14576TIP3    H165143   2.582   1.802  16.211  1.3494  2.5576 -0.9591
14576TIP3    H265144   2.472   1.850  16.302 -1.6178  2.2841 -4.1838
14577TIP3   OH265145   3.317   4.783  14.854 -0.1877  0.1649 -0.1899
14577TIP3    H165146   3.236   4.791  14.805 -0.3108  2.4552  0.3040
14577TIP3    H265147   3.340   4.690  14.847 -2.4404 -0.3951 -0.9497
14578TIP3   OH265148   3.259   2.270  13.667  0.8232  0.0896 -0.0542
14578TIP3    H165149   3.239   2.294  13.576  0.3345  0.2502  0.0963
14578TIP3    H265150   3.255   2.174  13.667 -1.0621  0.1221  0.2062
14579TIP3   OH265151   3.645   4.044   4.157 -1.1142 -0.0078  0.2817
14579TIP3    H165152   3.710   4.111   4.135  1.1677 -2.0708  0.2078
14579TIP3    H265153   3.640   4.045   4.252 -1.9196  0.9819  0.2331
14580TIP3   OH265154   6.541   5.337  13.795 -0.4235  0.0589 -0.4552
14580TIP3    H165155   6.592   5.302  13.723  0.2207  0.5742 -0.2643
14580TIP3    H265156   6.598   5.403  13.835 -1.0993  0.3912 -0.0105
14581TIP3   OH265157   2.683   5.827  14.095 -0.2114 -0.2340 -0.0935
14581TIP3    H165158   2.749   5.831  14.164  0.6198  2.7715 -0.8979
14581TIP3    H265159   2.725   5.777  14.024 -0.1189 -1.1793  0.6063
14582TIP3   OH265160   1.457   4.403  15.535  0.0307  0.2261  0.0802
14582TIP3    H165161   1.463   4.323  15.586 -1.8834 -0.5178 -0.7861
14582TIP3    H265162   1.430   4.374  15.448 -4.2808  1.9652  0.6124
14583TIP3   OH265163   2.397   2.722  16.497 -0.3534 -0.8867  0.1801
14583TIP3    H165164   2.490   2.732  16.515 -0.3719 -0.6885  0.1607
14583TIP3    H265165   2.356   2.798  16.538 -0.5519 -1.1883  0.5516
14584TIP3   OH265166   1.332   0.296  12.343 -0.2865 -0.0853  0.0275
14584TIP3    H165167   1.310   0.254  12.426 -0.6664 -0.3416 -0.1997
14584TIP3    H265168   1.280   0.376  12.342  0.1647  0.2172  0.2987
14585TIP3   OH265169   4.369   4.712  12.226 -0.2006  0.0406 -1.1264
14585TIP3    H165170   4.280   4.678  12.226  0.1307 -0.9103  0.1685
14585TIP3    H265171   4.421   4.647  12.179  0.0675 -0.2044 -0.5082
14586TIP3   OH265172   5.185   4.400   4.794  0.4337  0.1971  0.1596
14586TIP3    H165173   5.275   4.380   4.770 -0.6015  0.4309 -5.0317
14586TIP3    H265174   5.185   4.494   4.812  1.4725 -0.1817  2.5333
14587TIP3   OH265175   6.141   1.340   5.543 -0.1863  0.0783 -0.0984
14587TIP3    H165176   6.208   1.322   5.477 -0.0787  0.4440 -0.0875
14587TIP3    H265177   6.143   1.435   5.554  0.5368 -0.0629  1.1964
14588TIP3   OH265178   3.635   4.339  14.229 -0.2982 -0.0347 -0.2873
14588TIP3    H165179   3.549   4.296  14.225 -0.0301 -0.4619 -2.2286
14588TIP3    H265180   3.614   4.433  14.232 -0.8272 -0.1670  0.8349
14589TIP3   OH265181   4.045   5.169   2.952 -0.0535  0.4825  0.2427
14589TIP3    H165182   4.052   5.080   2.986  0.5671  0.5974  0.4177
14589TIP3    H265183   3.967   5.205   2.994 -0.6887 -0.1876 -0.3225
14590TIP3   OH265184   1.445   5.932  15.114  0.0136 -0.5148  0.3996
14590TIP3    H165185   1.443   5.993  15.189 -2.3286  0.5993 -0.4543
14590TIP3    H265186   1.420   5.848  15.152  1.8978 -0.6983  1.3560
14591TIP3   OH265187   0.519   3.759   6.194  0.4612 -0.0291  0.5276
14591TIP3    H165188   0.530   3.664   6.201  0.8464 -0.0221  0.0618
14591TIP3    H265189   0.558   3.782   6.110  0.5301  0.5680  0.7155
14592TIP3   OH265190   1.052   0.042  14.995  0.2806  0.9725 -0.0672
14592TIP3    H165191   1.103  -0.039  14.987  0.6383  1.3123 -1.5500
14592TIP3    H265192   1.108   0.100  15.046 -0.2985  0.0646  1.6767
14593TIP3   OH265193   2.383   3.160  16.162 -0.1717  0.2643  0.0894
14593TIP3    H165194   2.465   3.113  16.144  0.1551  0.9035 -0.1042
14593TIP3    H265195   2.331   3.148  16.082 -0.3975 -0.3927  0.3248
14594TIP3   OH265196   5.317   0.519   4.395 -0.0906 -0.4941 -0.1601
14594TIP3    H165197   5.394   0.519   4.452  0.0923  0.1812 -0.4023
14594TIP3    H265198   5.353   0.522   4.306 -0.3610 -2.0189 -0.3545
14595TIP3   OH265199   5.068   0.260   2.940  0.3250  0.1049 -0.0170
14595TIP3    H165200   5.035   0.336   2.891  1.5091  2.6218  2.7520
14595TIP3    H265201   5.163   0.276   2.946  0.2351  0.0535  3.0568
14596TIP3   OH265202   5.133   0.922  14.944 -0.2760  0.0139  0.5715
14596TIP3    H165203   5.164   0.935  14.854  1.1595  0.9078  1.1668
14596TIP3    H265204   5.049   0.877  14.933  1.1251 -2.4650 -1.1066
14597TIP3   OH265205   0.704   0.508  12.191 -0.0561  0.0487 -0.1507
14597TIP3    H165206   0.707   0.528  12.098 -0.9513 -1.5623 -0.5761
14597TIP3    H265207   0.768   0.438  12.203  0.3254  0.5012  0.5243
14598TIP3   OH265208   5.807   5.339   1.526  0.1404  0.0220 -0.1329
14598TIP3    H165209   5.827   5.431   1.539 -0.1808 -0.1709  2.3590
14598TIP3    H265210   5.814   5.301   1.614 -0.4325 -2.1881 -0.9744
14599TIP3   OH265211   2.813   4.656   6.581  0.1080 -0.1812 -0.1520
14599TIP3    H165212   2.791   4.697   6.497  0.8805  0.6400  0.0366
14599TIP3    H265213   2.732   4.612   6.607 -0.7504  1.1595 -0.4061
14600TIP3   OH265214   1.289   2.841  15.703 -0.0366 -0.3449 -0.5937
14600TIP3    H165215   1.283   2.795  15.619 -0.2714 -0.3318 -0.5849
14600TIP3    H265216   1.201   2.836  15.739 -0.3860  1.1677 -1.1494
14601TIP3   OH265217   3.647   1.302  13.660  0.4337 -0.2620  0.4755
14601TIP3    H165218   3.693   1.386  13.653 -1.4797  0.7615 -0.4771
14601TIP3    H265219   3.607   1.289  13.574  0.6592 -2.1715  0.6048
14602TIP3   OH265220   3.379   6.705   4.708 -0.4347  0.4643 -0.2314
14602TIP3    H165221   3.358   6.794   4.682 -1.3535  0.0343 -1.0142
14602TIP3    H265222   3.444   6.715   4.778  0.2258  1.7104 -1.0012
14603TIP3   OH265223   2.547   6.672   5.271  0.6641  0.0215  0.5215
14603TIP3    H165224   2.466   6.714   5.244  1.0269  1.3589  1.3882
14603TIP3    H265225   2.523   6.623   5.350  0.2501 -1.4547 -0.4676
14604TIP3   OH265226   4.911   5.828  13.311 -0.2466 -0.5526  0.4719
14604TIP3    H165227   4.874   5.770  13.378 -2.7929  0.3606 -0.0370
14604TIP3    H265228   4.905   5.779  13.230 -4.0779  0.8644 -0.2851
14605TIP3   OH265229   6.748   2.195   5.965 -0.9017  0.2502  0.3123
14605TIP3    H165230   6.743   2.277   6.014 -1.6002  0.2158  0.3090
14605TIP3    H265231   6.772   2.129   6.030  2.8335  0.8833 -0.1743
14606TIP3   OH265232   3.850   3.158  12.584  0.0193  0.1730 -0.0563
14606TIP3    H165233   3.813   3.232  12.536  1.1278  0.5286 -0.4130
14606TIP3    H265234   3.934   3.191  12.617 -0.0148 -0.5585  0.8046
14607TIP3   OH265235   5.763   3.792  16.254  0.2899  0.0894 -0.8033
14607TIP3    H165236   5.814   3.714  16.230 -1.7278 -1.4116 -0.4386
14607TIP3    H265237   5.702   3.805  16.181 -0.4481  0.3860 -0.1488
14608TIP3   OH265238   2.947   0.111  16.489 -0.3956 -0.0078 -0.4107
14608TIP3    H165239   2.873   0.171  16.484 -0.0602  0.3469 -1.2847
14608TIP3    H265240   3.023   0.168  16.495 -0.2860 -0.3439  3.1995
14609TIP3   OH265241   4.218   5.425  12.050  0.4059 -0.4432 -0.9089
14609TIP3    H165242   4.217   5.394  12.140 -1.0353 -0.6177 -0.9595
14609TIP3    H265243   4.206   5.519  12.056  0.7249 -0.4004 -0.9124
14610TIP3   OH265244   4.478   0.085  12.731 -0.2104 -0.1275  0.0275
14610TIP3    H165245   4.456   0.141  12.806  1.8798  0.9621 -0.0966
14610TIP3    H265246   4.558   0.039  12.758 -0.8665 -1.7010 -0.5899
14611TIP3   OH265247   3.967   0.877  14.827 -0.0440 -0.2391 -0.8696
14611TIP3    H165248   4.038   0.865  14.765 -0.6205 -1.8581 -1.2919
14611TIP3    H265249   3.978   0.805  14.890 -0.6871  0.1119 -0.3434
14612TIP3   OH265250   1.512   3.980  14.580  0.7497 -0.0470  0.0994
14612TIP3    H165251   1.581   3.994  14.515  0.0592  1.3915 -0.3549
14612TIP3    H265252   1.484   3.890  14.566  1.2875 -0.0635 -0.9336
14613TIP3   OH265253   6.025   4.479  12.370 -0.5078 -0.0378  0.8618
14613TIP3    H165254   6.043   4.430  12.290  3.5883  1.3443  0.7051
14613TIP3    H265255   5.966   4.422  12.420 -0.2316 -2.6213 -1.4919
14614TIP3   OH265256   6.071   1.855   4.755 -0.5713 -0.0544 -0.0913
14614TIP3    H165257   6.138   1.864   4.823 -1.0965  0.6222  0.3505
14614TIP3    H265258   6.121   1.857   4.673 -0.0442  0.4504  0.2323
14615TIP3   OH265259   2.695   5.164  12.607 -0.4657 -0.2303 -0.3399
14615TIP3    H165260   2.714   5.220  12.683 -1.1359  0.4670 -0.6715
14615TIP3    H265261   2.653   5.223  12.544 -2.1576 -1.3205 -0.2984
14616TIP3   OH265262   0.159   6.191   2.242 -0.0144 -0.0632  0.2357
14616TIP3    H165263   0.225   6.124   2.224  0.4718  0.3235  0.5615
14616TIP3    H265264   0.075   6.146   2.228  0.3138 -0.2826 -1.1872
14617TIP3   OH265265   1.736   5.613   0.281  0.0098  0.5874 -0.2911
14617TIP3    H165266   1.672   5.614   0.352  0.2853  1.3213 -0.0400
14617TIP3    H265267   1.742   5.705   0.253 -0.4318  0.2563 -1.5709
14618TIP3   OH265268   1.848   3.636  13.885 -0.1670  0.0392  0.2488
14618TIP3    H165269   1.832   3.549  13.849  0.7430 -0.6297  1.3944
14618TIP3    H265270   1.940   3.654  13.863  0.3446 -0.2932  1.9858
14619TIP3   OH265271   6.092   0.446   3.877  0.0297 -0.4693 -0.2683
14619TIP3    H165272   6.002   0.418   3.861  0.0079 -1.1604  0.9830
14619TIP3    H265273   6.131   0.451   3.790 -1.1734 -0.3048 -0.8146
14620TIP3   OH265274   0.527   6.619   4.092  0.2398  0.1527 -0.0026
14620TIP3    H165275   0.559   6.698   4.135  0.7792 -0.5960  1.0565
14620TIP3    H265276   0.603   6.584   4.046  0.3453 -0.3939  0.5707
14621TIP3   OH265277   3.136   2.582   2.890  0.2054 -0.6508  0.3110
14621TIP3    H165278   3.110   2.490   2.885  2.7007 -1.4238  0.2933
14621TIP3    H265279   3.196   2.586   2.965  0.2533  0.9245  0.2219
14622TIP3   OH265280   2.155   2.523   2.472 -0.7033  0.2814 -0.2041
14622TIP3    H165281   2.113   2.445   2.433  1.8843 -1.9916  1.1972
14622TIP3    H265282   2.169   2.582   2.398  0.2508 -2.0839 -2.0491
14623TIP3   OH265283   2.279   3.224   4.996  0.4565 -0.0421  0.3635
14623TIP3    H165284   2.257   3.147   5.050  0.8445 -1.5634 -1.5353
14623TIP3    H265285   2.372   3.237   5.009  0.5743 -0.4847 -0.0072
14624TIP3   OH265286   4.856   1.683   5.732  0.0619  0.1091 -0.9070
14624TIP3    H165287   4.916   1.741   5.685 -0.4298 -0.1482 -1.8688
14624TIP3    H265288   4.852   1.603   5.678  0.5330 -0.7327  0.2616
14625TIP3   OH265289   6.687   5.703   0.595  0.6014  0.2830  0.6329
14625TIP3    H165290   6.690   5.719   0.501  0.6458 -2.1187  0.1822
14625TIP3    H265291   6.721   5.784   0.633 -1.6425  2.2546 -1.2525
14626TIP3   OH265292   4.242   2.129  11.234  0.1522 -0.1888  0.2952
14626TIP3    H165293   4.276   2.131  11.144  0.0945 -1.2017  0.2346
14626TIP3    H265294   4.321   2.128  11.288  0.2828 -2.5590  0.1538
14627TIP3   OH265295   6.217   6.045   2.875 -0.1439 -0.1619  0.5990
14627TIP3    H165296   6.295   6.026   2.823 -0.3291 -1.4224  0.7625
14627TIP3    H265297   6.250   6.098   2.948  0.1989  1.1521 -0.4783
14628TIP3   OH265298   5.032   5.139   5.253  0.4426  0.5543  0.0479
14628TIP3    H165299   4.955   5.178   5.210  0.2994  0.9291  0.6305
14628TIP3    H265300   5.044   5.191   5.332  0.3292 -0.5062  0.7889
14629TIP3   OH265301   2.746   4.243  11.391 -0.0380 -0.3509  0.3358
14629TIP3    H165302   2.689   4.289  11.330  1.2254 -1.3764 -1.7637
14629TIP3    H265303   2.698   4.164  11.415 -0.2925 -0.2542  0.1418
14630TIP3   OH265304   3.940   2.914   4.601  0.6179  0.1017 -0.0566
14630TIP3    H165305   3.867   2.922   4.662  0.2221 -3.3784  0.1246
14630TIP3    H265306   4.010   2.874   4.652  1.5009  0.3051 -1.0706
14631TIP3   OH265307   0.791   1.465  15.386  0.3035 -0.1460 -0.4664
14631TIP3    H165308   0.840   1.396  15.339 -1.6936 -0.8128 -1.6954
14631TIP3    H265309   0.763   1.423  15.467  1.5932  0.1972  0.1832
14632TIP3   OH265310   1.124   1.629  14.901  0.0257  0.0262 -0.6260
14632TIP3    H165311   1.161   1.696  14.844  1.5154  0.7253  1.0966
14632TIP3    H265312   1.171   1.638  14.984 -0.1141 -2.7690 -0.1272
14633TIP3   OH265313   2.524   3.024  12.977 -0.3517 -0.3880  0.1132
14633TIP3    H165314   2.508   2.976  13.058 -1.0911  0.0720  0.2414
14633TIP3    H265315   2.470   2.979  12.912 -1.2723  0.4452  0.2955
14634TIP3   OH265316   4.698   6.340  16.013 -0.2589  0.0990 -0.6078
14634TIP3    H165317   4.615   6.385  16.027  1.3908  3.2647 -0.0791
14634TIP3    H265318   4.726   6.366  15.925  0.0898 -1.1221 -0.8805
14635TIP3   OH265319   0.715   2.270   1.314 -0.5581  0.3974 -0.6099
14635TIP3    H165320   0.696   2.177   1.319 -0.3056  0.3653 -0.2362
14635TIP3    H265321   0.655   2.311   1.377 -0.2183  0.4191 -0.2992
14636TIP3   OH265322   2.666   5.684   4.859 -0.7084  0.3518  0.4731
14636TIP3    H165323   2.716   5.650   4.934  1.2040  0.8082 -0.5251
14636TIP3    H265324   2.720   5.662   4.783 -3.2986 -1.4688 -0.9930
14637TIP3   OH265325   4.296   2.165  11.908  0.0633 -0.1246 -0.1250
14637TIP3    H165326   4.243   2.086  11.915  1.0686 -1.1162 -2.5882
14637TIP3    H265327   4.258   2.214  11.836  2.1956 -0.7087 -1.7583
14638TIP3   OH265328   3.007   6.296  14.683  0.0459 -0.2316 -0.3159
14638TIP3    H165329   3.085   6.247  14.709  0.1458 -0.5477 -1.1723
14638TIP3    H265330   2.997   6.364  14.750  1.3803  0.1712 -0.5150
14639TIP3   OH265331   0.735   2.251   3.591  0.1268  0.3726  0.0704
14639TIP3    H165332   0.650   2.214   3.566  0.2837 -1.0906  1.5182
14639TIP3    H265333   0.798   2.184   3.567  0.7378  0.9084  0.1663
14640TIP3   OH265334   0.903   6.589  13.302 -0.3758 -0.2590  0.1603
14640TIP3    H165335   0.962   6.621  13.234 -1.4068 -0.5022 -0.8857
14640TIP3    H265336   0.953   6.519  13.346  1.5512  2.0434  1.8774
14641TIP3   OH265337   2.112   6.102  11.696  0.0467  0.5680 -0.0029
14641TIP3    H165338   2.102   6.180  11.751 -1.0918  1.0350 -0.8409
14641TIP3    H265339   2.175   6.128  11.629  0.7111  0.3041  0.5028
14642TIP3   OH265340   0.107   4.386   0.932 -0.0946  0.0757  0.2460
14642TIP3    H165341   0.034   4.409   0.989  0.8807  0.9850  1.1625
14642TIP3    H265342   0.182   4.434   0.967  0.5306  0.7868 -1.8583
14643TIP3   OH265343   0.564   4.975  14.250 -0.2200 -0.6864  0.4482
14643TIP3    H165344   0.625   5.023  14.306  1.0304 -0.5978 -0.9174
14643TIP3    H265345   0.618   4.909  14.206 -0.7502  0.3094 -1.8945
14644TIP3   OH265346   5.595   0.079   2.185 -0.3170  0.8556 -0.1671
14644TIP3    H165347   5.684   0.044   2.185 -0.8893 -0.7230 -1.2546
14644TIP3    H265348   5.580   0.107   2.095 -1.0211  0.8084 -0.0722
14645TIP3   OH265349   2.515   0.897   4.066 -0.3167  0.4515 -0.4898
14645TIP3    H165350   2.476   0.837   4.130  1.3202  1.8335  1.9310
14645TIP3    H265351   2.490   0.860   3.981 -2.4192 -1.5836  0.8921
14646TIP3   OH265352   0.708   1.837  13.348  0.4799  0.2755  0.5241
14646TIP3    H165353   0.758   1.758  13.328  0.3925  0.7805 -2.1080
14646TIP3    H265354   0.625   1.805  13.385  1.5842 -0.6751  2.3144
14647TIP3   OH265355   1.765   0.004  15.264  0.3256  0.2654  0.0936
14647TIP3    H165356   1.691   0.031  15.210  1.5704  1.7851 -0.9223
14647TIP3    H265357   1.777   0.075  15.326 -0.1532 -0.7971  1.4673
14648TIP3   OH265358   2.496   6.020  13.530  0.7144  0.1648  0.1683
14648TIP3    H165359   2.452   6.046  13.610 -0.4305  1.1775 -0.7490
14648TIP3    H265360   2.532   6.101  13.495  0.2822 -0.0729 -0.8723
14649TIP3   OH265361   0.777   3.993   0.152 -0.4991  0.0167 -0.2819
14649TIP3    H165362   0.845   3.946   0.105 -0.6197 -0.6376  0.1830
14649TIP3    H265363   0.699   3.982   0.099  0.0102  1.8975 -1.5186
14650TIP3   OH265364   6.040   0.975   1.160  0.2176  0.5483  0.1939
14650TIP3    H165365   6.044   0.883   1.188  0.9003  0.1332 -1.1571
14650TIP3    H265366   6.113   1.017   1.206  0.2550  0.2816  0.3820
14651TIP3   OH265367   6.193   1.650   2.930  0.0737  0.3541  0.2860
14651TIP3    H165368   6.271   1.623   2.882  1.7593  1.2444  2.3364
14651TIP3    H265369   6.199   1.604   3.013 -1.9672 -0.0490  0.2566
14652TIP3   OH265370   3.144   2.551   0.773 -0.8582 -0.4084  0.2326
14652TIP3    H165371   3.068   2.568   0.829 -0.2916 -0.3971  1.0175
14652TIP3    H265372   3.161   2.634   0.730 -1.2769 -0.4062  0.0645
14653TIP3   OH265373   3.919   1.122  14.927  0.0803 -0.5087  0.1922
14653TIP3    H165374   3.938   1.049  14.868  2.9040 -0.3126  0.7188
14653TIP3    H265375   3.827   1.110  14.951 -0.6194 -1.7223 -2.6262
14654TIP3   OH265376   0.948   6.226   5.622  0.3463 -0.2126 -0.1776
14654TIP3    H165377   0.869   6.203   5.573  0.2668 -0.0317 -0.1352
14654TIP3    H265378   0.932   6.193   5.710  0.2852 -0.1087 -0.1494
14655TIP3   OH265379   4.725   5.763  13.713 -0.6738 -0.0793 -0.1308
14655TIP3    H165380   4.635   5.747  13.739 -0.6120  0.3421  0.3618
14655TIP3    H265381   4.746   5.849  13.750 -0.2594  0.0884 -0.7376
14656TIP3   OH265382   1.044   4.837   6.278  0.1524  0.8574 -0.0510
14656TIP3    H165383   0.951   4.857   6.267  0.4496  1.3418 -1.9152
14656TIP3    H265384   1.048   4.741   6.278 -0.4538  0.8048  1.3389
14657TIP3   OH265385   0.030   4.233   3.312  0.6142  0.4878  0.1077
14657TIP3    H165386  -0.065   4.223   3.303  0.6168  0.6363 -0.0900
14657TIP3    H265387   0.057   4.158   3.365  0.7998 -1.2003 -2.2379
14658TIP3   OH265388   5.541   5.579   5.906 -0.0861  0.1593  0.0284
14658TIP3    H165389   5.543   5.619   5.993  1.5131  1.1144 -0.4062
14658TIP3    H265390   5.477   5.509   5.913 -0.7468  0.8889  1.6789
14659TIP3   OH265391   5.290   2.700   3.051  0.1668  0.2542 -0.5978
14659TIP3    H165392   5.209   2.660   3.083  1.3423 -1.8371 -0.0238
14659TIP3    H265393   5.280   2.700   2.955 -0.1943 -0.7687 -0.5777
14660TIP3   OH265394   3.101   4.189  13.608 -0.2490 -0.4193 -0.2835
14660TIP3    H165395   3.161   4.228  13.672 -1.1739 -2.1024  1.7098
14660TIP3    H265396   3.015   4.192  13.650 -1.2076 -0.1492 -2.1310
14661TIP3   OH265397   2.039   3.916   5.412  0.1564  0.6124 -0.4642
14661TIP3    H165398   2.010   3.990   5.466 -1.2376  0.0059 -0.3313
14661TIP3    H265399   2.134   3.928   5.405 -0.1516  3.1739 -1.5984
14662TIP3   OH265400   0.015   2.423   5.598 -0.4106  0.1601 -0.3907
14662TIP3    H165401  -0.032   2.476   5.662 -0.2094  1.2517 -1.1181
14662TIP3    H265402   0.040   2.344   5.646 -2.1243 -0.0135  0.2725
14663TIP3   OH265403   0.768   5.090  14.384 -0.3625  0.5785 -0.2622
14663TIP3    H165404   0.839   5.125  14.438 -0.3946  2.6296 -1.4296
14663TIP3    H265405   0.799   5.101  14.294 -2.5753  2.7502 -0.8862
14664TIP3   OH265406   0.432   0.267  11.097  0.2018 -0.0018 -0.0614
14664TIP3    H165407   0.491   0.201  11.134  0.0588  1.0761  2.2849
14664TIP3    H265408   0.475   0.351  11.118 -1.5701  0.7677  0.7188
14665TIP3   OH265409   0.381   3.999   2.916 -0.2587  0.5949  0.5344
14665TIP3    H165410   0.391   3.907   2.943  0.1387  0.8976  1.4815
14665TIP3    H265411   0.291   4.021   2.940  0.3162  1.0826  2.4170
14666TIP3   OH265412   2.721   6.594  12.625  0.1706 -0.3157 -0.5606
14666TIP3    H165413   2.675   6.545  12.693 -0.0133 -0.1931 -0.5974
14666TIP3    H265414   2.674   6.573  12.544 -1.0132  1.2937 -0.3353
14667TIP3   OH265415   3.973   3.591   3.952 -0.4023  0.4417 -0.2593
14667TIP3    H165416   3.889   3.562   3.989  0.4241  0.3185  1.6314
14667TIP3    H265417   4.035   3.524   3.978  0.7163  1.6974  0.3974
14668TIP3   OH265418   2.418   3.331   5.327  0.4574  0.1356  0.0535
14668TIP3    H165419   2.418   3.425   5.312  0.6575  0.1160 -0.0771
14668TIP3    H265420   2.476   3.319   5.403  0.6935  0.0880 -0.1329
14669TIP3   OH265421   4.502   4.503  13.300 -0.5834  0.0358 -0.5272
14669TIP3    H165422   4.568   4.545  13.244  0.0967  0.2499  0.4158
14669TIP3    H265423   4.461   4.438  13.243  1.2650 -0.9435 -0.8114
14670TIP3   OH265424   4.617   5.077   5.372 -0.5556  0.5072  0.4702
14670TIP3    H165425   4.522   5.080   5.381 -0.4662 -0.6250  2.2463
14670TIP3    H265426   4.649   5.142   5.435 -0.1405  0.3508  0.4234
14671TIP3   OH265427   6.699   1.461  14.632  0.0175 -0.0762  0.3868
14671TIP3    H165428   6.715   1.384  14.686 -1.1517  0.8019  2.0527
14671TIP3    H265429   6.619   1.439  14.583 -1.1064  0.5566  1.8788
14672TIP3   OH265430   3.220   5.767   4.370 -0.0613 -0.4796  0.3869
14672TIP3    H165431   3.302   5.731   4.405  0.0611 -0.4375  0.1432
14672TIP3    H265432   3.248   5.841   4.316 -0.4296  1.4943  2.7116
14673TIP3   OH265433   5.865   5.834   4.496 -0.4440  0.8282 -0.0636
14673TIP3    H165434   5.935   5.804   4.438 -1.8191  0.2202 -1.4970
14673TIP3    H265435   5.873   5.929   4.496  0.7472  0.7364  0.2930
14674TIP3   OH265436   2.713   4.941  12.931 -0.0933  0.4867  0.7233
14674TIP3    H165437   2.688   4.915  12.842  3.0419 -0.7731  0.0841
14674TIP3    H265438   2.682   4.868  12.985  0.1196  0.0711  0.3018
14675TIP3   OH265439   5.365   3.046   5.475 -0.2118  0.4408 -0.0402
14675TIP3    H165440   5.330   2.987   5.408 -0.7272  2.5940 -1.7864
14675TIP3    H265441   5.287   3.090   5.511  0.2953  1.5702 -0.2894
14676TIP3   OH265442   3.577   1.950   1.372 -1.1616  0.5442  0.5141
14676TIP3    H165443   3.574   2.036   1.413 -0.8730  0.7567  0.0985
14676TIP3    H265444   3.491   1.939   1.331 -0.8309  1.1044 -0.3602
14677TIP3   OH265445   0.735   2.047   4.715 -0.2276  0.1810 -0.6160
14677TIP3    H165446   0.730   2.122   4.656 -1.8307 -0.1051 -0.8960
14677TIP3    H265447   0.663   2.060   4.776  0.2081 -0.5360  0.0701
14678TIP3   OH265448   6.763   6.232  16.429  0.3144  0.5859 -0.5439
14678TIP3    H165449   6.680   6.193  16.401  1.1410 -0.0800 -2.2471
14678TIP3    H265450   6.829   6.166  16.408  1.2563  0.8732  1.2796
14679TIP3   OH265451   3.335   2.829   0.797  0.4469  0.4909  0.5128
14679TIP3    H165452   3.344   2.824   0.702 -0.4008 -1.2084  0.4874
14679TIP3    H265453   3.416   2.792   0.832  0.3539  0.2115  0.4345
14680TIP3   OH265454   2.013   0.832  15.538 -0.5869  0.2565  0.0353
14680TIP3    H165455   2.030   0.847  15.631  0.1412  3.7253 -0.4915
14680TIP3    H265456   1.949   0.900  15.514  0.2621  0.3412 -2.2410
14681TIP3   OH265457   1.598   0.460   5.300 -0.2666 -0.3249 -0.8264
14681TIP3    H165458   1.536   0.532   5.300 -2.4163 -2.0586  0.2290
14681TIP3    H265459   1.632   0.456   5.390 -1.4925 -1.6315 -0.3821
14682TIP3   OH265460   6.414   3.571   4.779  0.4566  0.6216 -0.2035
14682TIP3    H165461   6.414   3.667   4.786  0.2101  0.5587  0.8062
14682TIP3    H265462   6.480   3.552   4.712 -0.0371  1.5250 -0.9689
14683TIP3   OH265463   4.008   1.899  16.319  0.0863 -0.1091  0.3431
14683TIP3    H165464   3.951   1.858  16.384 -0.4174 -1.3967 -0.8501
14683TIP3    H265465   3.947   1.935  16.254  0.5693  1.3811  0.6854
14684TIP3   OH265466   4.688   2.216  15.835 -0.2419 -0.2182 -0.0041
14684TIP3    H165467   4.628   2.190  15.905  1.1622  0.0032  1.3404
14684TIP3    H265468   4.730   2.296  15.868 -0.3190  0.5033 -1.5777
14685TIP3   OH265469   1.191   5.438   5.884 -0.0188 -0.1690 -0.7185
14685TIP3    H165470   1.121   5.401   5.830 -0.1618 -0.6959 -0.1893
14685TIP3    H265471   1.160   5.525   5.907 -0.6244 -0.4863 -0.2941
14686TIP3   OH265472   6.121   2.178   4.180 -0.2850 -0.2552 -0.2565
14686TIP3    H165473   6.100   2.092   4.217 -0.2626 -1.1947 -2.2715
14686TIP3    H265474   6.200   2.163   4.128  0.1116  1.1640 -0.1027
14687TIP3   OH265475   1.366   2.748   6.363  0.3314  0.7026 -0.4744
14687TIP3    H165476   1.403   2.777   6.280  0.2443 -0.4575 -0.9435
14687TIP3    H265477   1.309   2.819   6.390 -0.7473  0.5212 -2.1428
14688TIP3   OH265478   1.191   1.637   1.558 -0.1532  0.0630 -0.0142
14688TIP3    H165479   1.248   1.566   1.586  0.3162  0.0540 -0.9537
14688TIP3    H265480   1.232   1.717   1.592 -1.5679 -0.1937  2.4970
14689TIP3   OH265481   4.310   4.845   3.643  0.5559 -0.1296 -0.1295
14689TIP3    H165482   4.234   4.802   3.604  1.0415 -1.1827  0.0555
14689TIP3    H265483   4.283   4.865   3.733 -0.0817  1.0546 -0.5582
14690TIP3   OH265484   2.940   5.426   5.737  0.3355 -0.0756  0.0663
14690TIP3    H165485   2.985   5.402   5.656 -0.5041 -0.1648 -0.3849
14690TIP3    H265486   2.900   5.344   5.768  0.3276  0.0366  0.3567
14691TIP3   OH265487   2.510   2.018   0.307 -0.1096  0.2978  0.2418
14691TIP3    H165488   2.502   2.112   0.290 -0.9949  0.0903 -0.5985
14691TIP3    H265489   2.428   1.994   0.349 -0.6107 -0.3944 -1.0846
14692TIP3   OH265490   6.542   0.061  16.701  0.1390  0.1544 -0.2186
14692TIP3    H165491   6.560   0.149  16.733  1.3715 -0.6833  1.6103
14692TIP3    H265492   6.483   0.023  16.766  1.2060 -0.9882  0.1350
14693TIP3   OH265493   6.245   0.654   3.023 -0.4485 -0.1535  0.0663
14693TIP3    H165494   6.319   0.712   3.006 -1.3175  0.5679 -1.4718
14693TIP3    H265495   6.233   0.607   2.940 -2.0561  0.1694  0.0878
14694TIP3   OH265496   4.912   3.201   2.790  0.1398 -0.1077 -0.1285
14694TIP3    H165497   4.910   3.117   2.836  0.5870 -0.4977 -0.8017
14694TIP3    H265498   4.949   3.180   2.704  1.7638  1.0536  0.2419
14695TIP3   OH265499   3.760   1.535  13.489  0.6675  0.3628 -0.4068
14695TIP3    H165500   3.791   1.620  13.523  0.7956 -0.4714  1.7117
14695TIP3    H265501   3.665   1.544  13.485  0.7530  0.9847 -1.3415
14696TIP3   OH265502   3.884   2.600   5.634 -0.2097 -0.1597 -0.2529
14696TIP3    H165503   3.814   2.665   5.636 -0.0324  0.0900  2.9430
14696TIP3    H265504   3.953   2.641   5.584 -0.0845  2.2734  1.7054
14697TIP3   OH265505   0.990   4.236   1.244  0.1952 -0.5075  0.0090
14697TIP3    H165506   0.962   4.185   1.168  0.6155 -2.9306  1.3608
14697TIP3    H265507   0.909   4.269   1.282 -0.0964 -0.1671 -0.8899
14698TIP3   OH265508   4.843   5.587   2.658 -0.4634  0.1053 -0.4584
14698TIP3    H165509   4.789   5.665   2.647  1.9446  2.4107  2.2136
14698TIP3    H265510   4.844   5.572   2.752 -0.5136 -2.9903 -0.8759
14699TIP3   OH265511   6.726   6.499  16.487 -0.1598 -0.3746  0.0876
14699TIP3    H165512   6.820   6.515  16.479 -0.3817  0.6538 -0.7373
14699TIP3    H265513   6.717   6.404  16.482  0.9748 -0.6184  1.9019
14700TIP3   OH265514   1.868   2.292  12.371 -0.2340 -0.5642  0.2800
14700TIP3    H165515   1.862   2.316  12.463 -2.5005  0.8891 -0.1727
14700TIP3    H265516   1.859   2.197  12.370  0.1262 -0.6201  1.5706
14701TIP3   OH265517   3.286   6.035   1.707  0.7003  0.0879 -0.2726
14701TIP3    H165518   3.280   6.027   1.612  2.0937 -0.1707 -0.3559
14701TIP3    H265519   3.375   6.066   1.723  0.6779 -0.4515  0.9858
14702TIP3   OH265520   5.505   1.736  12.086  0.3823 -0.1924 -0.0145
14702TIP3    H165521   5.449   1.661  12.062  0.9039 -0.5545 -0.1068
14702TIP3    H265522   5.501   1.739  12.181 -0.9990  0.7150 -0.0621
14703TIP3   OH265523   0.533   4.841  16.834  0.2661  0.1224  0.7440
14703TIP3    H165524   0.542   4.748  16.815  1.1055  0.1937  0.7156
14703TIP3    H265525   0.622   4.876  16.823 -0.2608  1.1521 -0.4409
14704TIP3   OH265526   4.929   0.290   1.605  0.1972 -0.4960  0.1692
14704TIP3    H165527   4.847   0.249   1.577 -0.1686 -1.7253  2.7510
14704TIP3    H265528   4.998   0.235   1.567 -0.1941 -0.4782 -0.5820
14705TIP3   OH265529   5.435   5.410  11.043 -0.0529 -0.0826 -0.2589
14705TIP3    H165530   5.446   5.321  11.078  1.6434  0.3834  0.5058
14705TIP3    H265531   5.400   5.397  10.955 -1.9976 -1.4002  0.6450
14706TIP3   OH265532   2.097   6.575  13.199 -0.3118  0.1856 -0.2072
14706TIP3    H165533   2.116   6.507  13.263  0.7874  0.3551 -0.3365
14706TIP3    H265534   2.115   6.657  13.245 -0.2707  0.3370 -0.4891
14707TIP3   OH265535   4.624   3.735  12.809  0.0181 -0.1614  0.0116
14707TIP3    H165536   4.706   3.708  12.851  0.3160  0.3434 -0.2490
14707TIP3    H265537   4.639   3.719  12.715  0.1657  0.8226 -0.1380
14708TIP3   OH265538   0.972   3.569  11.635  0.2459 -0.1289  0.4221
14708TIP3    H165539   0.955   3.613  11.719  0.3603 -0.3202  0.5470
14708TIP3    H265540   1.050   3.516  11.652 -1.3004 -2.3699  1.0269
14709TIP3   OH265541   4.729   4.360  10.998 -0.5420  0.0184 -0.0362
14709TIP3    H165542   4.720   4.386  10.906 -1.4476  1.4275  0.4260
14709TIP3    H265543   4.818   4.384  11.021 -0.2516 -0.4971 -0.5817
14710TIP3   OH265544   1.269   0.009   2.045 -0.1868  0.3932  0.1784
14710TIP3    H165545   1.221  -0.058   2.093  0.8499 -0.3024  0.2756
14710TIP3    H265546   1.353   0.017   2.091  0.7195 -0.0940 -1.3151
14711TIP3   OH265547   2.288   2.085   3.691  0.4295  0.0226 -0.0432
14711TIP3    H165548   2.262   2.000   3.727 -0.9963  0.6906  0.5769
14711TIP3    H265549   2.336   2.127   3.762  2.3509 -0.7670 -0.8125
14712TIP3   OH265550   1.173   5.877  10.752 -0.0710  0.1270 -0.3197
14712TIP3    H165551   1.166   5.847  10.662 -0.4553 -1.1460  0.1114
14712TIP3    H265552   1.159   5.798  10.805 -1.3723  1.1113  0.8842
14713TIP3   OH265553   1.591   1.863   3.971 -0.4493 -0.3100 -0.2257
14713TIP3    H165554   1.613   1.772   3.994 -0.6688 -0.1782  0.5608
14713TIP3    H265555   1.639   1.880   3.891 -3.0837 -2.2613 -2.4115
14714TIP3   OH265556   1.536   0.218  14.035  0.0706  0.5583  0.0865
14714TIP3    H165557   1.616   0.195  13.987 -0.3299 -0.5459 -0.0789
14714TIP3    H265558   1.473   0.151  14.009 -0.8814  1.3594  0.2979
14715TIP3   OH265559   4.113   1.422  15.166  0.5423 -0.6134 -0.5192
14715TIP3    H165560   4.186   1.480  15.149  1.1165 -1.3503 -0.6277
14715TIP3    H265561   4.053   1.435  15.092  0.8295 -0.4115 -0.7146
14716TIP3   OH265562   0.523   4.810   5.039  0.0006  0.2184 -0.5192
14716TIP3    H165563   0.593   4.860   4.998  0.8906  0.7686  1.5798
14716TIP3    H265564   0.523   4.838   5.131 -2.6676 -0.0953 -0.3347
14717TIP3   OH265565   4.813   0.478  11.760  0.3164 -0.2754 -0.5179
14717TIP3    H165566   4.892   0.531  11.770 -0.4761  0.7006  0.8393
14717TIP3    H265567   4.845   0.388  11.759  1.4395  0.0964  0.1469
14718TIP3   OH265568   3.354   4.709   4.078 -0.2873 -0.0341  0.8425
14718TIP3    H165569   3.400   4.629   4.054  1.9190  1.5998 -0.6716
14718TIP3    H265570   3.274   4.707   4.025 -0.6744 -1.5329  1.4057
14719TIP3   OH265571   0.640   5.369  15.951  0.0442 -0.4792  0.1785
14719TIP3    H165572   0.621   5.293  16.007 -2.4251  1.1061  1.6807
14719TIP3    H265573   0.692   5.427  16.006  0.2436 -0.2316 -0.2647
14720TIP3   OH265574   3.594   1.879  11.753 -0.4298 -0.3054 -0.2231
14720TIP3    H165575   3.640   1.796  11.742 -0.1855 -0.2400  0.3200
14720TIP3    H265576   3.644   1.941  11.699  0.4488 -0.1127  0.7844
14721TIP3   OH265577   5.513   2.239  10.967  0.0606  0.3540 -0.3564
14721TIP3    H165578   5.564   2.320  10.975 -0.0357  0.2815  1.2563
14721TIP3    H265579   5.484   2.238  10.876 -0.2075  2.2990 -0.3246
14722TIP3   OH265580   1.188   3.004  14.675 -0.0642  0.4911 -0.0237
14722TIP3    H165581   1.153   2.928  14.629  0.2134  0.6691 -0.5396
14722TIP3    H265582   1.218   2.969  14.760 -1.3595  0.3181  0.3817
14723TIP3   OH265583   5.228   3.616   4.953 -0.1913 -0.1344  0.0371
14723TIP3    H165584   5.308   3.618   4.901  0.6931  1.6092  1.3498
14723TIP3    H265585   5.214   3.523   4.970 -0.6078 -0.8059 -3.2992
14724TIP3   OH265586   3.771   2.216  15.942  0.3620  0.1804  0.0967
14724TIP3    H165587   3.846   2.237  15.998  1.1570  0.1593 -0.9238
14724TIP3    H265588   3.725   2.299  15.930 -0.1870  0.0598  1.2915
14725TIP3   OH265589   4.996   4.435  10.980 -0.1964 -0.2866 -0.3354
14725TIP3    H165590   5.036   4.440  11.067  0.3720  0.3529 -0.6217
14725TIP3    H265591   5.047   4.367  10.935 -0.8531 -1.0206  0.0021
14726TIP3   OH265592   1.683   3.123  13.698 -0.1729  0.1320 -0.2861
14726TIP3    H165593   1.626   3.052  13.727  0.2506 -0.8193 -1.6753
14726TIP3    H265594   1.679   3.119  13.603  0.8964  1.1320 -0.3906
14727TIP3   OH265595   2.809   1.452   2.103 -0.1612  0.5445  0.0888
14727TIP3    H165596   2.829   1.425   2.193  0.1216  0.1151 -0.0980
14727TIP3    H265597   2.833   1.376   2.050 -0.2814  0.8150 -0.3548
14728TIP3   OH265598   2.077   0.551  16.211  0.1930  0.1371  0.1849
14728TIP3    H165599   2.063   0.480  16.274 -0.1023 -0.2027 -0.2611
14728TIP3    H265600   1.994   0.599  16.211  0.2127  0.1701  0.0982
14729TIP3   OH265601   0.294   2.170  10.821  0.8989 -0.4064 -0.0473
14729TIP3    H165602   0.315   2.245  10.766  2.1170 -0.8691 -0.2472
14729TIP3    H265603   0.198   2.162  10.815  0.8299  0.6495 -0.6327
14730TIP3   OH265604   6.011   5.494  14.373  0.0893  0.6000 -0.0033
14730TIP3    H165605   5.974   5.581  14.359  0.1882  0.5001 -0.9164
14730TIP3    H265606   5.950   5.451  14.432 -0.5264  0.9145 -0.4031
14731TIP3   OH265607   2.502   2.300  16.616 -0.3784 -0.1897  0.0936
14731TIP3    H165608   2.535   2.210  16.611 -0.4142 -0.1885 -0.2197
14731TIP3    H265609   2.553   2.347  16.550  0.2511  0.2142  0.8580
14732TIP3   OH265610   0.645   6.392  15.108  0.9492  0.3559  0.4690
14732TIP3    H165611   0.623   6.304  15.138 -3.0575  0.4487 -1.5018
14732TIP3    H265612   0.622   6.449  15.182 -0.4798 -0.0279  0.3592
14733TIP3   OH265613   0.225   2.369  11.946  0.2773  0.0634 -0.5432
14733TIP3    H165614   0.194   2.317  12.019 -1.8924  1.7164 -0.1985
14733TIP3    H265615   0.244   2.305  11.877 -0.4367 -1.3002  0.4786
14734TIP3   OH265616   1.371   1.534  14.337  0.4474  0.2801  0.1049
14734TIP3    H165617   1.341   1.491  14.257  1.1556 -1.8929  0.9417
14734TIP3    H265618   1.444   1.480  14.368 -0.4437  0.4452  2.7735
14735TIP3   OH265619   0.319   2.163  13.018 -0.2452  0.3170 -0.1551
14735TIP3    H165620   0.339   2.156  12.925  0.0634  0.6287 -0.1163
14735TIP3    H265621   0.347   2.080  13.056 -0.7499  0.0279 -0.4034
14736TIP3   OH265622   4.298   6.358  11.024 -0.2777 -0.4402  0.3216
14736TIP3    H165623   4.351   6.279  11.033  0.5052  0.1007  0.5605
14736TIP3    H265624   4.239   6.339  10.951  0.2364 -1.0532  0.0500
14737TIP3   OH265625   4.272   1.133  12.044  0.3317 -0.4329  0.2891
14737TIP3    H165626   4.298   1.063  11.983 -0.9121 -2.5606  2.0598
14737TIP3    H265627   4.355   1.168  12.076  1.0843  1.3674 -3.1026
14738TIP3   OH265628   1.143   2.299   0.970 -0.0592 -0.4434 -0.3855
14738TIP3    H165629   1.062   2.328   0.929 -0.2304 -1.5390 -0.8655
14738TIP3    H265630   1.202   2.373   0.962 -0.6035 -0.0813 -1.1930
14739TIP3   OH265631   0.371   3.368  16.198 -0.3713 -0.4816  0.2274
14739TIP3    H165632   0.448   3.425  16.193 -1.1613  0.6004  0.0937
14739TIP3    H265633   0.407   3.281  16.216  0.8433  0.0898  0.6664
14740TIP3   OH265634   0.413   6.522   1.889  0.2814 -0.0691  0.0764
14740TIP3    H165635   0.360   6.580   1.835 -2.2458 -1.3061  1.0348
14740TIP3    H265636   0.350   6.481   1.948  2.2656 -2.1061  0.9310
14741TIP3   OH265637   6.344   5.922  15.359 -0.4246 -0.2110 -0.1150
14741TIP3    H165638   6.349   5.937  15.454 -0.6309  0.6261 -0.2336
14741TIP3    H265639   6.413   5.857  15.342 -0.0111  0.0543  0.5218
14742TIP3   OH265640   3.917   6.551   0.787  0.3133 -0.2073  0.3315
14742TIP3    H165641   3.845   6.579   0.844 -0.0522 -0.1413 -0.1564
14742TIP3    H265642   3.973   6.499   0.844 -0.4579 -0.7984  0.5711
14743TIP3   OH265643   2.753   2.339   2.833 -0.1068 -0.3383 -0.4339
14743TIP3    H165644   2.787   2.285   2.904 -0.0581 -1.3644 -1.2187
14743TIP3    H265645   2.790   2.426   2.850  0.5812 -0.7596  0.3240
14744TIP3   OH265646   4.776   4.580  11.491  0.8475 -0.0605  0.2299
14744TIP3    H165647   4.798   4.519  11.561 -0.3926 -0.6457  0.1309
14744TIP3    H265648   4.709   4.534  11.439  1.4571  0.5085 -1.1095
14745TIP3   OH265649   0.478   3.807   2.497  0.1951 -0.1365  0.3315
14745TIP3    H165650   0.544   3.740   2.511  0.4822  0.2160  0.7107
14745TIP3    H265651   0.461   3.806   2.403 -0.6014 -1.4764  0.4642
14746TIP3   OH265652   3.627   5.446  14.045 -0.3293 -0.0265  0.5752
14746TIP3    H165653   3.715   5.426  14.076 -0.7507  1.1007  2.6469
14746TIP3    H265654   3.604   5.530  14.086 -1.9788  0.2460 -0.7484
14747TIP3   OH265655   0.396   3.187  16.570 -0.2433 -0.3557 -0.2674
14747TIP3    H165656   0.442   3.104  16.579  0.1732 -0.1616 -0.6086
14747TIP3    H265657   0.442   3.246  16.630 -1.5096 -0.7617  1.2004
14748TIP3   OH265658   0.815   4.391   4.912  0.1559  0.3974 -0.4325
14748TIP3    H165659   0.882   4.328   4.940 -1.0188 -0.6870  0.0508
14748TIP3    H265660   0.863   4.473   4.900  1.6988 -0.5130 -0.8276
14749TIP3   OH265661   3.680   5.583  15.415 -0.2354  0.1624 -0.2736
14749TIP3    H165662   3.691   5.660  15.359 -0.6610 -0.1810 -0.8545
14749TIP3    H265663   3.766   5.542  15.418 -0.2794  0.0030 -0.9685
14750TIP3   OH265664   5.121   1.515   3.644 -0.2550 -0.1843  0.7580
14750TIP3    H165665   5.163   1.471   3.570 -0.9062 -0.3447  0.4759
14750TIP3    H265666   5.090   1.444   3.700 -3.3720 -0.2483 -0.8322
14751TIP3   OH265667   5.996   1.490  12.336  0.2679 -0.1264  0.2341
14751TIP3    H165668   6.062   1.470  12.269 -0.7996 -2.1354 -0.2765
14751TIP3    H265669   5.929   1.541  12.289 -0.0676 -0.8010 -0.0219
14752TIP3   OH265670   1.682   1.686  14.561  0.5586  0.1576 -0.1628
14752TIP3    H165671   1.682   1.621  14.490  1.6769  0.8370 -0.8085
14752TIP3    H265672   1.628   1.646  14.629  0.9012 -1.2936 -0.6892
14753TIP3   OH265673   5.560   5.258   5.581 -0.5204  0.1411 -0.4057
14753TIP3    H165674   5.595   5.345   5.600  0.2755 -0.4640  0.9962
14753TIP3    H265675   5.545   5.259   5.486  1.9491  0.9293 -0.8611
14754TIP3   OH265676   1.193   5.982   3.609 -0.2819 -1.0579  0.4378
14754TIP3    H165677   1.103   6.009   3.629  0.1329 -0.0261  0.9554
14754TIP3    H265678   1.194   5.888   3.626 -1.1480 -0.9993  0.8660
14755TIP3   OH265679   2.153   0.256  12.204 -0.5025 -0.1285 -0.1621
14755TIP3    H165680   2.231   0.282  12.156  0.9396 -0.5702  1.8265
14755TIP3    H265681   2.118   0.182  12.154 -0.7963  1.2706 -2.1179
14756TIP3   OH265682   3.663   5.479   4.093  0.1221 -0.2033 -0.1414
14756TIP3    H165683   3.706   5.403   4.054  2.0227  0.3622  0.7438
14756TIP3    H265684   3.656   5.542   4.022  2.1233  0.2324  0.0041
14757TIP3   OH265685   4.549   1.170   1.229 -0.0410 -0.3809 -0.8280
14757TIP3    H165686   4.559   1.203   1.318  1.0795 -1.7197 -0.4180
14757TIP3    H265687   4.469   1.211   1.197  0.0328  0.8398  0.4573
14758TIP3   OH265688   1.353   0.956  11.516 -0.1743 -0.5940  0.1104
14758TIP3    H165689   1.410   1.022  11.476 -0.6655 -0.7997 -0.9738
14758TIP3    H265690   1.395   0.935  11.599  0.3324  0.6109  0.1828
14759TIP3   OH265691   2.251   0.227   3.314  0.6331 -0.1033 -0.1435
14759TIP3    H165692   2.335   0.271   3.304  0.8673 -0.2394  1.0726
14759TIP3    H265693   2.190   0.279   3.263  1.3357  0.3301 -0.5606
14760TIP3   OH265694   5.219   2.719   3.557  1.0176 -0.3267 -0.0915
14760TIP3    H165695   5.265   2.709   3.474 -0.6125 -0.1881 -1.0597
14760TIP3    H265696   5.168   2.800   3.547  0.7614 -0.3354  1.0190
14761TIP3   OH265697   1.686   2.423  13.008  0.3219  0.2655  0.0778
14761TIP3    H165698   1.590   2.426  13.009  0.2788  0.8522 -1.5820
14761TIP3    H265699   1.708   2.339  13.048 -0.8097  0.7117  1.7583
14762TIP3   OH265700   5.239   1.901  12.385 -0.1383 -0.9469  0.6113
14762TIP3    H165701   5.235   1.985  12.430  0.8342  1.4198 -3.2376
14762TIP3    H265702   5.327   1.868  12.402  0.9472  0.9212 -0.9584
14763TIP3   OH265703   5.863   6.578  15.001  0.0600  0.6524 -0.2193
14763TIP3    H165704   5.813   6.644  14.954  1.3566  2.5603  0.9729
14763TIP3    H265705   5.944   6.569  14.952  0.4411  0.9489  0.3388
14764TIP3   OH265706   2.253   3.317  16.978  0.2216  0.5044 -0.2627
14764TIP3    H165707   2.276   3.407  16.956 -1.9908  0.7552 -1.8038
14764TIP3    H265708   2.186   3.326  17.046  1.1656 -0.0749  0.7870
14765TIP3   OH265709   2.202   4.391   1.820  0.5200 -0.0501  0.1916
14765TIP3    H165710   2.197   4.486   1.806 -2.3156 -0.3129 -1.3396
14765TIP3    H265711   2.259   4.360   1.750  0.1457  0.3750 -0.3137
14766TIP3   OH265712   6.627   4.547   3.055  0.6397  0.4290  0.0491
14766TIP3    H165713   6.536   4.565   3.033  1.2648  1.0817 -2.3759
14766TIP3    H265714   6.663   4.632   3.080 -0.0590 -0.2999  4.1658
14767TIP3   OH265715   3.725   4.377   3.794 -0.2696 -0.0894 -0.0569
14767TIP3    H165716   3.677   4.443   3.844 -0.3708 -0.3689  0.2133
14767TIP3    H265717   3.658   4.316   3.763 -0.0660 -0.6194  0.5324
14768TIP3   OH265718   0.556   5.021   1.904  0.1421 -0.1982  0.0968
14768TIP3    H165719   0.485   5.080   1.877  0.8292  0.6813  0.1538
14768TIP3    H265720   0.542   5.007   1.997 -0.9441 -1.4401 -0.2187
14769TIP3   OH265721   5.202   2.101  16.858 -0.2929 -0.0553  0.5568
14769TIP3    H165722   5.230   2.192  16.844  0.0051  0.0038  1.4547
14769TIP3    H265723   5.265   2.049  16.809  1.3115  0.0957  2.3192
14770TIP3   OH265724   1.307   2.886  11.543  0.2299 -0.5865  0.1093
14770TIP3    H165725   1.276   2.839  11.620  0.8075  0.5122  1.0522
14770TIP3    H265726   1.314   2.977  11.572  0.0771 -0.0773 -1.3646
14771TIP3   OH265727   3.842   6.068  14.007 -0.1627 -0.3076  0.0933
14771TIP3    H165728   3.927   6.091  13.969 -0.6896 -0.8889 -1.5327
14771TIP3    H265729   3.856   6.072  14.102  1.9935 -1.4563 -0.1022
14772TIP3   OH265730   3.390   6.198  17.071 -0.1850  0.3142 -0.0609
14772TIP3    H165731   3.367   6.200  16.978 -0.1850  1.3485 -0.0530
14772TIP3    H265732   3.481   6.171  17.073  0.5088  2.4019 -0.5454
14773TIP3   OH265733   4.424   5.335  11.697 -0.3660 -0.2150 -0.7272
14773TIP3    H165734   4.421   5.378  11.612 -0.3711  0.2110 -0.5150
14773TIP3    H265735   4.379   5.395  11.756 -0.7682 -0.7190 -0.5135
14774TIP3   OH265736   1.067   3.186   0.869  0.2150 -0.5261  0.5104
14774TIP3    H165737   1.126   3.136   0.814  0.8662  0.0126  0.7087
14774TIP3    H265738   0.988   3.132   0.875  0.7878 -1.3845  0.4748
14775TIP3   OH265739   4.800   4.112  11.255 -0.1251  0.5682 -0.0051
14775TIP3    H165740   4.735   4.058  11.300  0.6107 -0.0904  0.2841
14775TIP3    H265741   4.764   4.201  11.260 -1.7910  0.0161 -1.2812
14776TIP3   OH265742   3.868   5.772   4.116 -0.1200 -0.6111  0.0325
14776TIP3    H165743   3.858   5.866   4.125 -0.8920 -0.5964 -0.7699
14776TIP3    H265744   3.914   5.744   4.195  0.9280  0.5517 -0.1437
14777TIP3   OH265745   6.265   3.124   2.246  0.2198  0.1032  0.1248
14777TIP3    H165746   6.322   3.159   2.315 -0.0110  0.8194 -0.0350
14777TIP3    H265747   6.272   3.188   2.175 -0.2382 -0.1651 -0.1635
14778TIP3   OH265748   0.729   0.653   1.226  0.2913 -0.2750  0.5760
14778TIP3    H165749   0.735   0.652   1.131 -1.1088 -2.7777  0.4003
14778TIP3    H265750   0.817   0.631   1.256  0.4651 -0.7047 -0.2217
14779TIP3   OH265751   3.664   2.785  15.909 -0.2074  0.1266  0.1029
14779TIP3    H165752   3.710   2.782  15.993 -1.1985  0.0419  0.6702
14779TIP3    H265753   3.659   2.878  15.887 -1.1267  0.2750  0.8447
14780TIP3   OH265754   5.161   1.419  14.689 -0.2904 -0.6227 -0.0791
14780TIP3    H165755   5.080   1.398  14.736  1.0451 -1.8771  1.8342
14780TIP3    H265756   5.156   1.513  14.672 -0.2159  0.3527  4.1928
14781TIP3   OH265757   5.465   4.723   0.894 -0.7649 -0.1665  0.1705
14781TIP3    H165758   5.447   4.710   0.801 -2.0041  0.5277  0.2953
14781TIP3    H265759   5.387   4.768   0.928  0.3453  1.0753  1.2041
14782TIP3   OH265760   2.148   0.223   1.230 -0.0084 -0.0678 -0.0944
14782TIP3    H165761   2.219   0.211   1.294 -0.9788  0.4773  1.1369
14782TIP3    H265762   2.159   0.151   1.168  0.9125 -0.6845  0.7583
14783TIP3   OH265763   0.215   3.648  10.836  0.9513 -0.4098 -0.7512
14783TIP3    H165764   0.213   3.632  10.742  1.6854  0.4164 -0.9145
14783TIP3    H265765   0.179   3.737  10.846 -2.2223 -1.6447  0.0526
14784TIP3   OH265766   5.756   2.787  16.226 -0.0595 -0.5901  0.4377
14784TIP3    H165767   5.726   2.748  16.308  0.8893  1.2461  1.7217
14784TIP3    H265768   5.676   2.815  16.182 -0.5030 -0.0119  1.5714
14785TIP3   OH265769   0.778   3.154  10.630  0.0181  0.4247  0.3006
14785TIP3    H165770   0.821   3.230  10.591  0.6671 -1.6286 -3.3658
14785TIP3    H265771   0.688   3.157  10.598 -0.9259  1.2599  2.7793
14786TIP3   OH265772   2.623   4.634   4.269  0.2961  0.0737 -0.3717
14786TIP3    H165773   2.594   4.573   4.337  0.0908 -0.9643 -1.3643
14786TIP3    H265774   2.718   4.637   4.278  0.2497  0.1428  0.1133
14787TIP3   OH265775   1.784   3.779  11.307 -0.2298 -0.0894 -0.1226
14787TIP3    H165776   1.778   3.873  11.317 -1.7308 -0.3164  1.5576
14787TIP3    H265777   1.867   3.755  11.348  0.1982  0.4864 -0.6354
14788TIP3   OH265778   2.722   6.297  14.402 -0.0867 -0.3406 -0.1694
14788TIP3    H165779   2.734   6.205  14.377 -0.7806 -0.0097 -1.7965
14788TIP3    H265780   2.794   6.344  14.359 -0.2392  0.0096 -0.0469
14789TIP3   OH265781   5.724   0.777   4.507  0.0481  0.1691  0.2830
14789TIP3    H165782   5.684   0.787   4.421  1.3342 -0.5434 -0.4402
14789TIP3    H265783   5.699   0.855   4.556 -0.9278  0.4451 -0.6418
14790TIP3   OH265784   4.540   3.078   0.278 -0.0411 -0.0488  0.0799
14790TIP3    H165785   4.489   3.032   0.212  1.3376 -2.7706  0.7565
14790TIP3    H265786   4.608   3.123   0.229  0.2944 -1.1191 -0.4753
14791TIP3   OH265787   0.303   4.487   1.639  0.3807 -0.0810  0.5318
14791TIP3    H165788   0.335   4.397   1.637  2.3038  0.5536 -1.3182
14791TIP3    H265789   0.381   4.540   1.657 -0.6161  1.2504  1.0818
14792TIP3   OH265790   3.427   4.952   4.779  0.1733  0.5392  0.0039
14792TIP3    H165791   3.400   5.002   4.856  2.8625  0.4770  1.0902
14792TIP3    H265792   3.493   5.008   4.737  1.0683 -0.8197 -0.4432
14793TIP3   OH265793   1.673   5.192   3.735 -0.0234  0.3482 -0.4156
14793TIP3    H165794   1.715   5.172   3.819  1.8312  3.7782 -0.3530
14793TIP3    H265795   1.648   5.106   3.700  1.0963 -1.3813  2.6062
14794TIP3   OH265796   4.216   6.611  12.536 -0.0940  0.2740  0.4280
14794TIP3    H165797   4.144   6.587  12.596  0.9096 -1.2198  1.1051
14794TIP3    H265798   4.295   6.600  12.589  0.9699 -2.7562 -1.5536
14795TIP3   OH265799   1.819   3.300  13.024 -0.1992 -0.0405 -0.4131
14795TIP3    H165800   1.737   3.327  12.984  0.2537  1.9275 -0.1184
14795TIP3    H265801   1.800   3.215  13.063 -2.0544  0.3139 -0.4630
14796TIP3   OH265802   6.561   6.363  11.639 -0.3314 -0.6688 -0.0734
14796TIP3    H165803   6.484   6.414  11.614 -0.2414 -0.7003 -0.4258
14796TIP3    H265804   6.545   6.276  11.602 -0.5268 -0.9227  0.6069
14797TIP3   OH265805   2.247   2.505   4.499  0.6475 -0.0900  0.5797
14797TIP3    H165806   2.265   2.415   4.473 -0.7397 -0.4642  0.8311
14797TIP3    H265807   2.228   2.551   4.417 -2.5255 -0.9853  0.6577
14798TIP3   OH265808   2.702   6.749  11.641 -0.0774  0.0154 -0.3151
14798TIP3    H165809   2.751   6.825  11.609 -1.0911  1.3229  1.0553
14798TIP3    H265810   2.768   6.695  11.685  0.4923  0.6500 -0.3653
14799TIP3   OH265811   1.753   5.190  15.895 -0.0918  0.3538  0.0769
14799TIP3    H165812   1.737   5.115  15.837  2.3546 -0.1689 -0.0421
14799TIP3    H265813   1.718   5.265  15.848 -0.3865 -0.3899 -0.9260
14800TIP3   OH265814   1.281   3.063   5.347  0.1189 -0.2029 -0.7125
14800TIP3    H165815   1.231   2.985   5.321  0.9021 -0.6461 -0.9306
14800TIP3    H265816   1.360   3.028   5.388  0.5629  0.4769 -0.9722
14801TIP3   OH265817   0.795   4.798   2.502 -0.5411  0.3037  0.5548
14801TIP3    H165818   0.832   4.728   2.557  0.4759  0.1512 -0.2785
14801TIP3    H265819   0.763   4.752   2.424 -0.7643  0.6636  0.4346
14802TIP3   OH265820   6.616   5.313   4.004 -0.0582 -0.2221 -0.1658
14802TIP3    H165821   6.667   5.394   4.006 -2.2462  1.2522 -0.0370
14802TIP3    H265822   6.604   5.293   3.911 -1.6793  1.1343 -0.2949
14803TIP3   OH265823   0.690   1.094  15.875 -0.1011 -0.5846  0.2551
14803TIP3    H165824   0.665   1.164  15.936  0.6159  0.7904 -0.9441
14803TIP3    H265825   0.770   1.057  15.913  2.5025  2.6828 -1.4441
14804TIP3   OH265826   4.520   1.153   0.372  0.0969 -0.4847  0.2862
14804TIP3    H165827   4.601   1.122   0.414 -0.3764 -0.4189  1.2871
14804TIP3    H265828   4.534   1.138   0.279  1.3052 -0.3810  0.4324
14805TIP3   OH265829   3.882   1.464   2.102  0.5035  0.3011 -0.0192
14805TIP3    H165830   3.926   1.396   2.152 -1.2012 -0.4841  0.4544
14805TIP3    H265831   3.867   1.534   2.165 -2.4231 -1.0315  0.9189
14806TIP3   OH265832   5.457   2.022  12.143 -0.2136 -0.2790 -0.1005
14806TIP3    H165833   5.379   2.044  12.092  0.2309  2.1059  0.1572
14806TIP3    H265834   5.456   1.926  12.148 -1.8174 -0.4211 -2.1056
14807TIP3   OH265835   3.486   3.341   4.637  0.1211  0.0035 -0.0244
14807TIP3    H165836   3.528   3.361   4.721  1.6112  0.2766 -0.7955
14807TIP3    H265837   3.394   3.326   4.659  0.3703  0.6139  1.5718
14808TIP3   OH265838   1.196   5.191   4.056  0.1244 -0.8092  0.0349
14808TIP3    H165839   1.200   5.152   4.144 -0.8143 -0.2263  0.3479
14808TIP3    H265840   1.112   5.237   4.054  0.8842  0.6007 -0.5753
14809TIP3   OH265841   3.073   4.837  11.257  0.5998  0.1604 -0.6079
14809TIP3    H165842   3.123   4.792  11.189 -0.1822 -0.1162 -1.0047
14809TIP3    H265843   3.135   4.847  11.329  0.3980 -2.8894  0.0954
14810TIP3   OH265844   2.790   0.315  16.540 -0.6979 -0.3051 -0.6165
14810TIP3    H165845   2.830   0.310  16.627 -0.5568 -2.0525 -0.7403
14810TIP3    H265846   2.717   0.375  16.551 -0.8509 -0.7009  0.7922
14811TIP3   OH265847   2.719   3.855   3.214  0.3611 -0.1516 -0.2448
14811TIP3    H165848   2.687   3.790   3.276 -2.5845 -0.0658 -1.5348
14811TIP3    H265849   2.723   3.936   3.264  0.5268 -0.5798  0.4489
14812TIP3   OH265850   0.490   5.500  15.289 -0.2433 -0.1044  0.0382
14812TIP3    H165851   0.401   5.466  15.280  0.1476 -1.1730  0.0569
14812TIP3    H265852   0.526   5.496  15.201  0.0632 -0.4728  0.1799
14813TIP3   OH265853   1.549   0.542  13.653 -0.1099  0.1404 -0.5189
14813TIP3    H165854   1.479   0.595  13.615 -1.0859  0.1717  1.2280
14813TIP3    H265855   1.533   0.454  13.618  0.4466  0.5900 -2.0025
14814TIP3   OH265856   2.767   0.085   2.666 -0.0479 -0.2188 -0.5066
14814TIP3    H165857   2.735   0.001   2.633 -0.8460 -0.3916  0.6499
14814TIP3    H265858   2.857   0.067   2.693  0.2197 -0.3670 -1.4621
14815TIP3   OH265859   5.664   2.335  10.563 -0.2322  0.4094  0.0006
14815TIP3    H165860   5.575   2.343  10.528 -0.2528  1.7383  0.2974
14815TIP3    H265861   5.662   2.384  10.645  0.0177 -2.0011  1.5432
14816TIP3   OH265862   2.822   0.302   6.140  0.1556  0.4233 -0.1658
14816TIP3    H165863   2.898   0.339   6.186  1.2465 -1.4856 -0.3185
14816TIP3    H265864   2.752   0.303   6.205  0.7580  0.7402  0.4983
14817TIP3   OH265865   0.700   2.621  15.715 -0.0051 -0.1116 -0.1022
14817TIP3    H165866   0.699   2.531  15.681  1.4037  0.1162 -0.8193
14817TIP3    H265867   0.609   2.650  15.709 -0.3555 -1.2452 -0.5237
14818TIP3   OH265868   5.493   0.124  13.036  0.3599 -0.2325 -0.6574
14818TIP3    H165869   5.497   0.113  13.131  0.4721  0.7312 -0.5400
14818TIP3    H265870   5.579   0.095  13.005  1.3858  2.0459 -0.1520
14819TIP3   OH265871   3.747   6.131   2.863  0.2530  0.5006  0.1659
14819TIP3    H165872   3.841   6.147   2.870  0.1803  0.8556  0.3772
14819TIP3    H265873   3.729   6.062   2.926  0.4613  0.0478 -0.2640
14820TIP3   OH265874   2.132   4.920   5.110 -0.2315  0.2946 -0.2265
14820TIP3    H165875   2.182   4.883   5.182  0.2737 -0.7715 -1.0809
14820TIP3    H265876   2.066   4.975   5.151  0.2845  0.0029  1.0192
14821TIP3   OH265877   4.465   3.750   5.935 -0.0012  0.2349  0.0171
14821TIP3    H165878   4.498   3.777   5.849  0.0206  0.9697  0.2494
14821TIP3    H265879   4.523   3.794   5.998 -0.8826  0.8593  0.4169
14822TIP3   OH265880   0.774   2.826   4.400  0.5624  0.0494 -0.1716
14822TIP3    H165881   0.744   2.828   4.491  1.3431 -0.4523  0.1108
14822TIP3    H265882   0.868   2.839   4.405  0.5645  0.4049 -0.9472
14823TIP3   OH265883   5.481   3.435  16.125 -0.3130  0.1967  0.2121
14823TIP3    H165884   5.462   3.488  16.202 -0.4257  2.1635 -1.1007
14823TIP3    H265885   5.557   3.382  16.151 -0.1523  1.0276  1.5544
14824TIP3   OH265886   2.909   1.306  16.200 -0.2190  0.4798 -0.3592
14824TIP3    H165887   2.840   1.297  16.134 -1.0074  0.6637  0.4302
14824TIP3    H265888   2.990   1.313  16.149 -0.5748 -1.4778 -1.2673
14825TIP3   OH265889   6.496   1.270   5.115  0.4509  0.5690  0.6969
14825TIP3    H165890   6.420   1.252   5.059  0.8982 -1.8502  0.7414
14825TIP3    H265891   6.557   1.317   5.058 -0.4590  1.2031  0.2141
14826TIP3   OH265892   5.836   3.051   2.375  0.1404  0.1215 -1.0728
14826TIP3    H165893   5.900   3.105   2.423 -1.2916  0.7364  0.2423
14826TIP3    H265894   5.780   3.114   2.331 -2.2670 -0.0999  1.4018
14827TIP3   OH265895   4.552   4.333  14.132 -0.1331 -0.1518 -0.2022
14827TIP3    H165896   4.583   4.422  14.149 -0.0129  0.1459 -1.8423
14827TIP3    H265897   4.536   4.331  14.038 -3.6343 -0.7697  0.2692
14828TIP3   OH265898   5.537   0.195   5.872 -0.0400 -0.0523 -0.1772
14828TIP3    H165899   5.586   0.226   5.948  0.9391  2.0019 -1.5489
14828TIP3    H265900   5.584   0.116   5.843  1.2592  0.7255 -0.2524
14829TIP3   OH265901   0.756   5.300  11.605  0.1547 -0.3267  0.4015
14829TIP3    H165902   0.734   5.376  11.660 -0.0909  1.1937 -1.6819
14829TIP3    H265903   0.744   5.331  11.515 -0.0447 -2.8873 -0.5425
14830TIP3   OH265904   0.916   1.538   1.631 -0.6466  0.0028  0.3186
14830TIP3    H165905   1.004   1.576   1.631 -0.1733 -0.9352  2.3627
14830TIP3    H265906   0.863   1.598   1.579  1.5559 -0.3950 -2.5998
14831TIP3   OH265907   4.384   1.111  14.039  0.4863 -0.1574  0.0202
14831TIP3    H165908   4.463   1.059  14.026 -0.4774 -2.1323  1.5149
14831TIP3    H265909   4.322   1.051  14.080 -0.4912  2.3192  2.5347
14832TIP3   OH265910   2.560   1.308   1.889  0.2002  0.8235  0.4069
14832TIP3    H165911   2.645   1.273   1.916  0.3048  1.0833  0.4180
14832TIP3    H265912   2.497   1.247   1.926  0.3034  1.5667  1.9060
14833TIP3   OH265913   6.250   3.159  11.279  0.2285  0.0750 -0.3093
14833TIP3    H165914   6.258   3.236  11.222  0.4076  0.3436  0.0701
14833TIP3    H265915   6.300   3.183  11.357  1.3904 -0.9410 -0.7103
14834TIP3   OH265916   1.548   2.671  16.376  0.0014  0.9830 -0.2630
14834TIP3    H165917   1.613   2.737  16.351 -0.3738  1.4250 -0.1024
14834TIP3    H265918   1.466   2.721  16.385 -0.3583  0.4343 -0.4708
14835TIP3   OH265919   4.548   4.464   2.675  0.2259  0.4165  0.2493
14835TIP3    H165920   4.554   4.555   2.705  1.5976  0.1100  1.0219
14835TIP3    H265921   4.455   4.449   2.660 -0.7293  0.6056  4.6373
14836TIP3   OH265922   3.606   4.566  15.787  0.4053  0.1682  0.1156
14836TIP3    H165923   3.625   4.609  15.870 -0.6762  1.3867 -0.2416
14836TIP3    H265924   3.521   4.524  15.799  1.4400 -1.9856  0.4630
14837TIP3   OH265925   2.327   5.991   2.883 -0.1724  0.5687  0.1386
14837TIP3    H165926   2.365   5.957   2.802 -0.3667  3.3024 -1.2287
14837TIP3    H265927   2.370   5.942   2.953  1.9744 -0.0764 -1.5294
14838TIP3   OH265928   2.118   4.646  13.248  0.4313 -0.1494  0.0058
14838TIP3    H165929   2.091   4.564  13.208 -0.0078 -0.8557  1.6833
14838TIP3    H265930   2.072   4.649  13.331  1.5296  1.1150  0.6132
14839TIP3   OH265931   5.840   6.013   1.426  0.5807  0.1711 -0.0039
14839TIP3    H165932   5.794   6.056   1.498  0.0934  1.0056 -0.7856
14839TIP3    H265933   5.923   5.986   1.464  0.7543  1.4961  0.6378
14840TIP3   OH265934   3.835   0.792  12.840  0.4180 -0.7448  1.1610
14840TIP3    H165935   3.766   0.774  12.904 -0.1993  0.8550  1.0084
14840TIP3    H265936   3.871   0.876  12.868  0.2981 -0.1200 -0.4348
14841TIP3   OH265937   2.869   4.970   2.235 -0.1951  0.5995 -0.2071
14841TIP3    H165938   2.847   5.014   2.318 -0.8641 -0.8728  0.4237
14841TIP3    H265939   2.821   5.019   2.169  1.4317  2.6925  0.0193
14842TIP3   OH265940   4.212   4.634   3.919 -0.3722 -0.3371  0.5245
14842TIP3    H165941   4.237   4.674   4.003 -0.7248 -0.0063  0.4736
14842TIP3    H265942   4.295   4.606   3.881  0.3539  3.2842 -0.9428
14843TIP3   OH265943   4.910   4.303   3.589  0.0022 -0.1406  0.6132
14843TIP3    H165944   4.977   4.296   3.658 -0.5135  0.1613  1.1577
14843TIP3    H265945   4.929   4.231   3.530  0.7502 -0.1220  0.8152
14844TIP3   OH265946   3.027   6.409   4.764 -0.1726  0.2532  0.3689
14844TIP3    H165947   3.000   6.483   4.709  0.9708  0.0793 -0.4724
14844TIP3    H265948   2.992   6.332   4.718 -0.8174  0.2212  0.9036
14845TIP3   OH265949   4.956   4.211   5.191  0.2130 -0.6322 -0.2401
14845TIP3    H165950   5.029   4.201   5.252 -0.7083 -0.6713  0.8896
14845TIP3    H265951   4.895   4.269   5.235 -1.1642 -1.8450 -0.4595
14846TIP3   OH265952   2.598   4.569  11.843 -0.0930 -0.2229 -0.0094
14846TIP3    H165953   2.609   4.574  11.938  1.2055 -0.6858 -0.1075
14846TIP3    H265954   2.681   4.533  11.812 -0.7040 -0.5735 -1.2774
14847TIP3   OH265955   2.237   4.875   5.394  0.0165  0.2140 -0.2517
14847TIP3    H165956   2.312   4.918   5.352 -1.2577  3.0593  0.0857
14847TIP3    H265957   2.243   4.901   5.486 -0.3045 -1.2195  0.1967
14848TIP3   OH265958   2.356   3.185   3.796 -0.1294 -0.1955  0.3990
14848TIP3    H165959   2.397   3.264   3.831 -0.3992 -0.4433  1.2964
14848TIP3    H265960   2.415   3.156   3.727 -0.0113  0.7695  0.0798
14849TIP3   OH265961   3.815   5.264  12.735  0.5363  0.3249 -0.1228
14849TIP3    H165962   3.734   5.252  12.685 -0.5721 -4.2553  2.1849
14849TIP3    H265963   3.880   5.211  12.690  0.7926 -0.0887  0.7049
14850TIP3   OH265964   4.271   2.687   4.050  0.1960 -0.0769  0.1485
14850TIP3    H165965   4.306   2.763   4.096 -0.2463  1.8219 -2.4508
14850TIP3    H265966   4.176   2.695   4.059  0.1250  0.0309 -0.6169
14851TIP3   OH265967   3.874   2.714  15.430 -0.6507  0.0507  0.4575
14851TIP3    H165968   3.954   2.752  15.466 -0.4122 -0.8629  0.9053
14851TIP3    H265969   3.897   2.692  15.340 -0.6976  0.6648  0.2890
14852TIP3   OH265970   6.246   2.694   1.577 -0.1570 -0.2337 -0.1824
14852TIP3    H165971   6.225   2.612   1.622  0.3276 -0.1703  0.1638
14852TIP3    H265972   6.216   2.762   1.637  2.1684 -0.1033  0.9612
14853TIP3   OH265973   6.433   5.323  15.728 -0.4991 -0.2443  0.0476
14853TIP3    H165974   6.488   5.398  15.749 -0.8158  0.1282 -0.4447
14853TIP3    H265975   6.415   5.282  15.812  0.5116 -0.3600  0.2227
14854TIP3   OH265976   5.690   1.796  11.903  0.0120 -0.1621  0.7590
14854TIP3    H165977   5.615   1.763  11.953 -0.1458  0.1493  0.7362
14854TIP3    H265978   5.654   1.811  11.815  0.4320 -1.2516  0.3959
14855TIP3   OH265979   5.622   5.969   6.026 -0.0650  0.1704  0.0397
14855TIP3    H165980   5.620   5.928   5.939  0.9330  1.5816 -0.6805
14855TIP3    H265981   5.531   5.967   6.055 -0.2424 -1.3452 -0.5284
14856TIP3   OH265982   4.961   2.535  14.012  0.3135  0.0355  0.3161
14856TIP3    H165983   4.913   2.535  13.930  1.3629 -0.5500 -0.3215
14856TIP3    H265984   4.907   2.586  14.072 -0.6450  0.1515 -0.6273
14857TIP3   OH265985   5.290   5.903  12.371  0.4770  0.3792  0.3304
14857TIP3    H165986   5.326   5.876  12.286  1.6898 -0.4043  1.0579
14857TIP3    H265987   5.214   5.847  12.383 -0.4929  1.3899 -0.7993
14858TIP3   OH265988   3.665   2.452   4.191  0.0729 -0.3808  0.0862
14858TIP3    H165989   3.672   2.391   4.117 -0.9600 -0.9240  0.4247
14858TIP3    H265990   3.576   2.440   4.224  0.2487  0.4641  0.9037
14859TIP3   OH265991   1.714   4.120   3.734  0.1291  0.5258  0.7867
14859TIP3    H165992   1.656   4.167   3.675  2.2853  2.3946  0.0361
14859TIP3    H265993   1.712   4.029   3.702 -1.6398  0.7308  0.2424
14860TIP3   OH265994   1.389   2.125  16.104  0.1998  0.0389  0.4841
14860TIP3    H165995   1.442   2.151  16.179 -0.1526  0.8558  0.4536
14860TIP3    H265996   1.299   2.149  16.127  0.2168  1.2949 -0.6075
14861TIP3   OH265997   2.635   1.624  12.334 -0.0686 -0.1796  0.1775
14861TIP3    H165998   2.681   1.646  12.416  0.5257  0.1394 -0.2299
14861TIP3    H265999   2.637   1.705  12.283  2.0281 -1.0418 -1.2976
14862TIP3   OH266000   3.732   1.847  14.166  0.1416  0.3168 -0.3282
14862TIP3    H166001   3.651   1.797  14.153  1.0514 -1.3761  0.2048
14862TIP3    H266002   3.778   1.839  14.083  0.5729 -0.2917 -0.0365
14863TIP3   OH266003   1.338   0.807   6.028 -0.2329 -0.0294 -0.0603
14863TIP3    H166004   1.278   0.868   5.984 -2.9430 -1.7463  1.0271
14863TIP3    H266005   1.326   0.824   6.121  2.2664  0.6536  0.2040
14864TIP3   OH266006   4.474   2.980  13.760  0.1454 -0.3082 -0.8398
14864TIP3    H166007   4.471   3.057  13.817 -1.2302  0.1932 -1.5345
14864TIP3    H266008   4.553   2.993  13.707  1.6283 -0.9374  1.0794
14865TIP3   OH266009   6.549   1.812   2.404 -0.2333 -0.3861 -0.1853
14865TIP3    H166010   6.498   1.880   2.359 -0.2274  1.0699  1.8681
14865TIP3    H266011   6.505   1.801   2.488  0.6355 -1.9116  0.1132
14866TIP3   OH266012   1.515   1.917   5.842  0.4641 -0.3094 -0.5412
14866TIP3    H166013   1.560   1.853   5.896  0.3959  0.7769  0.8799
14866TIP3    H266014   1.445   1.868   5.799 -0.5433 -0.9591  1.6723
14867TIP3   OH266015   0.704   1.014   4.698  0.4843  0.6789 -0.0004
14867TIP3    H166016   0.631   1.073   4.717  0.9509  0.5431  2.6504
14867TIP3    H266017   0.746   1.001   4.783  1.0774 -2.5889 -0.6762
14868TIP3   OH266018   4.521   4.004   6.350 -0.4084  0.3668 -0.0928
14868TIP3    H166019   4.610   3.998   6.385 -0.0370  1.0897 -0.8800
14868TIP3    H266020   4.496   4.096   6.363 -0.5417  0.4758 -1.0523
14869TIP3   OH266021   6.690   5.280  11.920 -0.3323  0.4079  0.8479
14869TIP3    H166022   6.701   5.257  11.828  0.0935  2.3710  0.3617
14869TIP3    H266023   6.777   5.308  11.948 -0.2617 -0.9571  2.1290
14870TIP3   OH266024   6.484   2.539   2.211 -0.6611 -0.1447  0.4299
14870TIP3    H166025   6.509   2.562   2.121  3.5563 -0.3179  1.3441
14870TIP3    H266026   6.474   2.623   2.255 -0.6924 -0.0567  0.2576
14871TIP3   OH266027   3.973   2.442  13.138 -1.1403  0.4413 -0.8046
14871TIP3    H166028   3.978   2.456  13.044 -3.1971 -1.6321 -1.3044
14871TIP3    H266029   4.019   2.360  13.153 -1.4260  0.3984 -0.1029
14872TIP3   OH266030   2.837   3.103   4.937  0.3726 -0.1247  0.5168
14872TIP3    H166031   2.880   3.156   5.004 -1.2640  1.5947  0.2876
14872TIP3    H266032   2.781   3.044   4.986  0.4553 -0.0381  0.7191
14873TIP3   OH266033   5.368   3.114   2.207  0.4068  0.2111 -0.9663
14873TIP3    H166034   5.424   3.188   2.184 -2.0175  1.7077 -2.5559
14873TIP3    H266035   5.352   3.070   2.123  0.5517 -1.2188 -0.2704
14874TIP3   OH266036   6.587   4.197   1.297 -0.7959 -0.6237  0.3913
14874TIP3    H166037   6.619   4.251   1.370  0.7997  0.9959 -1.4029
14874TIP3    H266038   6.492   4.200   1.306 -0.7421  1.8028  0.9114
14875TIP3   OH266039   6.646   3.690  13.821  0.2283  0.1168  0.2704
14875TIP3    H166040   6.701   3.631  13.873 -1.0133 -2.3856 -1.0803
14875TIP3    H266041   6.588   3.731  13.885  1.2704  0.0883  1.2769
14876TIP3   OH266042   0.107   5.110  16.647 -0.3411  0.2074  0.5626
14876TIP3    H166043   0.201   5.129  16.650 -0.1871 -0.5617  0.7472
14876TIP3    H266044   0.069   5.187  16.604  0.4378  0.2582 -0.0565
14877TIP3   OH266045   4.107   1.521   0.031  0.1927 -0.1404 -0.1105
14877TIP3    H166046   4.024   1.523   0.078  1.1085  0.5150  1.5373
14877TIP3    H266047   4.118   1.610  -0.003 -0.4761 -0.6115 -1.6682
14878TIP3   OH266048   5.069   0.159  15.347 -0.4799 -0.4322  0.2520
14878TIP3    H166049   5.041   0.085  15.400 -0.6381  0.2270  1.1050
14878TIP3    H266050   4.991   0.213  15.338 -0.0982  0.1814  0.5645
14879TIP3   OH266051   0.059   0.396  15.965 -0.1105  0.4355  0.3083
14879TIP3    H166052   0.024   0.331  16.025 -1.6145  0.6321 -0.2926
14879TIP3    H266053   0.076   0.473  16.020  2.5428 -0.6769  1.1843
14880TIP3   OH266054   0.834   1.490   0.803 -0.2263 -0.0929 -0.0628
14880TIP3    H166055   0.740   1.493   0.820  0.0878  0.2712  1.7876
14880TIP3    H266056   0.841   1.449   0.717 -2.0891  0.3312 -0.4744
14881TIP3   OH266057   6.447   6.203  12.039 -0.1100  0.2028  0.6888
14881TIP3    H166058   6.499   6.257  11.980 -2.2192 -0.6719 -2.2200
14881TIP3    H266059   6.502   6.128  12.059  0.5437  0.3740 -0.4373
14882TIP3   OH266060   6.407   5.113  17.018 -0.7476 -0.1924 -0.1419
14882TIP3    H166061   6.458   5.112  17.099 -1.7079 -2.0577  0.4803
14882TIP3    H266062   6.390   5.021  16.998 -0.5223  0.2114 -2.5106
14883TIP3   OH266063   4.033   5.113   6.106 -0.1178  0.0020 -0.2535
14883TIP3    H166064   4.069   5.103   6.194  0.5094  1.3924 -0.3307
14883TIP3    H266065   4.092   5.062   6.050  0.1083 -0.0053 -0.0104
14884TIP3   OH266066   3.460   3.381   0.107 -0.1297 -0.0627  0.0663
14884TIP3    H166067   3.547   3.352   0.080  1.1721  2.0294  1.6248
14884TIP3    H266068   3.441   3.328   0.185 -0.6002 -1.0115 -0.6770
14885TIP3   OH266069   2.691   0.633   0.199  0.4438  0.4181 -0.1658
14885TIP3    H166070   2.729   0.594   0.278 -0.1456 -1.8092 -0.9421
14885TIP3    H266071   2.766   0.656   0.145  0.7960 -0.0853  0.1065
14886TIP3   OH266072   2.231   1.742   5.603  0.6974 -0.1667  0.6353
14886TIP3    H166073   2.283   1.777   5.675  0.6380  1.0402  0.1204
14886TIP3    H266074   2.142   1.737   5.638  0.7488  0.0021  0.7937
14887TIP3   OH266075   0.119   4.407  15.955  0.2718 -0.1862  0.2494
14887TIP3    H166076   0.191   4.465  15.932  0.6279 -0.5645  0.3922
14887TIP3    H266077   0.125   4.397  16.050  1.9734 -2.6839 -0.0345
14888TIP3   OH266078   4.103   2.564  15.938 -0.0731 -0.0959 -0.3275
14888TIP3    H166079   4.024   2.512  15.956  0.4958 -1.3466 -1.2774
14888TIP3    H266080   4.081   2.652  15.967 -1.6296 -0.5417 -0.0658
14889TIP3   OH266081   2.736   6.051   5.983  0.6367  0.4190 -0.5098
14889TIP3    H166082   2.821   6.015   6.009  0.0340 -1.0292 -0.4218
14889TIP3    H266083   2.706   6.099   6.060  1.7947  1.8172 -0.8841
14890TIP3   OH266084   4.616   6.258  12.934 -0.4011  0.2682  0.6833
14890TIP3    H166085   4.537   6.267  12.987 -0.0640  0.6666  1.1272
14890TIP3    H266086   4.587   6.210  12.856 -1.0119  0.1390  0.9809
14891TIP3   OH266087   0.887   6.211   0.351 -0.7435  0.3347 -0.3907
14891TIP3    H166088   0.928   6.296   0.369 -0.9574  0.1442  1.0358
14891TIP3    H266089   0.871   6.172   0.437 -1.0034 -0.9937 -1.0108
14892TIP3   OH266090   2.133   0.310  14.857  0.6130  0.7695  0.3063
14892TIP3    H166091   2.095   0.255  14.926  1.2811  0.4046  0.3992
14892TIP3    H266092   2.226   0.316  14.880  0.8829  0.4904 -0.6578
14893TIP3   OH266093   0.692   0.064   5.190 -0.1296  0.8014 -0.0952
14893TIP3    H166094   0.758   0.073   5.122 -0.4295 -1.3375 -0.7187
14893TIP3    H266095   0.631   0.137   5.175  1.7732  2.5443  0.2187
14894TIP3   OH266096   3.594   5.712  10.381 -0.2137  0.2225 -0.0421
14894TIP3    H166097   3.641   5.650  10.325  0.5375  0.5279  0.2439
14894TIP3    H266098   3.661   5.747  10.440 -0.9944 -0.1731  1.1307
14895TIP3   OH266099   1.894   6.471   5.452 -0.1571 -0.2541 -0.4499
14895TIP3    H166100   1.948   6.504   5.381 -0.9668  2.0511 -0.0841
14895TIP3    H266101   1.923   6.519   5.529 -0.1049 -1.8324  0.5648
14896TIP3   OH266102   0.551   3.851  14.605  0.2454  0.0829 -0.2340
14896TIP3    H166103   0.512   3.765  14.589  0.7570 -0.2692  0.3600
14896TIP3    H266104   0.511   3.908  14.540 -0.3524 -0.5336 -0.4179
14897TIP3   OH266105   0.969   6.467  12.190 -0.1833  0.3229 -0.2752
14897TIP3    H166106   1.063   6.474  12.204 -0.4277  0.1123  1.7825
14897TIP3    H266107   0.958   6.388  12.138  0.7695  0.3272 -0.4901
14898TIP3   OH266108   2.113   6.422  15.358  0.5432 -0.3478 -0.0308
14898TIP3    H166109   2.173   6.354  15.386 -0.3360 -0.3961  1.8752
14898TIP3    H266110   2.116   6.488  15.427 -0.9473  0.0482 -0.2886
14899TIP3   OH266111   5.906   6.404   2.659  0.8324  0.3039  0.3430
14899TIP3    H166112   5.954   6.322   2.671  0.6252 -0.0103 -0.8646
14899TIP3    H266113   5.814   6.379   2.669  0.7954  0.4916  0.4715
14900TIP3   OH266114   0.478   3.511  16.589 -0.4152  1.0241 -0.2874
14900TIP3    H166115   0.549   3.567  16.558  0.2890  1.2982  1.6819
14900TIP3    H266116   0.491   3.428  16.543  2.0183  0.6364  0.9422
14901TIP3   OH266117   0.170   1.997   4.813  0.0528  0.3956 -0.0453
14901TIP3    H166118   0.117   2.048   4.875  1.3126  3.2625 -1.1791
14901TIP3    H266119   0.171   2.050   4.733  1.1721 -1.6263 -1.4511
14902TIP3   OH266120   4.471   6.531  15.957 -0.1804  0.2178 -0.1270
14902TIP3    H166121   4.393   6.500  16.002  0.0892  0.2723  0.3798
14902TIP3    H266122   4.440   6.606  15.905 -0.5347  0.0119 -0.2167
14903TIP3   OH266123   3.450   4.547   4.481 -0.1850  0.1919 -0.0677
14903TIP3    H166124   3.419   4.471   4.530 -0.5952 -0.8572 -1.8582
14903TIP3    H266125   3.376   4.608   4.482  0.3821  0.9547  1.9706
14904TIP3   OH266126   4.812   3.100   6.234 -1.0596  0.1926  0.1516
14904TIP3    H166127   4.743   3.059   6.286 -0.7572  2.0609  2.1507
14904TIP3    H266128   4.766   3.140   6.160 -2.1858  1.4104  1.4536
14905TIP3   OH266129   2.195   2.473   3.018 -0.6535  0.1489 -0.1417
14905TIP3    H166130   2.284   2.463   3.053 -0.8340  2.7521  1.2637
14905TIP3    H266131   2.138   2.456   3.093 -1.3780 -1.0547 -0.9277
14906TIP3   OH266132   2.250   0.214   3.617 -0.2455 -0.5826 -0.1528
14906TIP3    H166133   2.243   0.208   3.522 -0.5529 -0.8293 -0.1158
14906TIP3    H266134   2.304   0.292   3.633 -0.9000 -0.0498 -0.5063
14907TIP3   OH266135   6.353   5.261  16.082  0.4622  0.4394  0.2392
14907TIP3    H166136   6.344   5.355  16.095  1.9972  0.6599 -0.1365
14907TIP3    H266137   6.304   5.222  16.154  0.7196  1.5371  1.0279
14908TIP3   OH266138   2.356   4.029   2.913  0.3538  0.1314 -0.0979
14908TIP3    H166139   2.318   4.000   2.996  1.8858  1.8714  1.3182
14908TIP3    H266140   2.447   4.000   2.918  1.0128  2.0542 -0.1711
14909TIP3   OH266141   5.528   4.884   1.861 -0.1342 -0.2217 -0.1556
14909TIP3    H166142   5.557   4.807   1.909  1.2853 -0.1838 -0.9087
14909TIP3    H266143   5.432   4.877   1.860 -0.0811 -1.3195  0.8329
14910TIP3   OH266144   6.013   2.546   1.463 -0.1265  0.0578  0.3460
14910TIP3    H166145   6.012   2.481   1.393 -1.6119  0.2361  0.1834
14910TIP3    H266146   6.077   2.611   1.433 -1.3790  0.6009 -1.3231
14911TIP3   OH266147   5.714   4.066  11.859  0.2537  0.1085  0.3992
14911TIP3    H166148   5.692   3.974  11.849 -0.5896  0.3221  0.2083
14911TIP3    H266149   5.793   4.078  11.805  0.1445 -0.4127  0.1194
14912TIP3   OH266150   0.373   0.309   4.160  0.5025 -0.7723  0.5845
14912TIP3    H166151   0.456   0.313   4.113  0.3180  0.2830  0.3180
14912TIP3    H266152   0.386   0.364   4.238 -0.0047 -0.4254  0.4308
14913TIP3   OH266153   5.185   0.796  12.052  0.0396 -0.0274 -0.2097
14913TIP3    H166154   5.096   0.763  12.064  0.2588 -1.1648 -1.4391
14913TIP3    H266155   5.215   0.755  11.970  2.0299 -0.4456  0.6608
14914TIP3   OH266156   3.980   6.402  15.509 -0.1983 -0.0012 -0.1459
14914TIP3    H166157   4.031   6.358  15.441 -1.6904 -2.0742 -0.0234
14914TIP3    H266158   3.918   6.457  15.460 -2.3108 -2.6351 -0.6994
14915TIP3   OH266159   5.731   3.773  11.545  0.1750  0.3982 -0.5215
14915TIP3    H166160   5.663   3.732  11.598 -0.3602  1.7679 -0.1054
14915TIP3    H266161   5.690   3.853  11.511  1.3833  0.9355 -0.7654
14916TIP3   OH266162   4.187   6.330   4.417 -0.2770  0.1134 -0.2198
14916TIP3    H166163   4.116   6.387   4.445 -1.6852 -2.0069  0.7814
14916TIP3    H266164   4.212   6.363   4.330 -2.5265  0.9095 -0.6246
14917TIP3   OH266165   2.281   5.592  13.242 -0.3393  0.2381  0.0336
14917TIP3    H166166   2.204   5.539  13.219 -0.8009  1.4293 -1.3299
14917TIP3    H266167   2.354   5.550  13.197 -0.5976  0.3687 -0.5226
14918TIP3   OH266168   4.055   6.819   3.931 -0.1942 -0.3473  0.3927
14918TIP3    H166169   4.070   6.748   3.994  0.3704  0.6904  1.4782
14918TIP3    H266170   4.084   6.898   3.978  1.0486  0.3701 -1.4831
14919TIP3   OH266171   2.624   6.739   4.555  0.0654 -0.1076  0.8649
14919TIP3    H166172   2.555   6.717   4.492  1.1856  1.0565 -0.8447
14919TIP3    H266173   2.600   6.689   4.634 -2.7276  0.2649  0.3754
14920TIP3   OH266174   5.026   2.958   6.455  0.6348 -0.5614  0.1150
14920TIP3    H166175   5.102   2.955   6.513  1.8881  1.3047 -1.3021
14920TIP3    H266176   5.038   2.883   6.397  1.0968 -0.5921  0.2431
14921TIP3   OH266177   0.480   0.216   2.287 -0.5514  0.3070 -0.4725
14921TIP3    H166178   0.405   0.164   2.258 -0.8379  1.1083 -1.2067
14921TIP3    H266179   0.555   0.157   2.277 -1.0228 -0.3780 -0.0851
14922TIP3   OH266180   2.680   1.281  16.021 -0.4611 -0.1593  0.2859
14922TIP3    H166181   2.652   1.235  16.100  1.8492  0.8298  1.7864
14922TIP3    H266182   2.730   1.216  15.971  2.4096  0.3866  2.1817
14923TIP3   OH266183   2.152   2.293   5.409  0.2481  0.4987  0.3800
14923TIP3    H166184   2.090   2.360   5.436  1.0288  1.1346  0.6457
14923TIP3    H266185   2.187   2.324   5.326  1.0230  0.7104  0.7762
14924TIP3   OH266186   6.309   2.423   3.240  0.1311 -0.5822  0.2892
14924TIP3    H166187   6.400   2.411   3.268  0.7671  1.0570 -0.9486
14924TIP3    H266188   6.312   2.419   3.145 -1.1934 -1.0020  0.2470
14925TIP3   OH266189   5.344   5.013  14.353  0.2807 -0.0064 -0.1126
14925TIP3    H166190   5.277   5.053  14.297  1.3656  0.0548 -1.4214
14925TIP3    H266191   5.299   4.995  14.435 -1.4597 -0.3894 -1.1059
14926TIP3   OH266192   2.682   3.738   5.216 -0.5651 -0.2430  0.0370
14926TIP3    H166193   2.708   3.799   5.285  1.1968 -0.3017 -0.5370
14926TIP3    H266194   2.694   3.786   5.135 -1.4136 -0.5984 -0.3148
14927TIP3   OH266195   3.919   5.024   3.539 -0.0635  0.1568 -0.0968
14927TIP3    H166196   3.949   5.114   3.526 -0.4071  0.2802 -0.0494
14927TIP3    H266197   3.970   4.992   3.613  0.0090  0.3383 -0.0679
14928TIP3   OH266198   6.314   4.542  12.885 -0.4265 -0.2698 -0.2399
14928TIP3    H166199   6.231   4.568  12.845 -1.4316  0.5919  2.2567
14928TIP3    H266200   6.379   4.559  12.817 -1.9738  1.5727 -1.3603
14929TIP3   OH266201   0.638   1.319  14.917  0.9520 -0.7321 -0.5439
14929TIP3    H166202   0.584   1.336  14.994  0.4233 -1.8142 -0.6490
14929TIP3    H266203   0.690   1.242  14.942  2.4159  0.2559 -0.4655
14930TIP3   OH266204   5.116   3.925   2.383 -0.7346  0.3441 -0.0605
14930TIP3    H166205   5.055   3.876   2.438 -1.1122 -1.0417 -1.6075
14930TIP3    H266206   5.060   3.988   2.338 -0.8872 -0.2448 -0.7212
14931TIP3   OH266207   5.354   6.033  12.618  0.1850 -0.6164 -0.4016
14931TIP3    H166208   5.434   6.080  12.595  0.3008  0.0439  1.2218
14931TIP3    H266209   5.327   5.990  12.537  0.8443  1.1008 -1.5812
14932TIP3   OH266210   1.521   2.365   5.361  0.4578 -0.4485  0.5476
14932TIP3    H166211   1.565   2.441   5.324 -0.5029 -0.3638 -0.4776
14932TIP3    H266212   1.452   2.344   5.298  0.0551 -1.5466  1.3167
14933TIP3   OH266213   0.911   3.434  14.947 -0.3464 -0.6962  0.6105
14933TIP3    H166214   0.897   3.443  15.041  0.4722 -1.1543  0.7838
14933TIP3    H266215   0.884   3.345  14.927 -3.0484  0.1919 -0.0911
14934TIP3   OH266216   2.459   3.811  13.299 -0.3527  0.3640 -0.4311
14934TIP3    H166217   2.474   3.903  13.276 -0.1473  0.6021  0.6125
14934TIP3    H266218   2.522   3.762  13.247 -0.3170  0.8319 -0.8331
14935TIP3   OH266219   1.223   2.937   4.761 -0.2107 -0.1310  0.1690
14935TIP3    H166220   1.263   2.979   4.837 -1.0935 -1.0189  1.1687
14935TIP3    H266221   1.172   2.865   4.798 -0.7264 -0.5391 -1.2692
14936TIP3   OH266222   4.660   0.805   2.284 -0.4015 -0.3182  0.1503
14936TIP3    H166223   4.707   0.731   2.321  0.9741 -1.2954 -3.1902
14936TIP3    H266224   4.583   0.766   2.243 -0.7234  0.4086  0.0445
14937TIP3   OH266225   5.294   5.465  15.926 -0.3620 -0.1355 -0.7632
14937TIP3    H166226   5.318   5.543  15.875  0.0331  0.3930  0.2099
14937TIP3    H266227   5.298   5.493  16.017  0.1493 -1.3899 -0.3697
14938TIP3   OH266228   2.408   3.493   3.098 -0.0589  0.5521 -0.5783
14938TIP3    H166229   2.491   3.513   3.142  0.4610  1.1435 -1.8049
14938TIP3    H266230   2.363   3.435   3.159 -0.0247  2.5141  1.4435
14939TIP3   OH266231   0.275   4.275  12.833 -0.0710 -0.4399 -0.0243
14939TIP3    H166232   0.225   4.217  12.777 -0.3300 -0.0274 -0.2193
14939TIP3    H266233   0.316   4.216  12.897 -0.1203 -0.8638 -0.3746
14940TIP3   OH266234   2.438   1.061   2.816  0.2718  0.4206  0.3988
14940TIP3    H166235   2.532   1.050   2.833  0.3114  3.1582  2.6114
14940TIP3    H266236   2.433   1.131   2.751 -0.2367  1.5790  1.6568
14941TIP3   OH266237   0.749   5.504   3.650 -0.5438 -0.6368 -0.3837
14941TIP3    H166238   0.736   5.576   3.712  0.7743 -0.7913  0.1079
14941TIP3    H266239   0.682   5.439   3.674 -1.2515  0.0932 -0.3460
14942TIP3   OH266240   3.837   6.198  12.626  0.2741 -0.8988  0.0950
14942TIP3    H166241   3.920   6.156  12.605 -0.0141 -1.7481  0.5716
14942TIP3    H266242   3.832   6.193  12.722 -0.1067 -0.4190  0.1043
14943TIP3   OH266243   4.836   4.874  16.362  0.0959 -0.0811 -0.3697
14943TIP3    H166244   4.871   4.786  16.375  1.5285  0.4621 -0.2884
14943TIP3    H266245   4.903   4.918  16.309 -0.0571  1.2811  0.5272
14944TIP3   OH266246   4.462   3.317  11.620 -0.4614 -0.0554  0.1867
14944TIP3    H166247   4.532   3.252  11.609 -1.2094 -0.6972 -0.8404
14944TIP3    H266248   4.509   3.401  11.620  0.3720 -0.5019  0.1022
14945TIP3   OH266249   2.948   1.995  16.188 -0.3415 -0.4764 -0.1801
14945TIP3    H166250   3.018   2.004  16.254  0.0708 -0.6658 -0.5859
14945TIP3    H266251   2.874   2.044  16.225  0.3601  0.6750 -0.2556
14946TIP3   OH266252   0.591   4.119  13.802  0.0985  0.7311  0.6064
14946TIP3    H166253   0.618   4.043  13.854  1.4651  1.1592  0.5521
14946TIP3    H266254   0.640   4.192  13.840  1.9976  0.8922 -1.9103
14947TIP3   OH266255   5.776   6.512   5.691 -0.1951 -0.1671 -0.6481
14947TIP3    H166256   5.746   6.598   5.721  0.5067  1.2805 -3.6525
14947TIP3    H266257   5.731   6.499   5.607  1.0384 -1.9254 -1.0977
14948TIP3   OH266258   4.483   0.923  16.589  0.3906 -0.2185  0.1604
14948TIP3    H166259   4.407   0.963  16.631  0.4950  1.1341 -0.8617
14948TIP3    H266260   4.446   0.849  16.539 -0.3103  0.5372 -0.4773
14949TIP3   OH266261   5.975   5.977   5.852 -0.1328  0.5331  0.1799
14949TIP3    H166262   5.930   5.976   5.937 -1.0387  2.0023 -0.2416
14949TIP3    H266263   6.028   6.057   5.854  0.2895  0.2734 -0.4190
14950TIP3   OH266264   3.710   1.240  15.755  0.2409 -0.1861 -0.2727
14950TIP3    H166265   3.714   1.173  15.823 -0.2894  0.4300  0.3935
14950TIP3    H266266   3.709   1.192  15.673 -0.2945 -1.0031  0.1984
14951TIP3   OH266267   0.153   0.219   5.173 -0.4257  0.4182 -0.0790
14951TIP3    H166268   0.170   0.139   5.224  1.9581  1.0928  0.3093
14951TIP3    H266269   0.181   0.290   5.230  0.7613  1.3047 -1.6856
14952TIP3   OH266270   6.365   1.474   2.210 -0.4933  0.0785 -0.3425
14952TIP3    H166271   6.448   1.485   2.162 -0.9338 -0.2388 -1.2086
14952TIP3    H266272   6.383   1.509   2.297  0.9165 -1.0264 -0.1375
14953TIP3   OH266273   2.534   2.825   2.947  0.6647 -0.3968 -0.7565
14953TIP3    H166274   2.541   2.913   2.910  0.0687 -0.2346 -0.4824
14953TIP3    H266275   2.500   2.771   2.876  0.2256 -0.2353 -0.6676
14954TIP3   OH266276   3.172   1.991  11.487  0.3034 -0.3291 -1.3825
14954TIP3    H166277   3.257   2.000  11.531 -0.9600  0.0798  1.1603
14954TIP3    H266278   3.174   1.902  11.450  1.2945 -0.9113 -0.0249
14955TIP3   OH266279   3.249   1.966  13.289  0.5693  0.0919  0.0446
14955TIP3    H166280   3.327   1.916  13.315  0.6094 -0.0962 -0.4332
14955TIP3    H266281   3.199   1.905  13.235 -0.0087  0.1475  0.5104
14956TIP3   OH266282   4.987   5.320  14.434 -0.0559  0.2998  0.4940
14956TIP3    H166283   4.984   5.413  14.456 -0.0645  0.8526 -1.6199
14956TIP3    H266284   5.069   5.289  14.474  2.0508  2.2013 -1.9945
14957TIP3   OH266285   1.464   6.141  15.306  0.3512  0.4543  0.5018
14957TIP3    H166286   1.378   6.179  15.288  0.0766 -0.6037 -0.5664
14957TIP3    H266287   1.455   6.103  15.394 -0.1923  0.5826  0.5061
14958TIP3   OH266288   3.113   4.783  15.336 -0.6424  0.0653  0.6267
14958TIP3    H166289   3.196   4.796  15.382 -0.6491  1.7595  0.2115
14958TIP3    H266290   3.046   4.806  15.399 -0.6214  4.0285 -0.5545
14959TIP3   OH266291   5.777   5.323   3.601 -0.1753 -0.9398 -0.4125
14959TIP3    H166292   5.700   5.268   3.584 -0.3792 -0.5671 -0.7101
14959TIP3    H266293   5.851   5.271   3.572 -0.2938 -1.4011  0.0963
14960TIP3   OH266294   4.882   4.455  13.279  0.0864 -0.2054 -0.9858
14960TIP3    H166295   4.881   4.427  13.188 -0.2638  0.4278 -1.1863
14960TIP3    H266296   4.946   4.526  13.282  1.1383 -1.1447 -0.4378
14961TIP3   OH266297   4.801   3.265  15.204 -0.1023 -0.2414  0.0355
14961TIP3    H166298   4.800   3.174  15.233  1.1751 -0.6091 -0.9499
14961TIP3    H266299   4.831   3.261  15.113  3.2543  1.3229  0.8845
14962TIP3   OH266300   0.948   4.494   0.184 -0.4786 -0.0007  0.5420
14962TIP3    H166301   0.878   4.555   0.163 -1.3630 -0.9887  0.5428
14962TIP3    H266302   0.906   4.408   0.186  0.1485 -0.3362  3.3362
14963TIP3   OH266303   1.332   5.824  15.777 -0.0193 -0.0980  0.7243
14963TIP3    H166304   1.237   5.821  15.762 -0.0750  1.7281  0.4254
14963TIP3    H266305   1.346   5.910  15.816  1.6702  0.1426 -0.3540
14964TIP3   OH266306   5.493   0.068  11.449 -0.3444  0.5394  0.3207
14964TIP3    H166307   5.484  -0.024  11.425  0.5493  0.7275 -0.7845
14964TIP3    H266308   5.435   0.078  11.525 -0.3176 -0.9644  0.5719
14965TIP3   OH266309   1.294   1.094  16.234  0.6537 -0.3959 -0.0396
14965TIP3    H166310   1.308   1.057  16.147  0.4905 -0.7407  0.0769
14965TIP3    H266311   1.241   1.028  16.279 -0.4768  0.4249 -0.1386
14966TIP3   OH266312   3.170   3.021  12.597 -0.1723 -0.3602  0.4168
14966TIP3    H166313   3.107   3.093  12.592  1.8548  1.4451 -0.5152
14966TIP3    H266314   3.117   2.944  12.619 -2.1717  1.7793  4.1422
14967TIP3   OH266315   3.611   2.573  13.727  0.1282  0.2185 -0.1826
14967TIP3    H166316   3.611   2.627  13.647 -0.0757 -1.1860 -1.1777
14967TIP3    H266317   3.693   2.596  13.771  0.6576  0.4420 -1.2323
14968TIP3   OH266318   0.786   3.556   0.702  0.1698  0.2327 -0.0164
14968TIP3    H166319   0.728   3.579   0.774  0.8914  2.6853 -0.1468
14968TIP3    H266320   0.858   3.508   0.743  0.0642  0.7207  0.7541
14969TIP3   OH266321   0.466   0.085  13.741  0.2690 -0.2667  0.2220
14969TIP3    H166322   0.540   0.077  13.801  0.6062  0.2549 -0.1099
14969TIP3    H266323   0.435   0.175  13.753  0.4474 -0.1031 -0.5003
14970TIP3   OH266324   1.717   4.442   4.805 -0.1808  0.1218  0.1724
14970TIP3    H166325   1.637   4.455   4.856 -0.3382  0.6108 -0.1930
14970TIP3    H266326   1.713   4.351   4.776 -0.5808  0.1296  0.2022
14971TIP3   OH266327   1.171   4.964  15.595  0.6766  0.3020 -0.4206
14971TIP3    H166328   1.137   5.053  15.607  0.0233 -0.0126  0.1472
14971TIP3    H266329   1.186   4.956  15.501  0.1332  0.7977 -0.5537
14972TIP3   OH266330   3.580   0.429   3.801 -0.5134 -0.1602 -0.2681
14972TIP3    H166331   3.558   0.338   3.821  0.1662  0.0241  1.4361
14972TIP3    H266332   3.585   0.472   3.886 -3.1669  2.0685 -1.0619
14973TIP3   OH266333   1.441   6.393   4.729 -0.5130  0.6067  0.1161
14973TIP3    H166334   1.418   6.445   4.805 -1.4662 -0.5352  0.6376
14973TIP3    H266335   1.510   6.334   4.760 -0.8083  0.2297  0.0650
14974TIP3   OH266336   5.313   2.663   1.112  0.5633  0.0769  0.5487
14974TIP3    H166337   5.373   2.728   1.076 -0.7949  0.7553 -0.5710
14974TIP3    H266338   5.369   2.586   1.129  1.9815  1.1318  0.8656
14975TIP3   OH266339   1.261   3.086  16.867 -0.1570  0.6326 -0.1882
14975TIP3    H166340   1.308   3.130  16.938 -1.6360  0.1099  1.1832
14975TIP3    H266341   1.172   3.120  16.872 -0.9971 -1.4299  0.0270
14976TIP3   OH266342   6.785   0.713  15.183  0.3185 -0.1114 -0.8760
14976TIP3    H166343   6.703   0.755  15.208  2.1895  2.1092  2.2821
14976TIP3    H266344   6.839   0.784  15.149  1.6765 -1.0740 -0.7922
14977TIP3   OH266345   5.769   1.320   2.529  0.1040 -0.0916 -0.0410
14977TIP3    H166346   5.727   1.336   2.445 -1.1484 -0.4291  0.5081
14977TIP3    H266347   5.701   1.337   2.594  0.8708 -0.4650  0.8803
14978TIP3   OH266348   6.754   4.412   3.552  0.5673  0.0362  0.6522
14978TIP3    H166349   6.828   4.415   3.491  1.6358 -0.3476  1.8996
14978TIP3    H266350   6.695   4.480   3.520  1.2780  0.1079 -0.5878
14979TIP3   OH266351   3.947   2.340  12.358 -0.3170 -0.4619 -0.0015
14979TIP3    H166352   3.968   2.418  12.409  0.1962 -0.4346 -0.2532
14979TIP3    H266353   4.027   2.321  12.309 -0.6464 -0.7766 -0.4210
14980TIP3   OH266354   5.974   1.833  15.151  0.0612 -0.2357  0.1104
14980TIP3    H166355   6.010   1.816  15.238  1.0494 -1.5413 -0.5143
14980TIP3    H266356   5.975   1.747  15.108  0.6365  0.5597 -1.5542
14981TIP3   OH266357   5.746   0.547  15.151 -0.1143  0.1195 -0.1769
14981TIP3    H166358   5.661   0.556  15.192 -0.1397  0.3361 -0.2796
14981TIP3    H266359   5.808   0.545  15.224 -0.2995 -1.2272 -0.0264
14982TIP3   OH266360   6.013   2.976   0.219 -0.2524  0.5894 -0.0169
14982TIP3    H166361   6.048   2.967   0.131 -1.2877  1.4119 -0.5285
14982TIP3    H266362   5.972   3.062   0.221  0.0337  0.7225  1.3747
14983TIP3   OH266363   0.429   6.211  15.854  0.1410  0.0269  0.1868
14983TIP3    H166364   0.404   6.127  15.894 -1.9241  0.8160  0.7135
14983TIP3    H266365   0.375   6.276  15.900 -0.1378  1.3296 -1.8588
14984TIP3   OH266366   2.010   1.658  15.033  0.0632  0.1297 -0.0594
14984TIP3    H166367   1.992   1.565  15.021 -0.8093  0.0948  1.2740
14984TIP3    H266368   2.056   1.684  14.954 -0.0814 -1.3351 -0.6570
14985TIP3   OH266369   2.200   2.048   4.407 -0.1656  0.0080  0.0939
14985TIP3    H166370   2.172   2.110   4.340 -0.2190  0.1156  0.2151
14985TIP3    H266371   2.181   1.962   4.369 -1.0819  0.0852  0.3555
14986TIP3   OH266372   4.859   5.681  16.763  0.2898  0.6207 -0.5261
14986TIP3    H166373   4.873   5.774  16.748 -1.5741  1.4789  2.2773
14986TIP3    H266374   4.772   5.675  16.803 -0.1305 -2.4596 -1.5870
14987TIP3   OH266375   6.461   2.296   5.525  0.6372  0.5660  0.3233
14987TIP3    H166376   6.470   2.242   5.447  0.8825  0.9596  0.0747
14987TIP3    H266377   6.532   2.266   5.583  0.6850  0.5276  0.2452
14988TIP3   OH266378   6.409   3.319   3.962  0.4211  0.2957  0.3161
14988TIP3    H166379   6.451   3.405   3.958  0.0178  0.6361  2.2758
14988TIP3    H266380   6.409   3.297   4.055 -0.9414 -1.0999  0.0261
14989TIP3   OH266381   2.810   4.872   1.847  0.2228 -0.1574 -0.2073
14989TIP3    H166382   2.764   4.892   1.929  0.0913  0.3209 -0.3927
14989TIP3    H266383   2.742   4.873   1.780  0.3918 -0.1665 -0.3802
14990TIP3   OH266384   6.286   5.930  11.286  1.0183 -0.5811  0.6807
14990TIP3    H166385   6.360   5.884  11.245  0.8504  1.4309 -2.1374
14990TIP3    H266386   6.319   6.019  11.302 -0.2178 -0.1871  1.1432
14991TIP3   OH266387   6.232   4.728   2.265 -0.2690 -0.9281 -0.0243
14991TIP3    H166388   6.268   4.677   2.193 -1.8300  0.7958 -2.1898
14991TIP3    H266389   6.138   4.733   2.246 -0.8088 -0.6955  2.3753
14992TIP3   OH266390   6.566   2.157  16.245  0.3640  0.5877 -0.5081
14992TIP3    H166391   6.608   2.078  16.279 -0.4231  0.6611  0.6565
14992TIP3    H266392   6.533   2.131  16.159  0.9520 -0.0643 -0.5486
14993TIP3   OH266393   5.990   1.128  14.211  0.2961 -0.2516  0.1494
14993TIP3    H166394   5.985   1.052  14.268 -2.5434 -0.3072 -0.0654
14993TIP3    H266395   5.989   1.203  14.270  2.7170 -0.2688  0.3390
14994TIP3   OH266396   1.544   0.084  13.384  0.2906 -0.0089  0.6026
14994TIP3    H166397   1.634   0.056  13.399  0.1003 -1.5417 -0.8288
14994TIP3    H266398   1.491   0.011  13.416 -0.3416 -0.0283 -0.4597
14995TIP3   OH266399   4.668   0.947  15.214 -0.0777  0.1866  0.5475
14995TIP3    H166400   4.730   1.014  15.185  0.1965  0.2478  1.2501
14995TIP3    H266401   4.617   0.990  15.282 -1.6986  0.5142 -0.8013
14996TIP3   OH266402   1.005   0.044  15.363 -0.3472 -0.3545  0.2647
14996TIP3    H166403   1.086   0.080  15.325 -0.7466 -1.5539 -1.8635
14996TIP3    H266404   1.034  -0.006  15.439  0.9797 -1.0600 -0.6707
14997TIP3   OH266405   3.847   4.698  13.453  0.0192  0.1232 -0.1892
14997TIP3    H166406   3.859   4.610  13.490  0.3533  0.1978 -0.1156
14997TIP3    H266407   3.812   4.682  13.366  0.0076 -0.0825 -0.1494
14998TIP3   OH266408   2.962   4.048  13.415 -0.0476 -0.0887 -0.4038
14998TIP3    H166409   2.867   4.039  13.417 -0.0499 -0.1260 -0.6748
14998TIP3    H266410   2.986   4.070  13.506 -0.3809  0.6150 -0.4794
14999TIP3   OH266411   4.910   0.509  15.428 -0.3107  0.2547 -0.0516
14999TIP3    H166412   4.882   0.587  15.379  1.5552  0.3040 -1.1514
14999TIP3    H266413   4.868   0.436  15.383 -1.5461  0.5517  0.5815
15000TIP3   OH266414   0.408   2.149  15.162  0.1402 -0.4483  0.1235
15000TIP3    H166415   0.359   2.078  15.203 -1.5729  0.9681  0.6170
15000TIP3    H266416   0.464   2.105  15.098  0.4037 -2.3864  1.5912
15001TIP3   OH266417   2.607   3.118   3.063 -0.4021  0.4207 -0.5639
15001TIP3    H166418   2.662   3.178   3.113  1.0584 -2.4928  1.6130
15001TIP3    H266419   2.665   3.084   2.995 -0.5344 -0.1481 -0.3969
15002TIP3   OH266420   2.366   5.816   3.128 -0.6199 -0.4487  0.2169
15002TIP3    H166421   2.358   5.731   3.171  2.5453 -0.7516  0.3996
15002TIP3    H266422   2.355   5.880   3.198 -0.8364 -0.7645  0.4765
15003TIP3   OH266423   0.181   1.528  12.839 -0.0265  0.1815 -0.0113
15003TIP3    H166424   0.234   1.450  12.824  0.4394  0.4770  0.0705
15003TIP3    H266425   0.115   1.500  12.902 -0.3756 -0.3654 -0.6127
15004TIP3   OH266426   2.304   1.078  16.095  0.1390  0.1022  0.1123
15004TIP3    H166427   2.292   1.083  16.190 -0.4729  0.9250  0.0009
15004TIP3    H266428   2.233   1.021  16.065  0.2403 -0.0350  0.1342
15005TIP3   OH266429   4.996   0.475  13.521  0.4082 -0.2787 -0.3999
15005TIP3    H166430   5.050   0.479  13.600 -0.7900  0.4989  0.4216
15005TIP3    H266431   4.933   0.547  13.532 -1.2567 -1.5993 -0.9610
15006TIP3   OH266432   4.180   1.427  10.949  0.2936  0.1028  0.2268
15006TIP3    H166433   4.235   1.457  10.876 -0.5087 -1.7271 -1.2413
15006TIP3    H266434   4.173   1.332  10.935 -1.2899 -0.0447  1.7328
15007TIP3   OH266435   4.229   3.563  15.589 -0.2552 -0.4198  0.5164
15007TIP3    H166436   4.159   3.565  15.524 -0.0121 -2.6158  0.1108
15007TIP3    H266437   4.254   3.654  15.601 -1.3200  0.1602 -1.3690
15008TIP3   OH266438   6.659   0.450  16.471 -0.3024 -0.9193 -0.4874
15008TIP3    H166439   6.628   0.487  16.554  0.9755 -2.2763  0.6526
15008TIP3    H266440   6.671   0.357  16.490  0.9785 -1.0715 -1.9064
15009TIP3   OH266441   0.439   0.352  12.946 -0.3816  0.5162 -0.7661
15009TIP3    H166442   0.352   0.391  12.955 -0.2659  0.5543  0.2485
15009TIP3    H266443   0.498   0.426  12.940 -0.4192  0.4910 -1.5817
15010TIP3   OH266444   4.685   1.293  12.331 -0.1544  0.2847 -0.6041
15010TIP3    H166445   4.781   1.301  12.328 -0.0591 -0.6053 -0.3334
15010TIP3    H266446   4.659   1.350  12.403  0.3637 -0.8472  0.5248
15011TIP3   OH266447   3.514   1.251  14.256 -0.0865  0.2449  0.2143
15011TIP3    H166448   3.480   1.303  14.329  0.1677  0.2976  0.2975
15011TIP3    H266449   3.498   1.160  14.281 -0.7265  0.2852 -0.0275
15012TIP3   OH266450   1.287   5.530  13.114 -0.1068  0.0939  0.0730
15012TIP3    H166451   1.259   5.520  13.205  0.0870  0.1182  0.1372
15012TIP3    H266452   1.252   5.615  13.087  0.1897  0.2781  0.2594
15013TIP3   OH266453   6.735   4.449   4.975  0.0058  1.0132  0.2336
15013TIP3    H166454   6.792   4.377   4.950  0.1608  0.7929  1.1916
15013TIP3    H266455   6.694   4.421   5.057 -0.9938  1.4378 -0.0997
15014TIP3   OH266456   3.071   1.397  13.280 -0.2632  0.1700  0.3005
15014TIP3    H166457   3.029   1.462  13.224  2.8107  1.1723 -1.1028
15014TIP3    H266458   3.072   1.437  13.367 -2.0605  0.1166  0.3756
15015TIP3   OH266459   3.485   0.129  13.829 -0.0953  0.2027 -0.2499
15015TIP3    H166460   3.489   0.166  13.917  0.6811  0.6186 -0.4491
15015TIP3    H266461   3.440   0.196  13.777 -1.0581 -0.2839 -0.0604
15016TIP3   OH266462   5.793   4.064   5.080 -0.4670 -0.2018 -0.7774
15016TIP3    H166463   5.875   4.112   5.095 -1.6454  1.3648  1.2965
15016TIP3    H266464   5.819   3.973   5.072  1.5245  0.3128 -0.6149
15017TIP3   OH266465   6.415   1.092   2.392  0.2369  0.2363 -0.1378
15017TIP3    H166466   6.414   1.167   2.452 -1.5345 -0.4794  0.8195
15017TIP3    H266467   6.370   1.023   2.441  0.4003 -0.9524 -1.6141
15018TIP3   OH266468   2.571   3.843  11.117  0.2258 -0.2887  0.3197
15018TIP3    H166469   2.556   3.803  11.032 -0.7128 -0.6919  0.6564
15018TIP3    H266470   2.484   3.872  11.145  0.2948 -1.2845  1.6840
15019TIP3   OH266471   3.380   0.359   1.028 -0.3957 -0.4063  0.2198
15019TIP3    H166472   3.396   0.335   1.119  1.3242  1.3603  0.4476
15019TIP3    H266473   3.454   0.322   0.980 -0.8204 -0.5629 -0.3176
15020TIP3   OH266474   5.284   1.395  13.645  0.4349 -0.1071 -0.3904
15020TIP3    H166475   5.340   1.363  13.574  0.1001 -1.7177  0.0413
15020TIP3    H266476   5.322   1.480  13.668  2.2514 -0.8018 -0.6358
15021TIP3   OH266477   0.291   2.633   3.528 -0.2698  0.0645 -0.1999
15021TIP3    H166478   0.353   2.690   3.483 -0.3551 -0.5057 -1.0525
15021TIP3    H266479   0.262   2.685   3.604  0.2858  0.8199 -0.4913
15022TIP3   OH266480   6.139   0.533  11.359  0.1509  0.0558 -0.2918
15022TIP3    H166481   6.181   0.586  11.292  0.9099  0.4318  0.4644
15022TIP3    H266482   6.177   0.563  11.441  2.2745 -3.0776  0.0587
15023TIP3   OH266483   4.649   6.143  12.403 -0.9580  0.4351  0.2904
15023TIP3    H166484   4.584   6.210  12.425 -1.1295  0.4140 -0.1407
15023TIP3    H266485   4.718   6.192  12.358 -1.1658  0.2960 -0.1825
15024TIP3   OH266486   0.914   5.615  15.730  0.6017 -0.4758  0.6111
15024TIP3    H166487   1.006   5.640  15.740  0.6002 -0.0270 -0.3591
15024TIP3    H266488   0.875   5.688  15.681 -0.6922  0.2256  2.5413
15025TIP3   OH266489   2.963   6.117  13.525  0.1625 -0.3083 -0.2955
15025TIP3    H166490   2.998   6.061  13.594 -2.1527 -0.5964  0.7411
15025TIP3    H266491   2.935   6.057  13.456 -1.1812 -0.3772  0.2809
15026TIP3   OH266492   6.359   2.348  16.346  0.0023 -0.3671 -0.3466
15026TIP3    H166493   6.366   2.439  16.318 -0.8523 -0.2059 -0.0675
15026TIP3    H266494   6.419   2.300  16.288  0.1017  0.3031 -0.8079
15027TIP3   OH266495   5.290   0.787  11.534  0.3327 -0.3497  0.1015
15027TIP3    H166496   5.235   0.861  11.509  0.5669 -0.3598 -0.4487
15027TIP3    H266497   5.276   0.722  11.465  1.2213 -0.2504 -0.1805
15028TIP3   OH266498   6.345   3.647   5.410 -1.3730 -0.7311  0.0607
15028TIP3    H166499   6.359   3.664   5.503 -0.2263  1.3398 -0.4490
15028TIP3    H266500   6.304   3.560   5.409 -1.7421 -0.6836  2.4955
15029TIP3   OH266501   4.023   5.207  15.018 -0.4409 -0.2938  0.7210
15029TIP3    H166502   4.087   5.135  15.016  1.1399  1.0187 -2.8525
15029TIP3    H266503   3.953   5.179  14.959 -0.5709  0.4627  0.5038
15030TIP3   OH266504   4.975   0.052   3.529 -0.2603  0.3289  0.1427
15030TIP3    H166505   4.959   0.146   3.526 -1.2700  0.1833  0.5403
15030TIP3    H266506   4.986   0.027   3.437  2.3386  1.1784  0.1535
15031TIP3   OH266507   4.305   4.976  12.250  0.5191 -0.2199  0.0666
15031TIP3    H166508   4.323   4.882  12.252  2.7737  0.1385 -0.6306
15031TIP3    H266509   4.276   4.992  12.160  2.4142  0.0554 -0.5467
15032TIP3   OH266510   1.626   3.668  13.320 -0.4021  0.9488 -0.5976
15032TIP3    H166511   1.544   3.630  13.288 -0.0324 -0.8057  0.3805
15032TIP3    H266512   1.691   3.644  13.253 -0.3617  0.7632 -0.4922
15033TIP3   OH266513   3.605   1.257  14.631  0.3637  0.1996  0.2811
15033TIP3    H166514   3.562   1.200  14.695  0.3673  0.8984  0.9187
15033TIP3    H266515   3.533   1.292  14.578  0.3579 -0.3469 -0.0847
15034TIP3   OH266516   3.121   4.119  11.420 -0.0056  0.0615 -0.6076
15034TIP3    H166517   3.104   4.131  11.326 -0.1444  1.9625 -0.3771
15034TIP3    H266518   3.214   4.099  11.425  0.1013  0.4073 -1.1309
15035TIP3   OH266519   2.808   4.742  13.146 -0.0877  0.1359 -0.3476
15035TIP3    H166520   2.770   4.654  13.144  0.5020 -0.1160 -1.3249
15035TIP3    H266521   2.896   4.730  13.110 -0.3280  1.2693 -1.3769
15036TIP3   OH266522   2.190   6.562   2.880  0.2959  0.2385 -0.1455
15036TIP3    H166523   2.231   6.646   2.898  1.4633 -0.2291 -0.5182
15036TIP3    H266524   2.099   6.583   2.857  0.8426  1.4917 -1.2736
15037TIP3   OH266525   2.985   0.373   5.081 -0.5579 -0.6885  0.2834
15037TIP3    H166526   2.938   0.409   5.157 -0.7602 -2.3610  0.9812
15037TIP3    H266527   3.015   0.287   5.110 -1.0214 -1.5637 -1.6795
15038TIP3   OH266528   2.431   2.747   1.597 -0.7473 -0.7209 -0.3351
15038TIP3    H166529   2.440   2.665   1.549 -1.7297 -0.0993 -1.6463
15038TIP3    H266530   2.495   2.741   1.668  2.3382 -0.8244 -2.9077
15039TIP3   OH266531   2.938   1.066  12.780 -0.1400  0.1259  0.0641
15039TIP3    H166532   2.849   1.092  12.803 -0.5686  0.2864 -1.6095
15039TIP3    H266533   2.949   0.980  12.820 -0.7095  0.4979  1.0549
15040TIP3   OH266534   1.509   0.692  12.186  0.1464 -0.4138  0.4434
15040TIP3    H166535   1.512   0.617  12.127  0.1911  0.3178 -0.5285
15040TIP3    H266536   1.423   0.686  12.229  0.7462 -1.8095  1.4940
15041TIP3   OH266537   2.758   6.540   3.116  0.1543 -0.1825  0.1182
15041TIP3    H166538   2.819   6.514   3.047  0.2933  0.1303  0.1213
15041TIP3    H266539   2.729   6.457   3.155  0.0697 -0.3606 -0.3157
15042TIP3   OH266540   3.965   3.922  14.079 -0.4157  0.0212  0.3680
15042TIP3    H166541   3.915   3.999  14.105 -0.8744 -0.3590  0.6309
15042TIP3    H266542   3.901   3.851  14.074 -0.2344 -0.0715 -1.1651
15043TIP3   OH266543   6.133   5.247  16.258  0.0688  0.0921 -0.1797
15043TIP3    H166544   6.174   5.325  16.294 -0.6973  0.2938  0.2850
15043TIP3    H266545   6.172   5.175  16.308 -0.7953  0.3528  0.9194
15044TIP3   OH266546   0.896   2.947  11.124  0.4236  0.7514  0.3012
15044TIP3    H166547   0.992   2.944  11.124  0.4978  1.6551  2.3285
15044TIP3    H266548   0.871   2.920  11.212 -1.1611  1.1937  0.0180
15045TIP3   OH266549   1.279   1.781   1.792 -0.4960  0.1337  0.1693
15045TIP3    H166550   1.258   1.768   1.885  1.1925 -4.0247  0.1779
15045TIP3    H266551   1.374   1.793   1.790 -0.4098 -0.5990 -1.0426
15046TIP3   OH266552   2.599   6.260  13.362 -0.4485  0.1791  0.2114
15046TIP3    H166553   2.620   6.353  13.363  0.2160  0.1430 -2.4816
15046TIP3    H266554   2.646   6.225  13.286 -2.0985 -1.9965  0.0799
15047TIP3   OH266555   1.734   0.027  13.155 -0.1808  0.3445  0.0633
15047TIP3    H166556   1.751  -0.063  13.183  0.9761  0.4103 -0.3575
15047TIP3    H266557   1.727   0.077  13.236  1.3629  0.2285  0.3037
15048TIP3   OH266558   6.601   3.410   1.730 -0.8440 -0.8254 -0.2049
15048TIP3    H166559   6.665   3.388   1.798 -1.0055  1.1853  0.6568
15048TIP3    H266560   6.607   3.337   1.667  0.9698 -1.5794  0.7691
15049TIP3   OH266561   1.562   5.852  15.508  0.3749  0.1762  0.2076
15049TIP3    H166562   1.580   5.880  15.598  1.6859  0.2317 -0.0549
15049TIP3    H266563   1.467   5.851  15.503  0.2736  0.7532  1.4204
15050TIP3   OH266564   5.328   6.811   0.468  0.3947 -1.0794 -0.3678
15050TIP3    H166565   5.403   6.843   0.517 -1.0288  2.5920 -0.2882
15050TIP3    H266566   5.351   6.827   0.376 -0.4665  0.6804 -0.3095
15051TIP3   OH266567   5.754   6.645   3.655  0.3615  0.2494  0.2032
15051TIP3    H166568   5.675   6.592   3.651  0.3586  0.3165 -0.7574
15051TIP3    H266569   5.756   6.692   3.572  0.9033  0.9821  0.6138
15052TIP3   OH266570   4.929   5.642  13.886 -0.1078  0.3198 -0.1402
15052TIP3    H166571   4.863   5.672  13.824  1.5865  0.1328 -2.1520
15052TIP3    H266572   4.912   5.549  13.898 -1.0139  0.5498  0.4664
15053TIP3   OH266573   6.592   3.759   6.195  0.5110  0.6122 -0.2235
15053TIP3    H166574   6.567   3.829   6.136 -0.1919 -0.8178 -1.6912
15053TIP3    H266575   6.684   3.742   6.174  0.4870  0.6334 -0.3460
15054TIP3   OH266576   0.838   4.084   1.672 -0.5846  0.5461  0.1833
15054TIP3    H166577   0.933   4.094   1.672 -0.4413 -0.6590 -0.0363
15054TIP3    H266578   0.823   4.000   1.627 -1.5953 -0.4980  2.3126
15055TIP3   OH266579   1.529   5.178  16.349  0.6283  0.0836 -0.0812
15055TIP3    H166580   1.463   5.179  16.418  0.2129 -1.3157 -0.4242
15055TIP3    H266581   1.497   5.113  16.287  1.6842  0.3340 -0.9060
15056TIP3   OH266582   1.890   6.306   2.672 -0.3795 -0.1714 -0.7327
15056TIP3    H166583   1.842   6.230   2.704 -1.1949  0.3867 -0.5984
15056TIP3    H266584   1.976   6.300   2.712 -0.5326 -0.8757 -0.5086
15057TIP3   OH266585   2.073   2.241  15.936 -0.0816 -0.1433 -0.1004
15057TIP3    H166586   2.125   2.196  15.869 -0.1269  1.2147 -1.0959
15057TIP3    H266587   2.139   2.277  15.996  0.1298  0.9393 -0.9466
15058TIP3   OH266588   3.823   6.528  13.528  0.3192  0.1815 -0.3429
15058TIP3    H166589   3.879   6.460  13.490  1.0068  0.2141  0.5873
15058TIP3    H266590   3.752   6.480  13.570  0.0982  0.1057 -0.7919
15059TIP3   OH266591   5.475   3.408   2.195  0.2784  0.3880 -0.3622
15059TIP3    H166592   5.526   3.468   2.140 -0.4291  0.7736 -0.6236
15059TIP3    H266593   5.405   3.463   2.230  0.4657  0.0375  0.5742
15060TIP3   OH266594   5.029   1.469  16.312  0.2316  0.1412  0.3563
15060TIP3    H166595   5.054   1.509  16.395 -0.3643 -0.2618  0.7302
15060TIP3    H266596   5.034   1.541  16.249 -2.3276  1.2266  1.2850
15061TIP3   OH266597   1.230   4.993  12.012 -0.1984  0.0994 -0.0699
15061TIP3    H166598   1.246   5.042  11.931 -1.4579  0.2367 -0.2611
15061TIP3    H266599   1.205   5.059  12.076 -3.6198 -0.3053 -0.7758
15062TIP3   OH266600   6.160   5.651  16.738  0.0920  0.1639 -0.1926
15062TIP3    H166601   6.101   5.673  16.667 -0.5866 -1.4708 -0.1686
15062TIP3    H266602   6.103   5.633  16.813  0.6523 -0.5651  0.0741
15063TIP3   OH266603   1.601   0.940   1.780 -0.0069 -0.3168  0.3526
15063TIP3    H166604   1.660   0.884   1.831  0.2407 -0.8781 -0.5242
15063TIP3    H266605   1.561   0.881   1.717 -1.8708 -0.0273  1.2103
15064TIP3   OH266606   4.725   3.213  11.423 -0.0712 -0.0067  0.0279
15064TIP3    H166607   4.757   3.292  11.466  0.2959 -0.5059  0.7052
15064TIP3    H266608   4.657   3.243  11.363 -0.7575  0.6947  1.1360
15065TIP3   OH266609   2.366   2.278   1.600  0.2743  0.4712 -0.1029
15065TIP3    H166610   2.386   2.275   1.693  1.8665  1.2884 -0.3752
15065TIP3    H266611   2.409   2.200   1.564 -0.8054 -0.1457 -0.0986
15066TIP3   OH266612   1.505   6.778   3.838  0.6584 -0.0422 -0.3439
15066TIP3    H166613   1.576   6.822   3.791  0.8283  0.5928  0.4881
15066TIP3    H266614   1.468   6.717   3.774  0.6708  1.0273 -1.4019
15067TIP3   OH266615   5.141   4.914   3.571 -0.1714  0.2661  0.1416
15067TIP3    H166616   5.078   4.875   3.633  1.5071 -2.9330  0.0391
15067TIP3    H266617   5.116   4.878   3.486 -1.3734  3.2501 -0.8848
15068TIP3   OH266618   2.630   2.994   3.552 -0.1096 -0.0539  0.2641
15068TIP3    H166619   2.646   2.967   3.643 -0.5707 -1.2957  0.0052
15068TIP3    H266620   2.547   2.951   3.529 -1.1450  2.0113 -0.0663
15069TIP3   OH266621   6.661   5.751  12.898 -0.3403 -0.1909  0.0669
15069TIP3    H166622   6.608   5.691  12.950 -0.2823 -1.1026 -0.8841
15069TIP3    H266623   6.712   5.693  12.841  2.3164  0.5724  1.4982
15070TIP3   OH266624   0.254   1.350  13.264  0.1195  0.3438  0.1733
15070TIP3    H166625   0.344   1.382  13.271  0.9006 -1.5469 -0.5077
15070TIP3    H266626   0.233   1.357  13.171 -0.1806  0.1459  0.2260
15071TIP3   OH266627   4.058   5.568  10.863  0.4379  0.2455 -0.4711
15071TIP3    H166628   3.983   5.623  10.840  1.0272  0.0257 -3.2944
15071TIP3    H266629   4.085   5.529  10.780  0.6940 -3.5686  1.1998
15072TIP3   OH266630   2.523   5.958  12.677 -0.4219 -0.0505  0.1378
15072TIP3    H166631   2.554   5.887  12.622  2.6145  0.1409  1.4218
15072TIP3    H266632   2.522   5.922  12.766  0.1146  1.1474  0.6633
15073TIP3   OH266633   4.423   1.625   2.815 -0.0627  0.0079  0.1152
15073TIP3    H166634   4.352   1.684   2.839 -0.8095 -0.1864 -1.5149
15073TIP3    H266635   4.446   1.650   2.726  2.7092  0.8018  0.9429
15074TIP3   OH266636   5.755   2.896   5.448  0.3909  0.5761 -0.2032
15074TIP3    H166637   5.783   2.904   5.540  2.0662 -0.0346 -0.6306
15074TIP3    H266638   5.720   2.982   5.427  0.7896  0.9931  0.7574
15075TIP3   OH266639   5.979   0.610  14.559  0.3801  0.1174 -0.0138
15075TIP3    H166640   5.971   0.534  14.501  1.4099 -1.5916  1.9240
15075TIP3    H266641   5.988   0.572  14.647 -0.4813  2.5446  1.2321
15076TIP3   OH266642   5.069   2.054   4.456  0.3514  0.2761 -0.3110
15076TIP3    H166643   4.979   2.078   4.475  0.6067  0.5833  0.5838
15076TIP3    H266644   5.098   2.008   4.535  0.9592  0.1212 -0.6174
15077TIP3   OH266645   5.637   0.737  13.801  0.4704  0.3040 -0.1644
15077TIP3    H166646   5.713   0.795  13.803  0.9878 -0.2877 -1.3068
15077TIP3    H266647   5.577   0.773  13.866  1.1641  1.5647 -0.1854
15078TIP3   OH266648   4.081   0.404  10.645  0.1592  0.6737 -0.0324
15078TIP3    H166649   4.144   0.385  10.575  1.3958  0.3423  1.1405
15078TIP3    H266650   4.096   0.496  10.666 -0.2478  0.7871 -0.2368
15079TIP3   OH266651   4.763   5.358   1.871 -0.1121  0.5628 -0.1356
15079TIP3    H166652   4.833   5.421   1.856 -1.1899  2.1444  1.0769
15079TIP3    H266653   4.684   5.403   1.841 -0.8309 -0.4943  0.1173
15080TIP3   OH266654   5.612   4.105   0.116 -0.0894  0.1079 -0.0242
15080TIP3    H166655   5.581   4.112   0.026  0.9866  3.7309 -0.2360
15080TIP3    H266656   5.704   4.080   0.108  0.3076  1.5288 -0.0095
15081TIP3   OH266657   4.598   0.974   4.936  0.5220 -0.4594  0.2546
15081TIP3    H166658   4.533   0.997   4.869 -0.3088  0.3422  1.2933
15081TIP3    H266659   4.679   1.014   4.906 -0.2447  1.4071  0.5633
15082TIP3   OH266660   2.123   5.514   3.566 -0.2843  0.1204  0.3524
15082TIP3    H166661   2.213   5.542   3.585 -0.0791  0.0257 -0.4462
15082TIP3    H266662   2.083   5.589   3.522 -0.1550 -0.3189 -0.5530
15083TIP3   OH266663   5.792   2.692   4.703 -0.1063  0.3805 -0.2408
15083TIP3    H166664   5.736   2.647   4.639 -1.3717  1.5497 -0.0011
15083TIP3    H266665   5.877   2.648   4.694 -0.5435 -0.2428 -1.9156
15084TIP3   OH266666   1.996   2.604  10.769 -0.5851  0.0931 -0.3097
15084TIP3    H166667   1.908   2.639  10.786 -0.3578  1.1945 -1.2669
15084TIP3    H266668   1.998   2.522  10.817 -3.4260 -1.8016 -3.0368
15085TIP3   OH266669   5.637   3.738   3.375  0.7631  0.2298 -0.3612
15085TIP3    H166670   5.694   3.802   3.332  0.9373  1.8904  2.1271
15085TIP3    H266671   5.677   3.723   3.461 -1.1680 -0.5426  0.4794
15086TIP3   OH266672   6.381   1.071  10.137 -0.1528 -0.0725  0.1017
15086TIP3    H166673   6.476   1.063  10.128 -0.1780 -1.8303  0.9456
15086TIP3    H266674   6.355   0.992  10.185 -1.9813  0.6294  0.3331
15087TIP3   OH266675   5.773   0.490  13.952  0.1642 -0.6022 -0.3154
15087TIP3    H166676   5.833   0.564  13.949  0.0882 -0.5013  0.4709
15087TIP3    H266677   5.686   0.528  13.949  0.1216 -0.7489 -1.4413
15088TIP3   OH266678   2.411   1.929   4.835 -0.5799  0.6045 -0.1656
15088TIP3    H166679   2.338   1.876   4.804  0.5817 -0.9918 -0.3585
15088TIP3    H266680   2.447   1.969   4.756  0.5723 -1.0879 -0.5677
15089TIP3   OH266681   3.164   6.113  16.622  0.3114  0.2548  0.0291
15089TIP3    H166682   3.250   6.099  16.582 -0.1094  1.2497 -1.3048
15089TIP3    H266683   3.102   6.106  16.550 -0.6485  0.4084  0.8164
15090TIP3   OH266684   4.512   4.451  16.283  0.3294  0.0599 -0.3228
15090TIP3    H166685   4.548   4.412  16.204 -1.2501 -2.9935  0.3204
15090TIP3    H266686   4.565   4.414  16.354  0.6486  1.4448  0.1949
15091TIP3   OH266687   0.699   4.452  14.363 -0.5912  0.6297  0.1365
15091TIP3    H166688   0.766   4.504  14.318 -0.0314 -0.6300 -0.5307
15091TIP3    H266689   0.705   4.479  14.454  0.3412  1.0534 -0.0366
15092TIP3   OH266690   6.195   4.403   6.040  0.0299  0.3257 -0.3368
15092TIP3    H166691   6.231   4.359   6.116  0.2535  0.7154 -0.2165
15092TIP3    H266692   6.101   4.381   6.042 -0.5785  2.6697  1.7135
15093TIP3   OH266693   3.054   2.996  10.280 -0.3303  0.2927  0.1596
15093TIP3    H166694   2.963   2.971  10.264  0.0266 -0.8430 -0.1842
15093TIP3    H266695   3.082   2.938  10.351  0.0424  0.8403  0.4651
15094TIP3   OH266696   1.595   3.636  15.209 -0.3710 -0.8674 -1.1330
15094TIP3    H166697   1.519   3.681  15.246  0.4190 -1.0026  0.7674
15094TIP3    H266698   1.618   3.569  15.273  0.8235 -1.4241 -2.0830
15095TIP3   OH266699   0.588   6.161   2.302  0.7864  0.2794 -0.0851
15095TIP3    H166700   0.636   6.238   2.270 -1.3749  1.2449 -1.2117
15095TIP3    H266701   0.548   6.190   2.384  1.0785 -0.0909  0.1882
15096TIP3   OH266702   2.131   3.084  13.077 -0.1223  0.2144 -0.0883
15096TIP3    H166703   2.088   3.156  13.031  0.8842  1.4185  0.7894
15096TIP3    H266704   2.210   3.123  13.114  1.0651 -1.6333 -0.5672
15097TIP3   OH266705   1.797   3.234  14.026  0.2377  0.1460 -0.3971
15097TIP3    H166706   1.869   3.177  13.997 -0.5810 -1.6926  1.0035
15097TIP3    H266707   1.732   3.174  14.062 -0.7633  1.9667  0.9822
15098TIP3   OH266708   0.842   3.850  15.032 -0.2179  0.4394 -0.2312
15098TIP3    H166709   0.839   3.814  14.944 -1.1049  1.0440 -0.4642
15098TIP3    H266710   0.895   3.929  15.024 -2.3379  1.9064 -0.8060
15099TIP3   OH266711   4.495   4.215  13.447  0.2283  0.6742  0.2156
15099TIP3    H166712   4.585   4.191  13.468  0.1074  0.9185  1.0568
15099TIP3    H266713   4.500   4.305  13.414  0.5024  0.0542 -1.5276
15100TIP3   OH266714   1.615   1.717  16.323 -0.1067 -0.0827  0.1132
15100TIP3    H166715   1.523   1.691  16.324 -0.0008 -0.4473  0.7276
15100TIP3    H266716   1.621   1.782  16.252 -1.0485  0.7644  0.7893
15101TIP3   OH266717   4.519   6.204   0.533 -0.0672 -0.1862 -0.0966
15101TIP3    H166718   4.542   6.284   0.580  0.1273 -0.7153  0.7415
15101TIP3    H266719   4.436   6.177   0.572 -1.4103  0.8857 -2.0482
15102TIP3   OH266720   5.578   5.871  16.552  0.2060 -0.2356  0.1745
15102TIP3    H166721   5.593   5.777  16.558 -1.6749 -0.5497  0.8506
15102TIP3    H266722   5.516   5.881  16.480  2.0601  0.7577 -1.3554
15103TIP3   OH266723   5.480   0.218   2.645 -0.3943  0.0530 -0.2429
15103TIP3    H166724   5.435   0.230   2.561 -1.5950 -0.3373  0.3231
15103TIP3    H266725   5.526   0.301   2.659 -2.5287  1.2507  0.0745
15104TIP3   OH266726   3.233   6.734   1.353  0.6735  0.9587 -0.4099
15104TIP3    H166727   3.276   6.664   1.304  0.2328  1.3474 -1.3703
15104TIP3    H266728   3.154   6.754   1.302  0.0690  1.1984  0.5923
15105TIP3   OH266729   6.752   1.893  11.549 -0.2568  0.0541 -0.0188
15105TIP3    H166730   6.746   1.876  11.455 -2.1531  0.4579 -0.0017
15105TIP3    H266731   6.757   1.989  11.555 -1.8832  0.1445  0.3243
15106TIP3   OH266732   3.914   2.587  11.242 -0.4011  0.2675 -0.5856
15106TIP3    H166733   3.838   2.621  11.288 -0.9203  0.0759 -1.2808
15106TIP3    H266734   3.882   2.566  11.154 -0.1466 -2.0534 -0.1913
15107TIP3   OH266735   0.576   6.350   2.807  0.1488 -0.1549 -0.1076
15107TIP3    H166736   0.572   6.263   2.846 -0.2802 -0.2058 -0.2553
15107TIP3    H266737   0.655   6.391   2.845  1.0319 -1.0392 -0.9415
15108TIP3   OH266738   6.436   4.850  12.848  0.6307 -0.3160 -0.1781
15108TIP3    H166739   6.456   4.825  12.939  1.5155  1.2173  0.0815
15108TIP3    H266740   6.455   4.771  12.798 -1.9458 -1.9236  1.1377
15109TIP3   OH266741   0.183   4.417  11.628  0.0299 -0.3606 -0.3165
15109TIP3    H166742   0.211   4.508  11.636 -1.8671  0.1613  0.8512
15109TIP3    H266743   0.265   4.367  11.623  1.1045  1.3116  0.0633
15110TIP3   OH266744   3.321   2.782  11.289 -0.5629 -0.6885 -0.0190
15110TIP3    H166745   3.234   2.744  11.299 -1.1957  0.7725  0.2885
15110TIP3    H266746   3.312   2.844  11.216 -0.1132  0.3728  0.7992
15111TIP3   OH266747   1.013   2.352   2.426 -0.1832  0.3585 -0.1207
15111TIP3    H166748   1.000   2.347   2.521 -0.9428  1.8322 -0.1198
15111TIP3    H266749   0.967   2.275   2.392 -0.9962  0.5054  0.6155
15112TIP3   OH266750   2.217   0.689   0.408 -0.3765 -0.2374  0.3692
15112TIP3    H166751   2.190   0.766   0.358  1.2298  1.0336  1.3404
15112TIP3    H266752   2.211   0.717   0.500 -0.1333 -1.4089  0.7597
15113TIP3   OH266753   4.438   5.168  11.383 -0.1867 -0.2129 -0.2926
15113TIP3    H166754   4.510   5.125  11.429  1.1854  0.3544 -1.8367
15113TIP3    H266755   4.369   5.102  11.379  0.7859 -1.2759 -0.0719
15114TIP3   OH266756   2.710   5.093   0.111 -0.1367 -0.1050  0.1097
15114TIP3    H166757   2.732   5.181   0.142 -0.1351 -0.1000  0.0943
15114TIP3    H266758   2.788   5.041   0.126  0.4717  0.3009 -1.4502
15115TIP3   OH266759   4.317   0.909  11.902  0.3043 -0.1526 -0.0169
15115TIP3    H166760   4.321   0.818  11.933  0.3504 -0.0209  0.3658
15115TIP3    H266761   4.350   0.905  11.812  0.8468 -0.4309  0.1882
15116TIP3   OH266762   1.439   6.612  15.581 -0.5654 -0.2927  0.2052
15116TIP3    H166763   1.420   6.527  15.622 -1.2843 -0.4793 -0.4950
15116TIP3    H266764   1.534   6.614  15.573 -0.5649 -1.1968 -0.1099
15117TIP3   OH266765   0.483   6.287   4.548  0.7202  0.2558  0.3796
15117TIP3    H166766   0.394   6.318   4.533  0.6583  0.1014  0.4202
15117TIP3    H266767   0.536   6.329   4.480  0.6178  0.3542  0.3621
15118TIP3   OH266768   6.822   3.824   2.180 -0.2655 -0.1437  0.3505
15118TIP3    H166769   6.887   3.871   2.128  0.0099 -2.6314 -1.7220
15118TIP3    H266770   6.815   3.875   2.261 -0.2832  3.6121 -1.7772
15119TIP3   OH266771   2.856   2.128   5.944 -0.3227 -0.2450  0.8597
15119TIP3    H166772   2.814   2.171   5.869  1.2288  0.5743  0.4016
15119TIP3    H266773   2.853   2.193   6.014 -0.1100 -0.2881  0.9116
15120TIP3   OH266774   6.158   2.221  15.555 -0.1018 -0.1857 -0.0125
15120TIP3    H166775   6.247   2.239  15.586 -1.0262  0.7609  2.3553
15120TIP3    H266776   6.170   2.170  15.475  2.5654  1.8354 -1.0447
15121TIP3   OH266777   4.302   1.988   0.549 -0.8517  0.5357 -0.2502
15121TIP3    H166778   4.211   2.008   0.525 -1.7045 -1.3878  1.1389
15121TIP3    H266779   4.296   1.951   0.637  1.2769  0.1123 -0.2333
15122TIP3   OH266780   5.635   1.842  13.207  0.4721  0.5537  0.2392
15122TIP3    H166781   5.575   1.769  13.193  0.2875  0.4108  1.6565
15122TIP3    H266782   5.584   1.908  13.253  0.4462  1.8974 -1.6112
15123TIP3   OH266783   2.316   5.852   5.462  0.0733 -0.4271  0.0746
15123TIP3    H166784   2.265   5.851   5.543  0.9680  1.8728  0.7693
15123TIP3    H266785   2.370   5.773   5.467  1.0631  0.2857  2.4633
15124TIP3   OH266786   1.177   6.782   3.175  0.6115  0.3403 -0.0720
15124TIP3    H166787   1.168   6.801   3.268 -0.1489  0.3682 -0.1486
15124TIP3    H266788   1.130   6.699   3.163  1.0928  0.1023 -0.3517
15125TIP3   OH266789   0.487   2.461   3.380  0.4176  0.3654  0.1486
15125TIP3    H166790   0.452   2.372   3.372 -1.4067  0.7105  2.8480
15125TIP3    H266791   0.429   2.515   3.326  2.3118 -0.1565 -2.5553
15126TIP3   OH266792   2.364   3.155   4.073 -0.5562 -0.1348  0.1237
15126TIP3    H166793   2.353   3.128   3.982 -0.2956  0.0670  0.0323
15126TIP3    H266794   2.276   3.151   4.110 -0.8315  0.7740 -0.4064
15127TIP3   OH266795   3.550   4.084   0.195 -0.6918 -0.0373  0.0548
15127TIP3    H166796   3.619   4.080   0.129 -1.9268 -0.4056 -1.2606
15127TIP3    H266797   3.545   3.995   0.230 -1.6665 -0.4849 -1.1355
15128TIP3   OH266798   5.112   4.016  14.814 -0.6186  0.4515 -0.4069
15128TIP3    H166799   5.042   4.029  14.878  0.3231  0.6443  0.6167
15128TIP3    H266800   5.189   4.056  14.855 -0.0219  0.6870 -1.7280
15129TIP3   OH266801   3.147   3.801   2.409  0.3837  0.2328 -0.0151
15129TIP3    H166802   3.225   3.856   2.406 -0.6372  1.8359  0.6937
15129TIP3    H266803   3.172   3.719   2.368  2.7812  0.2474  1.2537
15130TIP3   OH266804   6.150   1.325  12.853 -0.3402 -0.4439  0.2475
15130TIP3    H166805   6.193   1.409  12.866 -0.4462 -0.0246 -1.7287
15130TIP3    H266806   6.076   1.325  12.914 -0.9334  1.3442 -0.4286
15131TIP3   OH266807   1.575   0.600   1.398 -0.1140  0.0440 -0.0645
15131TIP3    H166808   1.522   0.554   1.463  1.6439 -2.2167 -0.0807
15131TIP3    H266809   1.519   0.670   1.365 -2.0803 -0.5784  1.7745
15132TIP3   OH266810   4.084   5.182   0.841 -0.2221 -0.2511 -0.3845
15132TIP3    H166811   4.002   5.178   0.890 -0.9972  0.3055 -1.5885
15132TIP3    H266812   4.152   5.181   0.909 -1.2622  2.3988  0.8759
15133TIP3   OH266813   2.129   0.385  15.389  0.1207  0.6404  1.1309
15133TIP3    H166814   2.064   0.450  15.414 -0.6485  0.8235 -1.1677
15133TIP3    H266815   2.199   0.436  15.347 -0.8226  0.0223 -1.3641
15134TIP3   OH266816   4.744   2.898   1.397 -0.6580  0.1846 -0.1113
15134TIP3    H166817   4.811   2.966   1.392  0.9750 -1.3942 -0.9727
15134TIP3    H266818   4.751   2.851   1.315 -0.5706 -2.0534  1.1012
15135TIP3   OH266819   0.068   1.149   1.689 -0.5891  0.2694  0.2902
15135TIP3    H166820   0.134   1.212   1.660 -0.1545  0.2530  1.1867
15135TIP3    H266821   0.026   1.119   1.609  1.0438 -0.3222 -0.3878
15136TIP3   OH266822   6.676   1.480  15.139  0.0970 -0.3765  0.0355
15136TIP3    H166823   6.722   1.403  15.172  0.6240  0.6785  1.9215
15136TIP3    H266824   6.745   1.534  15.099  0.1815  0.2443  0.9868
15137TIP3   OH266825   6.738   5.335  14.352  0.3651 -0.4333  0.1249
15137TIP3    H166826   6.784   5.331  14.436  0.7026  2.0902  0.1512
15137TIP3    H266827   6.802   5.302  14.289  0.5382 -1.2261  0.6914
15138TIP3   OH266828   1.860   5.807  15.985 -0.4037  0.6287  0.3088
15138TIP3    H166829   1.875   5.830  16.077 -2.1287 -3.4349  1.8580
15138TIP3    H266830   1.942   5.768  15.956  0.2657  2.2518 -0.0761
15139TIP3   OH266831   4.018   2.555   0.094  0.1553 -0.1778  0.4183
15139TIP3    H166832   4.048   2.617   0.027 -0.7726 -0.2990 -0.1258
15139TIP3    H266833   4.030   2.469   0.054 -1.9956 -0.2029 -0.3325
15140TIP3   OH266834   6.660   2.940  14.615 -0.1129 -0.3889 -0.1987
15140TIP3    H166835   6.600   3.013  14.603  0.8546  0.7432  1.3417
15140TIP3    H266836   6.712   2.937  14.535  0.1797  0.9903 -0.0786
15141TIP3   OH266837   0.003   1.804   5.151  0.0288  0.3355 -0.5771
15141TIP3    H166838   0.050   1.862   5.092  0.9177 -0.8498 -1.0572
15141TIP3    H266839   0.059   1.797   5.228 -0.6634  1.0862  0.0145
15142TIP3   OH266840   6.813   4.619  10.748 -0.0539  0.0344 -0.1744
15142TIP3    H166841   6.821   4.702  10.701 -1.7094 -0.4572 -1.4015
15142TIP3    H266842   6.871   4.559  10.702  1.6949  0.6392  1.1472
15143TIP3   OH266843   2.704   4.673   0.971  0.2213 -0.0691 -0.1963
15143TIP3    H166844   2.652   4.702   0.896  1.7857 -0.1487 -1.3533
15143TIP3    H266845   2.747   4.752   1.003 -0.0455 -0.1261  0.3249
15144TIP3   OH266846   5.963   4.186  14.003 -0.2291 -0.0061  0.5592
15144TIP3    H166847   6.041   4.205  14.055 -0.0193  0.8421 -0.0477
15144TIP3    H266848   5.910   4.265  14.009 -0.1734  0.1283 -0.5580
15145TIP3   OH266849   0.389   6.229  14.123 -0.7186 -0.1295 -0.3427
15145TIP3    H166850   0.335   6.252  14.199  0.9892 -0.7598  1.1469
15145TIP3    H266851   0.328   6.188  14.062 -2.5069  2.0433 -0.1523
15146TIP3   OH266852   4.738   2.024  16.850 -0.1835 -0.1725 -0.5354
15146TIP3    H166853   4.811   1.966  16.872 -1.2372 -1.3770 -0.1294
15146TIP3    H266854   4.682   2.023  16.928 -0.7077  0.6275 -0.8849
15147TIP3   OH266855   0.503   4.592  13.731  0.1445  0.3972 -0.7274
15147TIP3    H166856   0.539   4.552  13.652  0.6464 -0.9290  0.1450
15147TIP3    H266857   0.480   4.518  13.787 -0.1012  1.3146  0.4187
15148TIP3   OH266858   6.703   0.695  10.097 -0.9083 -0.1855 -0.2523
15148TIP3    H166859   6.734   0.626  10.155 -2.1787 -0.9946 -0.4868
15148TIP3    H266860   6.625   0.658  10.055 -1.3245  1.2001 -0.7789
15149TIP3   OH266861   0.981   2.758   5.540 -0.6859  0.0245 -0.4484
15149TIP3    H166862   1.044   2.689   5.563  0.6468  0.9627 -1.1131
15149TIP3    H266863   0.897   2.726   5.573 -0.3819 -2.5044 -1.8371
15150TIP3   OH266864   3.687   5.103   5.057  0.0898  0.4547  0.5442
15150TIP3    H166865   3.774   5.118   5.020  0.1616 -1.1602 -0.0207
15150TIP3    H266866   3.685   5.157   5.136  1.4653  0.7944  0.3736
15151TIP3   OH266867   2.417   6.669  11.205 -0.1279  0.5373 -0.2420
15151TIP3    H166868   2.347   6.608  11.230  0.0829 -0.0469 -1.0506
15151TIP3    H266869   2.372   6.739  11.159 -0.1946  0.1783 -0.7327
15152TIP3   OH266870   3.194   3.904  11.139  0.6876 -0.6695  0.1583
15152TIP3    H166871   3.204   3.920  11.045 -0.3867 -0.6157  0.0405
15152TIP3    H266872   3.100   3.904  11.153  0.8358 -0.8593  1.2134
15153TIP3   OH266873   2.672   4.119   1.343 -0.3495  0.2613  0.2361
15153TIP3    H166874   2.709   4.055   1.404  0.1266  0.5625  0.2731
15153TIP3    H266875   2.715   4.202   1.366 -2.2910  0.9943  1.3999
15154TIP3   OH266876   0.783   1.347   3.099 -0.3126 -0.2007 -0.2539
15154TIP3    H166877   0.722   1.420   3.102 -2.0670 -1.6383  1.6097
15154TIP3    H266878   0.811   1.334   3.189  0.2298 -1.6077 -0.5822
15155TIP3   OH266879   2.313   6.730   5.693 -0.0094 -0.2058  0.2380
15155TIP3    H166880   2.252   6.803   5.688 -0.6684 -0.7435  0.2951
15155TIP3    H266881   2.399   6.771   5.707 -0.2035  0.6003 -0.8002
15156TIP3   OH266882   5.774   4.044  10.808 -0.2444  0.1076 -0.6293
15156TIP3    H166883   5.690   4.002  10.828 -0.9715  1.0175 -1.6735
15156TIP3    H266884   5.803   4.003  10.727 -0.0871  0.3737 -0.7094
15157TIP3   OH266885   3.063   5.715  13.425 -0.2444  0.6563  0.9502
15157TIP3    H166886   2.987   5.658  13.430 -0.5429  0.9206 -0.2832
15157TIP3    H266887   3.034   5.788  13.370  2.1263 -1.3373 -3.4839
15158TIP3   OH266888   5.341   1.632   3.789  0.5239 -0.7874 -0.2477
15158TIP3    H166889   5.263   1.620   3.735  1.5511 -1.1132 -1.7201
15158TIP3    H266890   5.314   1.694   3.857 -1.2520 -1.5887 -0.1755
15159TIP3   OH266891   3.280   5.295   3.841 -0.4551 -0.1005 -0.4540
15159TIP3    H166892   3.334   5.371   3.818  1.7044 -1.5708 -0.4838
15159TIP3    H266893   3.275   5.244   3.760 -0.5977 -0.7579 -0.0341
15160TIP3   OH266894   3.434   1.817   6.268  0.2350 -0.4272  0.4814
15160TIP3    H166895   3.433   1.745   6.204  2.1357 -0.8917  0.9219
15160TIP3    H266896   3.395   1.780   6.347 -1.5181 -0.0456 -0.1572
15161TIP3   OH266897   6.487   0.711  13.520  0.1392 -0.0196  0.3239
15161TIP3    H166898   6.435   0.791  13.529 -2.5601 -1.6275  0.1841
15161TIP3    H266899   6.441   0.660  13.453  1.5078 -1.8939  0.7315
15162TIP3   OH266900   4.152   3.039   1.284  0.2741 -0.0265 -0.0522
15162TIP3    H166901   4.065   3.046   1.323  0.7470 -0.4450  1.1387
15162TIP3    H266902   4.158   3.114   1.225 -1.7553 -1.2603 -1.9773
15163TIP3   OH266903   5.007   2.830   6.201  0.3621  0.4607  0.2796
15163TIP3    H166904   4.964   2.759   6.152  2.0274 -0.3952 -0.0327
15163TIP3    H266905   4.936   2.878   6.242 -0.9320 -0.3275 -0.9628
15164TIP3   OH266906   1.961   4.517   3.761 -0.5120 -0.1987 -0.4485
15164TIP3    H166907   1.904   4.444   3.735 -1.1038  0.3350 -0.6672
15164TIP3    H266908   1.918   4.595   3.726  1.3363  0.0726 -2.3599
15165TIP3   OH266909   3.538   1.423  11.479 -0.0429  0.0038 -0.0805
15165TIP3    H166910   3.466   1.477  11.511  0.2161 -0.6684  1.7368
15165TIP3    H266911   3.582   1.392  11.558  1.0211 -1.2468 -1.1216
15166TIP3   OH266912   4.081   1.155  15.243 -0.4193  0.0021 -0.5613
15166TIP3    H166913   4.151   1.142  15.307 -2.2238  0.8495  1.7262
15166TIP3    H266914   4.091   1.246  15.216  0.5450 -0.4476 -1.8211
15167TIP3   OH266915   0.590   1.747  11.411 -0.1740  0.1195  0.1896
15167TIP3    H166916   0.582   1.658  11.376  2.6350  0.4588 -1.6383
15167TIP3    H266917   0.581   1.736  11.506 -1.2402 -1.8878 -0.0876
15168TIP3   OH266918   4.161   5.461   4.665  0.0154 -1.0614 -0.2193
15168TIP3    H166919   4.175   5.444   4.572 -0.8485  1.3412 -0.8570
15168TIP3    H266920   4.235   5.516   4.690 -1.1514  0.5566 -0.2155
15169TIP3   OH266921   4.327   2.655  16.604  0.1302  0.4569  0.2762
15169TIP3    H166922   4.281   2.597  16.664 -0.8295  0.2692 -0.6243
15169TIP3    H266923   4.387   2.597  16.556  0.0198  0.4047  0.2021
15170TIP3   OH266924   0.813   1.348  14.499  0.2743  0.0957  0.6142
15170TIP3    H166925   0.861   1.265  14.505  1.3417  0.4905 -1.5553
15170TIP3    H266926   0.851   1.403  14.566  0.6393 -0.6583  1.0407
15171TIP3   OH266927   2.606   1.819  15.635 -0.4868 -0.2388  0.3261
15171TIP3    H166928   2.688   1.790  15.676 -0.5991  0.7281  1.2740
15171TIP3    H266929   2.634   1.882  15.568 -0.3843 -0.8894 -0.2547
15172TIP3   OH266930   3.229   6.794  15.464  0.7930 -0.0769  0.1503
15172TIP3    H166931   3.238   6.776  15.370 -1.6613  0.9612 -0.3743
15172TIP3    H266932   3.279   6.874  15.478 -0.1700  0.7086 -0.6930
15173TIP3   OH266933   2.780   6.573   1.229  0.5216  0.2117 -0.7052
15173TIP3    H166934   2.847   6.506   1.242  1.3761  1.3474  1.1210
15173TIP3    H266935   2.820   6.636   1.170  0.7765  0.4678 -0.2684
15174TIP3   OH266936   1.174   0.543  12.405 -0.1125 -0.5604 -0.2968
15174TIP3    H166937   1.136   0.583  12.326  0.0930  1.7507  0.6995
15174TIP3    H266938   1.262   0.582  12.411 -0.6740  0.5427  1.8597
15175TIP3   OH266939   3.796   3.722   2.602  0.5126  0.3619  0.2574
15175TIP3    H166940   3.790   3.767   2.686  0.0518  1.4003 -0.3118
15175TIP3    H266941   3.837   3.786   2.544 -1.9782  0.8784 -1.0830
15176TIP3   OH266942   5.318   2.908   0.831  0.0655  0.5451 -0.1165
15176TIP3    H166943   5.232   2.865   0.831  0.7183 -0.8173  0.5498
15176TIP3    H266944   5.314   2.970   0.904 -0.5309  0.9189 -0.4505
15177TIP3   OH266945   1.378   1.325  11.871 -0.4336  0.6133 -0.1544
15177TIP3    H166946   1.313   1.365  11.929 -1.9497 -2.1159  0.2156
15177TIP3    H266947   1.455   1.312  11.926 -0.6480  1.1187  0.2744
15178TIP3   OH266948   6.442   5.970  16.633 -0.1881  0.1754 -0.0592
15178TIP3    H166949   6.438   5.981  16.728  0.0362  0.2573 -0.0592
15178TIP3    H266950   6.515   5.911  16.619 -0.5581 -0.2654 -0.1464
15179TIP3   OH266951   0.005   2.450  16.496  0.1044  0.2825  0.2679
15179TIP3    H166952  -0.024   2.540  16.485  2.2026  0.9989  0.0556
15179TIP3    H266953   0.000   2.413  16.408  1.7244  1.0594 -0.1964
15180TIP3   OH266954   1.744   6.257   1.143 -0.4709 -0.2855 -0.4091
15180TIP3    H166955   1.821   6.296   1.185 -0.5182  0.1335 -0.7105
15180TIP3    H266956   1.725   6.179   1.196 -0.3564  0.0814  0.1815
15181TIP3   OH266957   0.912   6.107  12.362  0.1226 -0.2729 -0.1474
15181TIP3    H166958   1.001   6.115  12.329  0.6370  2.5491  1.6230
15181TIP3    H266959   0.922   6.089  12.456 -1.2175 -1.4102 -0.1864
15182TIP3   OH266960   1.376   1.083   4.470  0.2426 -0.2275  0.4324
15182TIP3    H166961   1.449   1.117   4.522  0.8048 -0.5773 -0.1224
15182TIP3    H266962   1.416   1.055   4.387 -0.6108  0.1428 -0.1162
15183TIP3   OH266963   2.229   6.495  12.564  0.6381  0.4903 -0.0846
15183TIP3    H166964   2.254   6.588  12.564  1.7918  0.2455  2.0603
15183TIP3    H266965   2.136   6.496  12.588  0.8730  1.0809  0.8768
15184TIP3   OH266966   2.334   2.573   6.608 -0.1816 -0.1877 -0.0636
15184TIP3    H166967   2.317   2.587   6.514 -1.5083 -0.9846  0.0249
15184TIP3    H266968   2.284   2.494   6.629  2.2820 -1.6226  0.7166
15185TIP3   OH266969   3.891   1.990   4.006  0.3831 -0.0422 -0.7550
15185TIP3    H166970   3.806   1.946   3.999 -0.7298  1.9712 -0.7090
15185TIP3    H266971   3.900   2.038   3.924  1.2709  0.0885 -0.5857
15186TIP3   OH266972   0.999   5.936  13.616 -0.0051 -0.4885  0.0709
15186TIP3    H166973   1.031   5.847  13.600  2.0436 -0.2485  2.1799
15186TIP3    H266974   1.079   5.989  13.624 -1.1556  1.3817 -0.3055
15187TIP3   OH266975   5.060   1.788   5.153  0.0248  0.5452  0.1242
15187TIP3    H166976   5.081   1.716   5.213 -0.4937  0.9877  0.8512
15187TIP3    H266977   5.083   1.754   5.066  1.0538 -0.0004  0.5980
15188TIP3   OH266978   3.149   0.844   0.162  0.2179 -0.3118  0.2041
15188TIP3    H166979   3.165   0.938   0.158  1.9657 -0.6086 -2.1527
15188TIP3    H266980   3.227   0.807   0.204 -0.3742 -0.7501  0.9484
15189TIP3   OH266981   0.756   2.539   5.829 -0.1724  0.3337 -0.1419
15189TIP3    H166982   0.744   2.605   5.760  0.2653 -0.1300 -0.6633
15189TIP3    H266983   0.820   2.578   5.888  0.6577  0.0688 -0.8525
15190TIP3   OH266984   0.323   2.371  16.860 -0.0126  0.5045 -0.6861
15190TIP3    H166985   0.363   2.329  16.785  0.3547  0.0373 -0.2328
15190TIP3    H266986   0.359   2.326  16.936 -1.0524  0.3626 -0.2488
15191TIP3   OH266987   6.566   0.421  11.375  0.7100  0.0439  0.6512
15191TIP3    H166988   6.640   0.412  11.315  0.1813 -0.0153 -0.0111
15191TIP3    H266989   6.534   0.332  11.389  0.2935  0.1302  0.3077
15192TIP3   OH266990   3.953   3.486  14.876 -0.4193 -0.4258  0.1889
15192TIP3    H166991   3.884   3.524  14.821  0.3374 -0.0223 -0.4993
15192TIP3    H266992   3.931   3.516  14.964 -1.8278 -1.3518  0.1763
15193TIP3   OH266993   1.034   3.148   2.380  1.0511  0.1617 -0.7424
15193TIP3    H166994   1.085   3.163   2.301  1.2539 -0.1329 -0.6702
15193TIP3    H266995   1.034   3.052   2.391 -0.6881  0.0358 -1.5194
15194TIP3   OH266996   4.957   6.470   1.450 -0.2469  0.1569  0.3490
15194TIP3    H166997   4.868   6.505   1.442 -1.1467 -1.3263  2.7147
15194TIP3    H266998   4.957   6.391   1.397  0.2034  0.9846 -0.9276
15195TIP3   OH266999   3.603   2.930  11.884 -0.0703 -0.0629 -0.0583
15195TIP3    H167000   3.596   2.841  11.849 -0.7460 -0.1918  0.3820
15195TIP3    H267001   3.580   2.986  11.810 -1.5838 -0.3385  0.1533
15196TIP3   OH267002   2.669   6.227  15.617  0.6898 -0.0811  0.0367
15196TIP3    H167003   2.759   6.207  15.639  0.5850 -0.9061 -0.2298
15196TIP3    H267004   2.674   6.273  15.533  0.9768  1.6800  0.9594
15197TIP3   OH267005   5.219   5.361   2.965 -0.3125 -0.7940  0.4783
15197TIP3    H167006   5.209   5.275   3.006 -0.1846 -0.5851  0.9510
15197TIP3    H267007   5.130   5.389   2.946 -0.8407  1.0150  4.5777
15198TIP3   OH267008   2.246   1.127  13.736 -0.0151  0.1093 -0.4013
15198TIP3    H167009   2.241   1.086  13.650 -0.6002  0.3106 -0.4652
15198TIP3    H267010   2.275   1.217  13.718 -0.9156  0.4002 -0.4741
15199TIP3   OH267011   0.626   6.178  12.312 -0.4798 -0.1160 -0.2491
15199TIP3    H167012   0.704   6.209  12.357  0.8027 -0.6996 -1.9284
15199TIP3    H267013   0.573   6.137  12.380 -0.0890  1.6605  1.2053
15200TIP3   OH267014   3.866   2.749   1.641  0.5680  0.6195 -0.3267
15200TIP3    H167015   3.791   2.808   1.634 -0.5942 -0.7030  0.3526
15200TIP3    H267016   3.942   2.807   1.646 -0.6006  2.1170  1.3919
15201TIP3   OH267017   3.238   4.018  15.894  0.1864 -0.2350 -0.4027
15201TIP3    H167018   3.204   4.044  15.980 -0.7844 -0.2497 -0.7633
15201TIP3    H267019   3.165   3.972  15.853  0.5699 -0.0502 -1.3117
15202TIP3   OH267020   3.531   3.866  14.698  0.0927 -0.2374 -0.4957
15202TIP3    H167021   3.512   3.885  14.606  0.1832 -0.8044 -0.6312
15202TIP3    H267022   3.456   3.903  14.745  1.6184  3.2225 -0.4351
15203TIP3   OH267023   2.487   2.860  11.352 -0.1817  0.6423  0.7122
15203TIP3    H167024   2.418   2.900  11.405 -0.5879 -0.3840  0.9898
15203TIP3    H267025   2.494   2.770  11.385  1.3612  0.7510  0.7552
15204TIP3   OH267026   3.894   4.855  15.734  0.1463 -0.0933  0.2380
15204TIP3    H167027   3.898   4.825  15.825  0.6430 -0.9450 -0.0492
15204TIP3    H267028   3.809   4.899  15.727 -0.9853 -2.0774  0.5286
15205TIP3   OH267029   3.797   6.632   2.425 -0.0784 -0.1874 -0.1809
15205TIP3    H167030   3.772   6.703   2.484 -0.5973 -0.2975 -0.2623
15205TIP3    H267031   3.838   6.566   2.481 -1.5987 -0.7965  0.2519
15206TIP3   OH267032   2.377   4.443   4.640 -0.3146  0.2084  0.4563
15206TIP3    H167033   2.408   4.427   4.729  1.3149  0.8697  0.0425
15206TIP3    H267034   2.364   4.538   4.636  0.5002  0.3021 -0.2556
15207TIP3   OH267035   4.234   1.029   4.955 -0.0760  1.0220 -0.1043
15207TIP3    H167036   4.161   1.083   4.924 -0.1231  1.6755  1.0501
15207TIP3    H267037   4.304   1.042   4.891 -0.1664  2.3092  0.0367
15208TIP3   OH267038   2.141   3.350  10.910  0.2071  0.0897  0.5105
15208TIP3    H167039   2.223   3.308  10.887 -0.7358 -1.0235 -1.0066
15208TIP3    H267040   2.107   3.386  10.828 -0.8203  0.5397  1.0984
15209TIP3   OH267041   4.641   1.440  13.649 -0.3170 -0.1972 -0.0960
15209TIP3    H167042   4.581   1.406  13.583 -0.8861 -0.3251  0.4679
15209TIP3    H267043   4.603   1.412  13.732 -1.3769  2.6127  0.4823
15210TIP3   OH267044   1.181   5.031  16.898  0.2402  0.4247 -0.1155
15210TIP3    H167045   1.093   5.063  16.877 -0.2972  0.1616  1.5812
15210TIP3    H267046   1.208   4.984  16.819 -1.3910  0.0348 -0.4953
15211TIP3   OH267047   2.901   0.377   1.855  0.1476  0.0662  0.1973
15211TIP3    H167048   2.933   0.460   1.893  0.6032  0.8242 -1.7454
15211TIP3    H267049   2.819   0.400   1.812 -0.2072 -0.7095  0.4419
15212TIP3   OH267050   0.982   0.224   0.187  0.6228 -0.4514  0.2639
15212TIP3    H167051   1.021   0.311   0.177  2.0204 -1.0166  0.6017
15212TIP3    H267052   0.968   0.214   0.281  1.0718 -0.8468  0.2898
15213TIP3   OH267053   6.411   1.374   4.878  0.0883  0.1057  0.1740
15213TIP3    H167054   6.366   1.443   4.928 -0.0713 -0.6314  1.0832
15213TIP3    H267055   6.380   1.385   4.789 -0.6665  0.6285  0.4879
15214TIP3   OH267056   0.502   4.313   5.608 -0.9961 -0.0413  0.6553
15214TIP3    H167057   0.546   4.380   5.661  0.2037 -0.3964  0.1342
15214TIP3    H267058   0.466   4.252   5.672  1.0450 -0.8544  1.0972
15215TIP3   OH267059   0.553   0.080   3.202 -0.6343 -0.2042 -0.0162
15215TIP3    H167060   0.555   0.165   3.247 -0.6722 -0.8684  1.3039
15215TIP3    H267061   0.568   0.101   3.110 -2.2416  1.3798  0.0353
15216TIP3   OH267062   4.560   5.085   1.361 -0.1993 -0.1540  0.2271
15216TIP3    H167063   4.593   5.087   1.451  0.3622  0.7621  0.0186
15216TIP3    H267064   4.609   5.015   1.318 -0.8369 -0.9403  0.7612
15217TIP3   OH267065   1.103   5.171   3.200 -0.2798  0.0931 -1.2168
15217TIP3    H167066   1.029   5.191   3.256 -0.4647 -1.8876 -0.6626
15217TIP3    H267067   1.078   5.204   3.114 -1.3004  0.4861 -0.7851
15218TIP3   OH267068   0.119   3.613   2.355 -0.2161  0.1866  0.0410
15218TIP3    H167069   0.184   3.588   2.420  0.3140 -1.2043 -0.9787
15218TIP3    H267070   0.169   3.658   2.286 -0.6215  0.7454  0.0977
15219TIP3   OH267071   6.159   3.248  12.578 -0.2649  0.7123 -0.3863
15219TIP3    H167072   6.159   3.337  12.543 -0.2217  0.3060 -1.4660
15219TIP3    H267073   6.107   3.198  12.516 -1.2970  0.2063  0.8395
15220TIP3   OH267074   5.156   3.689  14.176  0.5099 -0.3494 -0.0333
15220TIP3    H167075   5.187   3.619  14.234  1.6472 -1.0529 -1.4115
15220TIP3    H267076   5.076   3.654  14.137 -0.1033  0.0127  0.8665
15221TIP3   OH267077   6.416   4.259  12.342 -0.2807 -0.7388 -0.0302
15221TIP3    H167078   6.430   4.324  12.273  0.1136  0.2129  0.9046
15221TIP3    H267079   6.329   4.223  12.324 -0.6709  0.3176 -0.3756
15222TIP3   OH267080   0.615   0.002  13.518 -0.3126  0.2151  0.2962
15222TIP3    H167081   0.646   0.083  13.479 -0.0043 -0.0380  0.0061
15222TIP3    H267082   0.575   0.028  13.601 -0.4105  0.6858  0.1031
15223TIP3   OH267083   0.162   1.923  15.449 -0.4472 -0.4329  0.2780
15223TIP3    H167084   0.125   1.855  15.505 -1.2049 -0.2826 -0.0225
15223TIP3    H267085   0.255   1.926  15.472 -0.3879 -1.5946  0.2639
15224TIP3   OH267086   4.642   5.341  12.214 -0.0304 -0.1333  0.2393
15224TIP3    H167087   4.726   5.298  12.198  0.3056  0.0209  1.5003
15224TIP3    H267088   4.600   5.288  12.281 -0.5290  0.3281  0.2958
15225TIP3   OH267089   1.610   5.561  13.483 -0.2701  0.0657 -0.6597
15225TIP3    H167090   1.654   5.606  13.556 -0.2141 -0.8980 -0.0851
15225TIP3    H267091   1.668   5.575  13.408 -0.1778  0.8089 -0.4624
15226TIP3   OH267092   1.956   0.504   4.084  0.5481 -0.0128 -0.1189
15226TIP3    H167093   1.957   0.447   4.006 -1.3015 -0.2533 -0.0074
15226TIP3    H267094   1.908   0.453   4.150 -1.8603  1.8851 -0.2536
15227TIP3   OH267095   2.433   3.174   1.673  0.1695  0.4761 -0.5748
15227TIP3    H167096   2.382   3.186   1.753  1.2210  0.3102  0.1413
15227TIP3    H267097   2.506   3.235   1.683 -0.2733  1.2738 -1.9349
15228TIP3   OH267098   5.940   0.217   5.030  0.1262  0.6296 -0.0834
15228TIP3    H167099   6.023   0.170   5.026 -1.6980 -2.8269 -0.2924
15228TIP3    H267100   5.906   0.199   5.118 -1.3714  0.1371 -0.7347
15229TIP3   OH267101   2.564   3.719   3.958  0.1312 -0.2694 -0.1857
15229TIP3    H167102   2.586   3.802   4.001  1.1776 -0.3708 -0.5036
15229TIP3    H267103   2.629   3.657   3.989  0.0266 -0.7011 -0.7987
15230TIP3   OH267104   1.253   2.946   2.210 -0.1746  0.3566 -0.4381
15230TIP3    H167105   1.311   2.898   2.151  0.2614  0.3595 -0.0152
15230TIP3    H267106   1.219   2.879   2.270  0.6011  0.5865  0.2889
15231TIP3   OH267107   2.692   4.071   6.185  0.1292  0.1534  0.3516
15231TIP3    H167108   2.674   4.160   6.215  2.0083  0.1577  1.6733
15231TIP3    H267109   2.729   4.028   6.262  0.9931 -1.2032 -0.7901
15232TIP3   OH267110   2.776   3.138   1.868  0.3229 -0.1210  0.6940
15232TIP3    H167111   2.770   3.069   1.802  0.4603 -0.4159  0.9868
15232TIP3    H267112   2.732   3.213   1.828 -0.6444 -0.6461  0.7185
15233TIP3   OH267113   6.261   3.269  14.948  0.1671 -0.0965 -0.4401
15233TIP3    H167114   6.224   3.232  15.028 -2.3211  1.4893 -0.7508
15233TIP3    H267115   6.277   3.193  14.892 -0.5127 -1.0265  0.5895
15234TIP3   OH267116   4.942   6.063   2.629  0.2899  0.4928 -0.0092
15234TIP3    H167117   4.895   6.066   2.712  0.7782  0.0964  0.2835
15234TIP3    H267118   4.873   6.049   2.563  0.0966 -1.3294  0.5277
15235TIP3   OH267119   0.567   2.469  15.446  0.6127 -0.6080 -0.0023
15235TIP3    H167120   0.554   2.480  15.352  1.9182  0.4984 -0.0707
15235TIP3    H267121   0.567   2.374  15.459 -0.5538 -0.7627 -0.9589
15236TIP3   OH267122   4.935   3.498   2.496 -0.1067 -0.1110 -0.1031
15236TIP3    H167123   4.935   3.583   2.451 -1.9644 -0.8834 -1.7079
15236TIP3    H267124   4.918   3.519   2.588 -1.3748  1.2359 -0.6074
15237TIP3   OH267125   0.178   4.832  16.727 -0.3881  0.0012  0.5895
15237TIP3    H167126   0.205   4.905  16.671  1.0607 -0.7755  0.2284
15237TIP3    H267127   0.212   4.754  16.684 -0.1864 -0.7187  1.9874
15238TIP3   OH267128   0.540   0.149   0.773  0.3811 -0.4911 -0.1576
15238TIP3    H167129   0.494   0.138   0.690 -0.6690 -0.0010  0.3386
15238TIP3    H267130   0.478   0.118   0.839  0.4593  0.8507  0.5898
15239TIP3   OH267131   5.103   6.463  16.023  0.2788 -0.2590 -0.4215
15239TIP3    H167132   5.176   6.402  16.036  1.1809  1.0135  0.7637
15239TIP3    H267133   5.042   6.442  16.093  0.6272  0.2196  0.0361
15240TIP3   OH267134   0.483   1.837  16.574  0.3369 -0.5925 -0.3488
15240TIP3    H167135   0.412   1.801  16.627 -0.0201 -2.2402 -1.8671
15240TIP3    H267136   0.562   1.827  16.628 -0.4036  0.4459  0.9943
15241TIP3   OH267137   1.500   1.632   3.571  0.3566  0.8714 -0.3430
15241TIP3    H167138   1.445   1.703   3.603  1.1119  0.2374  2.6063
15241TIP3    H267139   1.499   1.567   3.640  2.5702 -0.4020 -1.3810
15242TIP3   OH267140   3.476   1.587  14.112  0.3078  0.0053 -0.4333
15242TIP3    H167141   3.481   1.683  14.114 -1.4744  0.0974  1.1428
15242TIP3    H267142   3.535   1.562  14.040  0.2104  2.3086 -1.3891
15243TIP3   OH267143   5.668   3.278   2.560  0.0217  0.0954  0.6844
15243TIP3    H167144   5.625   3.193   2.570  0.4385 -0.0663  1.1444
15243TIP3    H267145   5.749   3.270   2.610  2.2598 -0.7109 -2.6957
15244TIP3   OH267146   3.084   3.183   5.128  0.6444 -0.7090  0.0330
15244TIP3    H167147   3.036   3.241   5.186  0.8594 -0.1765 -0.3115
15244TIP3    H267148   3.076   3.096   5.168 -0.3528 -0.5857  0.1249
15245TIP3   OH267149   3.455   2.597   3.355 -0.2551 -0.1419  0.7137
15245TIP3    H167150   3.460   2.687   3.388 -1.3643 -0.1603  0.9721
15245TIP3    H267151   3.389   2.555   3.410  1.8380 -1.7926  2.1085
15246TIP3   OH267152   4.984   0.429   6.424  0.1686  0.4982  0.1537
15246TIP3    H167153   4.945   0.497   6.478 -0.6985  0.1476 -0.0033
15246TIP3    H267154   4.989   0.352   6.481 -0.8588  0.0929 -0.2741
15247TIP3   OH267155   4.516   1.484  11.909 -0.3728 -0.0800 -0.0080
15247TIP3    H167156   4.436   1.535  11.895 -0.5829 -0.9616 -2.4521
15247TIP3    H267157   4.578   1.517  11.844  0.9291 -0.1408  1.1539
15248TIP3   OH267158   1.250   2.894  13.698 -0.1229  0.0429 -0.2299
15248TIP3    H167159   1.186   2.948  13.652  1.3161  0.2330 -2.1751
15248TIP3    H267160   1.213   2.806  13.698 -0.5522  0.2222 -0.9947
15249TIP3   OH267161   2.046   5.417   3.968  0.3753 -0.2353 -0.1631
15249TIP3    H167162   2.057   5.338   3.914 -1.5696  0.8651 -2.3153
15249TIP3    H267163   2.128   5.465   3.957  0.9139 -1.1210 -0.1829
15250TIP3   OH267164   3.595   4.796   4.391  0.5384 -0.8828  0.5542
15250TIP3    H167165   3.531   4.726   4.373  2.6424 -3.0319  0.9281
15250TIP3    H267166   3.658   4.756   4.451  0.8080  2.0121  2.3737
15251TIP3   OH267167   6.206   5.438   2.621 -0.2931 -0.5603  0.2627
15251TIP3    H167168   6.207   5.531   2.645  1.6331 -0.5597  0.2808
15251TIP3    H267169   6.186   5.438   2.528  0.9474 -0.0359 -0.0183
15252TIP3   OH267170   4.105   3.827   2.667  0.0318  0.6354  0.3390
15252TIP3    H167171   4.138   3.915   2.683  2.2395  0.1921 -1.3362
15252TIP3    H267172   4.112   3.783   2.752 -0.1321  1.7562  0.9493
15253TIP3   OH267173   3.671   2.819  11.282  0.5970 -0.0095  0.1652
15253TIP3    H167174   3.585   2.862  11.288  0.9704  0.6315  0.9791
15253TIP3    H267175   3.650   2.730  11.252 -0.0865  1.0803 -2.9976
15254TIP3   OH267176   0.226   1.548   5.335  0.5740  0.6088  0.0705
15254TIP3    H167177   0.209   1.457   5.311 -0.4154  0.4990  1.1368
15254TIP3    H267178   0.307   1.570   5.288  0.5481 -0.6455 -0.6072
15255TIP3   OH267179   4.642   5.452  14.083  0.5142 -0.2601  0.1350
15255TIP3    H167180   4.621   5.366  14.120 -0.9180 -0.8148 -1.8291
15255TIP3    H267181   4.725   5.438  14.036  0.0464 -0.7120 -0.5715
15256TIP3   OH267182   2.700   2.163   4.712 -0.1173 -0.4595  0.1876
15256TIP3    H167183   2.653   2.098   4.661 -0.6337  0.2058 -0.2082
15256TIP3    H267184   2.632   2.211   4.758  0.3552 -1.2026  1.7191
15257TIP3   OH267185   6.678   6.818  13.656  0.1179 -0.2101 -0.5604
15257TIP3    H167186   6.640   6.734  13.682  1.9256 -1.2699 -1.1350
15257TIP3    H267187   6.769   6.796  13.633  0.1661  1.6281 -2.3243
15258TIP3   OH267188   3.327   0.885  12.216 -0.4014 -0.4177  0.2298
15258TIP3    H167189   3.252   0.936  12.246 -0.3019 -0.7534  1.0804
15258TIP3    H267190   3.347   0.921  12.130 -0.4925  0.8055  0.6944
15259TIP3   OH267191   4.941   6.749  12.782  0.2238  0.8977 -0.3928
15259TIP3    H167192   4.861   6.735  12.833 -0.7437  1.0336 -1.8245
15259TIP3    H267193   4.990   6.814  12.833 -0.8745  1.3103  0.1906
15260TIP3   OH267194   3.112   3.991   3.776  0.0278 -0.1568 -0.0221
15260TIP3    H167195   3.062   4.070   3.799  0.3753  0.1593 -0.3253
15260TIP3    H267196   3.118   3.994   3.681  1.6683  0.4827  0.0649
15261TIP3   OH267197   4.539   5.306  11.173  0.1609 -0.4773  0.3345
15261TIP3    H167198   4.467   5.366  11.153  2.0241  1.2177 -1.9062
15261TIP3    H267199   4.505   5.249  11.241 -2.9415  0.8629  0.0619
15262TIP3   OH267200   3.847   0.202   5.997 -0.5309  0.0194 -0.1782
15262TIP3    H167201   3.884   0.138   6.058  0.1333 -0.6613 -1.2517
15262TIP3    H267202   3.755   0.208   6.021 -0.1110  0.4356  1.4408
15263TIP3   OH267203   5.753   2.377  15.993 -0.0145 -0.9660  0.7943
15263TIP3    H167204   5.820   2.351  16.056  1.6083  0.7777 -0.1111
15263TIP3    H267205   5.799   2.433  15.930 -1.8758 -1.4628 -1.1291
15264TIP3   OH267206   5.340   6.156   3.258 -0.2549 -0.3335 -0.4440
15264TIP3    H167207   5.395   6.157   3.336  1.5260  1.6115 -1.6128
15264TIP3    H267208   5.393   6.114   3.190 -0.4024  0.9786 -1.4261
15265TIP3   OH267209   0.301   1.814  14.999  0.0143 -0.0439 -0.0537
15265TIP3    H167210   0.352   1.893  14.980 -1.0992  0.1753 -2.4399
15265TIP3    H267211   0.314   1.758  14.923  0.6112 -2.1412  1.5099
15266TIP3   OH267212   0.846   0.819   1.488  0.3702 -0.9044  0.1055
15266TIP3    H167213   0.851   0.841   1.395 -0.5045  0.6033  0.3701
15266TIP3    H267214   0.911   0.877   1.530  1.0869 -1.8973  0.3965
15267TIP3   OH267215   0.196   2.061  11.506 -0.4539 -0.1795 -0.1046
15267TIP3    H167216   0.217   1.968  11.504 -0.1489 -0.1202  0.3007
15267TIP3    H267217   0.213   2.092  11.417  0.3096 -0.3248 -0.0128
15268TIP3   OH267218   6.803   1.235  11.717 -0.1967  0.4564  0.3046
15268TIP3    H167219   6.730   1.195  11.766  0.2107 -0.2984  0.3158
15268TIP3    H267220   6.818   1.319  11.759  0.4288 -0.3625  1.7745
15269TIP3   OH267221   5.573   2.754   0.227 -0.2024 -0.3233 -0.4859
15269TIP3    H167222   5.504   2.751   0.292  0.1205 -1.8464 -0.1781
15269TIP3    H267223   5.631   2.824   0.256 -0.6818 -0.2147  0.2156
15270TIP3   OH267224   6.377   1.124  11.905  0.1890  0.0323 -0.2518
15270TIP3    H167225   6.335   1.082  11.829  1.6653  1.8384 -2.1823
15270TIP3    H267226   6.397   1.051  11.964  0.7994 -1.7465 -2.5209
15271TIP3   OH267227   5.352   0.682  14.238 -0.2625  0.7362 -0.3430
15271TIP3    H167228   5.338   0.702  14.331 -0.8796 -0.2114 -0.2211
15271TIP3    H267229   5.266   0.654  14.206  0.2258 -0.2502 -0.8517
15272TIP3   OH267230   3.357   4.295  14.259 -0.0082  0.3110 -0.5635
15272TIP3    H167231   3.313   4.340  14.188 -1.8348 -0.8747 -0.2447
15272TIP3    H267232   3.346   4.352  14.335  0.9385  1.0262 -0.9357
15273TIP3   OH267233   4.160   4.417  13.522  0.2062 -0.2406 -0.0071
15273TIP3    H167234   4.111   4.458  13.450  0.3925  0.7023  0.3872
15273TIP3    H267235   4.236   4.473  13.534  0.4674 -0.7077  0.5620
15274TIP3   OH267236   4.009   6.624   2.241 -0.0016 -0.0249 -0.2094
15274TIP3    H167237   4.077   6.610   2.307  0.6477  0.4894 -0.7524
15274TIP3    H267238   3.933   6.578   2.275 -0.0705  1.2331  1.5096
15275TIP3   OH267239   4.893   1.602   1.751 -0.2417 -0.1610 -0.5728
15275TIP3    H167240   4.840   1.599   1.671  0.4629  1.3052 -1.1438
15275TIP3    H267241   4.858   1.678   1.799  0.1908 -0.2522 -0.1105
15276TIP3   OH267242   5.290   4.753  14.909 -0.4014  0.4808 -0.7357
15276TIP3    H167243   5.195   4.765  14.902 -0.7481 -0.8484  1.0665
15276TIP3    H267244   5.325   4.842  14.907 -1.6425  0.9750 -1.7544
15277TIP3   OH267245   2.328   5.019   0.732  0.0414  0.1600  0.3532
15277TIP3    H167246   2.353   4.947   0.674  0.9493 -0.4714  1.4850
15277TIP3    H267247   2.252   4.986   0.779 -1.1589  0.9507 -0.9517
15278TIP3   OH267248   5.063   3.247   3.512 -0.5340 -0.4771  0.0901
15278TIP3    H167249   5.080   3.305   3.438  1.6893 -1.1388  0.0257
15278TIP3    H267250   5.061   3.304   3.589  0.0235 -0.1174 -0.1619
15279TIP3   OH267251   5.253   2.381  16.950  0.4303  0.1034 -0.2010
15279TIP3    H167252   5.219   2.469  16.963  1.7728  0.6165  0.0489
15279TIP3    H267253   5.346   2.395  16.929  0.7494 -1.2721  0.2288
15280TIP3   OH267254   1.869   2.579  16.195  0.5580  0.0167  0.6459
15280TIP3    H167255   1.801   2.598  16.130  1.2727  1.2011  0.2147
15280TIP3    H267256   1.881   2.484  16.189  3.1486  0.3628 -3.6418
15281TIP3   OH267257   3.400   4.559   0.207  0.3122 -0.3265  0.1702
15281TIP3    H167258   3.408   4.467   0.234  1.2926 -0.5608 -0.8539
15281TIP3    H267259   3.489   4.594   0.213  0.2885  0.0310 -1.2161
15282TIP3   OH267260   5.155   1.087  11.926  0.0513  0.6417 -0.3065
15282TIP3    H167261   5.151   1.001  11.969 -0.8686  1.7817  2.0845
15282TIP3    H267262   5.083   1.087  11.863  0.7158 -0.6778 -1.1035
15283TIP3   OH267263   5.115   6.560  15.530  0.1554  0.2592  0.3748
15283TIP3    H167264   5.131   6.529  15.619  1.1671  0.8324  0.3995
15283TIP3    H267265   5.084   6.482  15.484 -0.9187  0.0790  1.3478
15284TIP3   OH267266   1.680   6.595   4.412 -0.6506 -0.1347 -0.4102
15284TIP3    H167267   1.774   6.607   4.424 -0.7097  1.1273 -1.0968
15284TIP3    H267268   1.640   6.678   4.439 -1.2709  0.5460 -3.1504
15285TIP3   OH267269   5.508   2.804   2.187  1.1337 -0.2911  0.2468
15285TIP3    H167270   5.494   2.727   2.243 -1.4009 -1.1538 -1.3704
15285TIP3    H267271   5.464   2.875   2.233  1.7702 -0.2549  0.8111
15286TIP3   OH267272   4.898   1.745  11.138  0.0651 -0.2319  0.0469
15286TIP3    H167273   4.882   1.792  11.056 -1.5212 -0.4226  0.2215
15286TIP3    H267274   4.970   1.685  11.118  0.5459  0.6106 -0.8341
15287TIP3   OH267275   0.467   1.331  15.433  0.8064  0.5286  0.1413
15287TIP3    H167276   0.400   1.350  15.498 -0.8549  1.1244 -1.6421
15287TIP3    H267277   0.542   1.301  15.484 -0.0494  1.9298  2.3724
15288TIP3   OH267278   0.867   2.588  14.166 -0.2391  0.2110  0.2941
15288TIP3    H167279   0.841   2.496  14.160 -2.6910  0.6268  2.5475
15288TIP3    H267280   0.857   2.610  14.259 -0.6893  2.9866 -0.3119
15289TIP3   OH267281   2.369   5.597  11.630 -0.1765  0.3084 -0.0461
15289TIP3    H167282   2.432   5.669  11.629 -0.0947  0.3356  2.0560
15289TIP3    H267283   2.422   5.518  11.634 -0.2646  0.2390 -0.2498
15290TIP3   OH267284   4.897   2.133   2.080  0.2699  0.1873 -0.2636
15290TIP3    H167285   4.892   2.131   1.984 -0.1362  0.8228 -0.2588
15290TIP3    H267286   4.963   2.066   2.102  1.4105  1.0120 -1.0712
15291TIP3   OH267287   1.887   0.267   5.891 -0.3954 -0.4910 -0.2409
15291TIP3    H167288   1.941   0.339   5.857 -3.3668  2.4514  0.7681
15291TIP3    H267289   1.920   0.253   5.980  0.4899 -0.7512 -0.5954
15292TIP3   OH267290   0.175   5.177   3.247 -0.2868  0.5581  0.3108
15292TIP3    H167291   0.215   5.262   3.229  0.8185  0.2590  1.2591
15292TIP3    H267292   0.231   5.113   3.204  0.1156  0.1533  1.4152
15293TIP3   OH267293   1.662   3.596  13.567  0.3058  0.2732  0.2855
15293TIP3    H167294   1.665   3.623  13.475 -0.1283  0.0302  0.2004
15293TIP3    H267295   1.622   3.670  13.612  0.5654  0.4134  0.2853
15294TIP3   OH267296   6.564   0.416  14.819  0.7517 -0.6299 -0.2019
15294TIP3    H167297   6.531   0.483  14.879 -0.6253 -0.5631 -0.9956
15294TIP3    H267298   6.640   0.379  14.863  0.9004  0.7324  0.7197
15295TIP3   OH267299   4.895   2.927   1.841 -0.3401  0.4753  0.2411
15295TIP3    H167300   4.860   2.875   1.769 -0.4055  1.1229 -0.2110
15295TIP3    H267301   4.865   3.016   1.822  0.7252  0.8772  0.3778
15296TIP3   OH267302   0.803   5.859  16.788 -0.9009 -0.1298  0.2740
15296TIP3    H167303   0.842   5.833  16.704  1.9151  0.3467  1.3271
15296TIP3    H267304   0.803   5.779  16.841  0.0850  0.1924  0.7778
15297TIP3   OH267305   2.505   1.116   4.318 -0.4293 -0.2633  0.1497
15297TIP3    H167306   2.539   1.188   4.266  0.6492 -1.0134 -0.2251
15297TIP3    H267307   2.416   1.103   4.286 -0.1209 -0.0677 -0.8167
15298TIP3   OH267308   6.290   0.866   3.841  0.2171  0.2215 -0.0050
15298TIP3    H167309   6.325   0.783   3.874  0.3402  0.0429 -0.5766
15298TIP3    H267310   6.235   0.841   3.767  1.2331  0.7565 -0.9584
15299TIP3   OH267311   1.420   3.636   5.537 -0.2324 -0.1625  0.3686
15299TIP3    H167312   1.511   3.646   5.567 -0.3374 -0.8684  0.9348
15299TIP3    H267313   1.419   3.678   5.451  0.7296 -0.5166  0.1734
15300TIP3   OH267314   1.361   2.383   2.699 -0.5093 -0.1253 -0.0345
15300TIP3    H167315   1.342   2.396   2.606 -1.2240  1.4190  0.2992
15300TIP3    H267316   1.439   2.435   2.715  0.3206 -1.3513 -0.0122
15301TIP3   OH267317   1.269   1.150   3.087 -0.1060 -0.0580  0.5679
15301TIP3    H167318   1.334   1.205   3.131  0.1678  0.1963 -0.1383
15301TIP3    H267319   1.196   1.209   3.068 -0.4824 -0.3053  1.2098
15302TIP3   OH267320   5.178   0.599  15.494  0.2900 -0.3948 -0.1435
15302TIP3    H167321   5.233   0.521  15.484 -0.3304 -0.8765  0.1019
15302TIP3    H267322   5.089   0.564  15.503 -0.2085  0.4141 -1.6657
15303TIP3   OH267323   4.587   4.683   4.654  0.1828 -0.0930 -0.5803
15303TIP3    H167324   4.681   4.694   4.641  0.3223 -0.8881 -0.3221
15303TIP3    H267325   4.559   4.633   4.577  0.1375 -0.6254 -0.2219
15304TIP3   OH267326   1.465   0.866   1.558  0.1208 -0.5153 -0.2744
15304TIP3    H167327   1.369   0.858   1.554 -0.0022  0.5438  0.1177
15304TIP3    H267328   1.485   0.945   1.508  0.6511  0.0416  0.7874
15305TIP3   OH267329   5.091   0.487   4.551  0.2051 -0.4752 -0.2370
15305TIP3    H167330   5.168   0.523   4.505  0.9161 -0.3726  0.9808
15305TIP3    H267331   5.128   0.440   4.625 -0.8674 -1.5418 -0.3561
15306TIP3   OH267332   1.506   2.905  13.786 -0.2919 -0.2804  0.3538
15306TIP3    H167333   1.554   2.835  13.830 -2.6259  0.0800  3.8590
15306TIP3    H267334   1.425   2.864  13.757 -0.0371  0.1790 -1.0936
15307TIP3   OH267335   3.544   0.519   0.475  0.4113 -0.2823 -0.1888
15307TIP3    H167336   3.604   0.517   0.400 -1.2827 -1.7013 -1.6235
15307TIP3    H267337   3.541   0.428   0.505 -1.7615 -0.5050 -0.8681
15308TIP3   OH267338   0.559   3.269  12.249 -0.5500 -0.0672 -0.2010
15308TIP3    H167339   0.536   3.206  12.318  0.3672 -1.0839 -0.7919
15308TIP3    H267340   0.601   3.216  12.181 -2.4686  0.6995 -2.1027
15309TIP3   OH267341   4.704   2.976   5.009 -0.3216 -0.4758  0.3020
15309TIP3    H167342   4.631   2.956   4.950 -1.1810  0.5384  0.9847
15309TIP3    H267343   4.772   3.011   4.953 -1.4294  1.2533 -0.0463
15310TIP3   OH267344   2.603   3.235  15.163 -0.1484  0.3354 -0.0004
15310TIP3    H167345   2.594   3.221  15.257  0.8595  0.5046  0.1321
15310TIP3    H267346   2.545   3.309  15.144 -1.5665 -0.6906  0.1942
15311TIP3   OH267347   0.929   1.519   3.301 -0.5548  0.3007 -0.6212
15311TIP3    H167348   0.914   1.556   3.388  1.4494 -0.7691  0.2456
15311TIP3    H267349   0.889   1.581   3.241 -0.0308  2.2537  0.9519
15312TIP3   OH267350   0.053   3.229  13.915  0.1737 -0.2093 -0.0182
15312TIP3    H167351   0.137   3.274  13.916 -0.9646  2.0894  0.7752
15312TIP3    H267352   0.074   3.138  13.934  2.5569  0.0626 -0.9711
15313TIP3   OH267353   5.749   2.768   2.038  0.1268 -0.6821 -0.4292
15313TIP3    H167354   5.695   2.778   2.116  2.7464 -0.1015  1.4568
15313TIP3    H267355   5.782   2.856   2.020 -0.3487 -0.8266 -2.1764
15314TIP3   OH267356   2.337   1.149   6.390  0.7105 -0.0867 -0.1597
15314TIP3    H167357   2.355   1.064   6.348  1.5193  0.8306 -1.7849
15314TIP3    H267358   2.411   1.161   6.450 -0.3047 -1.2850  1.3845
15315TIP3   OH267359   1.324   2.617  14.777 -0.2440 -0.2156  0.0837
15315TIP3    H167360   1.277   2.655  14.702  1.2406  2.4285  0.3694
15315TIP3    H267361   1.388   2.557  14.738 -0.3712  0.1274 -0.6582
15316TIP3   OH267362   6.368   0.606   6.473 -0.6330  0.0741  0.5520
15316TIP3    H167363   6.294   0.551   6.447 -0.2055 -0.8473  1.2069
15316TIP3    H267364   6.444   0.548   6.468  0.4552  1.5319 -2.2024
15317TIP3   OH267365   5.908   1.809  14.357  0.0423  0.0508 -0.0042
15317TIP3    H167366   5.853   1.865  14.303  0.9792 -0.3879 -1.4566
15317TIP3    H267367   5.966   1.869  14.403  0.3028  0.3497 -0.7144
15318TIP3   OH267368   0.036   2.787   4.011  0.5688 -0.7748  0.2933
15318TIP3    H167369   0.081   2.722   4.064 -0.7324 -0.5588  1.7210
15318TIP3    H267370   0.001   2.851   4.074 -0.0001  0.1480 -0.9037
15319TIP3   OH267371   2.996   2.052   0.290  0.4957  0.7748 -0.2821
15319TIP3    H167372   3.071   1.995   0.308  1.3629  0.1359 -4.8017
15319TIP3    H267373   2.920   2.000   0.314  1.3644  0.0202  0.9749
15320TIP3   OH267374   1.403   1.300   4.990 -0.3324  0.1442  0.0712
15320TIP3    H167375   1.444   1.383   5.015  0.9193 -0.4428  0.0171
15320TIP3    H267376   1.334   1.287   5.055 -0.2906  1.0290  0.3058
15321TIP3   OH267377   1.954   3.801  13.187 -0.2327 -0.5566  0.4046
15321TIP3    H167378   2.035   3.781  13.233 -0.9436 -1.0889  1.4755
15321TIP3    H267379   1.896   3.727  13.207 -0.8678 -0.3749 -0.6462
15322TIP3   OH267380   3.826   0.734   1.233  0.0122 -0.9512  0.0951
15322TIP3    H167381   3.841   0.640   1.242  1.6252 -0.5599  2.9759
15322TIP3    H267382   3.879   0.773   1.303  1.1824  2.2893 -2.3539
15323TIP3   OH267383   3.002   5.693  12.576 -0.2989 -0.0945  0.3223
15323TIP3    H167384   3.074   5.682  12.639  0.0501 -2.2176 -0.3541
15323TIP3    H267385   3.039   5.748  12.508  1.1328 -1.9672 -0.5268
15324TIP3   OH267386   4.514   3.025   3.882  0.0817 -0.1851 -0.2066
15324TIP3    H167387   4.477   3.089   3.943 -0.3906 -0.9889  0.3546
15324TIP3    H267388   4.438   2.981   3.844  0.4217 -2.1836  1.3174
15325TIP3   OH267389   5.304   2.314  15.699  0.0189  0.1750 -0.1452
15325TIP3    H167390   5.264   2.400  15.688 -0.6369  0.3356  2.6779
15325TIP3    H267391   5.368   2.326  15.770 -0.3001 -1.6906  0.5271
15326TIP3   OH267392   5.358   2.943   0.146 -0.3450 -0.0230 -0.3034
15326TIP3    H167393   5.375   2.887   0.070  0.2621  1.7700 -1.5955
15326TIP3    H267394   5.438   2.995   0.155 -1.0252  0.9101  0.5592
15327TIP3   OH267395   3.962   3.767  15.589 -0.4792 -0.1924  0.0418
15327TIP3    H167396   4.000   3.802  15.508 -0.0067  0.6135  0.5939
15327TIP3    H267397   3.936   3.678  15.567  0.3617 -0.2526 -0.7821
15328TIP3   OH267398   5.749   4.908  14.006 -0.0824  0.2566  1.1948
15328TIP3    H167399   5.828   4.930  14.055  1.4236  1.0639 -1.4078
15328TIP3    H267400   5.689   4.982  14.023 -0.0451 -0.0059  2.5952
15329TIP3   OH267401   1.925   5.127  11.501 -0.3607 -0.7886  0.6400
15329TIP3    H167402   1.859   5.175  11.550 -0.7352 -0.3786 -0.2290
15329TIP3    H267403   1.909   5.035  11.522 -0.8050 -0.6504  0.9253
15330TIP3   OH267404   1.387   4.989   4.460 -0.2262  0.5421 -0.0679
15330TIP3    H167405   1.364   5.081   4.444 -1.3398  0.2593 -0.2058
15330TIP3    H267406   1.348   4.970   4.546 -1.0895 -0.1419 -0.5988
15331TIP3   OH267407   3.118   3.364   2.813 -0.2970  0.3440 -0.6247
15331TIP3    H167408   3.137   3.274   2.788 -0.3111 -0.1284  0.9715
15331TIP3    H267409   3.098   3.408   2.730 -1.7395 -1.4579 -1.3016
15332TIP3   OH267410   5.744   0.250   2.857 -0.1336  0.5641  1.3309
15332TIP3    H167411   5.654   0.245   2.890 -0.3866 -1.1250  0.5003
15332TIP3    H267412   5.794   0.193   2.916 -0.3052 -1.2730 -0.2033
15333TIP3   OH267413   4.293   5.802  15.737  0.9745  0.0403 -0.6408
15333TIP3    H167414   4.311   5.709  15.751 -0.5035 -0.2701 -0.6495
15333TIP3    H267415   4.336   5.822  15.654  0.7308 -0.8118 -0.9848
15334TIP3   OH267416   4.731   5.173  14.363  0.2346  0.0386 -0.3838
15334TIP3    H167417   4.773   5.098  14.321 -0.5283  1.0080 -3.0841
15334TIP3    H267418   4.804   5.228  14.392  0.8405 -0.0041 -1.7656
15335TIP3   OH267419   4.722   0.360  10.985  0.3258 -0.6778 -0.0181
15335TIP3    H167420   4.757   0.275  10.955 -0.3052 -1.4700  1.4114
15335TIP3    H267421   4.766   0.375  11.068 -0.9073 -0.4818  0.6045
15336TIP3   OH267422   5.642   2.541  14.516  0.0719 -0.3599  0.4271
15336TIP3    H167423   5.558   2.571  14.551  0.6249 -1.3035  2.6857
15336TIP3    H267424   5.618   2.492  14.437 -1.2855  1.0920 -0.1322
15337TIP3   OH267425   1.419   1.457  11.391  0.0007  0.2655 -0.5372
15337TIP3    H167426   1.476   1.532  11.375  0.0066  0.4654  0.3483
15337TIP3    H267427   1.467   1.405  11.456 -0.9727  0.6135  0.4885
15338TIP3   OH267428   3.510   3.308   3.440  0.5593 -0.2782  0.3131
15338TIP3    H167429   3.546   3.327   3.527 -0.1686  0.8511  0.3929
15338TIP3    H267430   3.543   3.378   3.384 -1.3404  0.7205  0.3601
15339TIP3   OH267431   3.874   4.433  14.441 -1.0835 -0.2518  0.6338
15339TIP3    H167432   3.799   4.391  14.399  0.4652 -2.3953 -0.1639
15339TIP3    H267433   3.921   4.361  14.484  1.7767  0.5352 -0.8923
15340TIP3   OH267434   1.242   0.108  14.268  0.1952 -0.2241  0.4620
15340TIP3    H167435   1.175   0.177  14.269 -0.2198 -0.4357 -2.4421
15340TIP3    H267436   1.195   0.028  14.291  0.0979  0.0335  1.1996
15341TIP3   OH267437   3.309   1.801  13.696 -0.5017  0.9538 -0.0181
15341TIP3    H167438   3.276   1.719  13.659  2.3144 -0.7459  0.8719
15341TIP3    H267439   3.236   1.836  13.747 -2.5379  0.2911 -2.3150
15342TIP3   OH267440   4.863   4.696   4.721  0.2579 -0.1033 -0.3515
15342TIP3    H167441   4.935   4.667   4.777  0.5461 -0.4290 -0.8716
15342TIP3    H267442   4.879   4.789   4.706  0.5037 -0.1479 -0.3622
15343TIP3   OH267443   3.357   5.362   2.887  0.5634  0.0961  0.2155
15343TIP3    H167444   3.324   5.275   2.909 -1.4974  0.2691 -1.7233
15343TIP3    H267445   3.400   5.351   2.802 -0.7918  1.1066 -0.6571
15344TIP3   OH267446   0.774   5.517   4.260 -0.3091  0.3971  0.1600
15344TIP3    H167447   0.751   5.599   4.303 -1.0504 -0.0735  0.6836
15344TIP3    H267448   0.705   5.504   4.195 -0.9618 -0.4748  0.9948
15345TIP3   OH267449   1.384   0.612   5.039 -0.0687 -0.2879  0.3164
15345TIP3    H167450   1.377   0.690   5.094  0.1223 -0.3952  0.4932
15345TIP3    H267451   1.297   0.604   4.998  0.6362  1.4625 -1.6926
15346TIP3   OH267452   1.952   5.152   1.522 -0.7579  0.1415  0.5311
15346TIP3    H167453   1.935   5.100   1.444 -0.3811  0.8499 -0.0244
15346TIP3    H267454   2.028   5.110   1.563 -0.2512  0.4371 -0.0889
15347TIP3   OH267455   5.395   6.708   1.885 -0.2497  0.5198 -0.7637
15347TIP3    H167456   5.354   6.758   1.814  0.1851  0.9472 -0.7195
15347TIP3    H267457   5.485   6.695   1.855 -0.0429  0.7672 -0.2545
15348TIP3   OH267458   3.829   0.155   0.882 -0.1609  0.4312  0.0071
15348TIP3    H167459   3.738   0.184   0.873  0.7066  2.8084 -2.5671
15348TIP3    H267460   3.866   0.166   0.795  2.8248  0.3512  1.1484
15349TIP3   OH267461   1.901   1.152  13.454 -0.3386 -0.3148  0.5992
15349TIP3    H167462   1.853   1.078  13.416  0.2404 -0.5672  0.3454
15349TIP3    H267463   1.949   1.115  13.528  1.0827 -0.5262 -0.3765
15350TIP3   OH267464   6.458   4.556  16.387 -0.2130  0.1437  0.2370
15350TIP3    H167465   6.547   4.592  16.387 -0.2700  0.4160  2.0863
15350TIP3    H267466   6.466   4.474  16.436 -0.9766  0.2205  0.4970
15351TIP3   OH267467   4.781   2.186   2.931  0.0802  0.5264  0.6938
15351TIP3    H167468   4.690   2.207   2.907  0.6169  0.8321 -1.3082
15351TIP3    H267469   4.776   2.101   2.974 -1.3090  1.2361  2.0223
15352TIP3   OH267470   5.090   1.553  15.497  0.1651 -0.0437 -0.3857
15352TIP3    H167471   5.026   1.488  15.470  0.0145  0.1555 -0.5057
15352TIP3    H267472   5.053   1.637  15.469 -0.0170  0.1719  0.4856
15353TIP3   OH267473   4.469   3.087  11.043  0.3190 -0.4597  0.8733
15353TIP3    H167474   4.450   3.003  11.001 -1.6240  1.1377 -1.7227
15353TIP3    H267475   4.538   3.126  10.989 -1.0638  0.9300  0.0344
15354TIP3   OH267476   3.820   1.713  16.001  0.0302 -0.5723  0.4171
15354TIP3    H167477   3.784   1.699  15.913  0.6670  0.1119  0.0444
15354TIP3    H267478   3.856   1.801  15.999  0.6131 -0.7829  1.1825
15355TIP3   OH267479   5.901   0.502  12.860  0.1005  0.2706 -0.5926
15355TIP3    H167480   5.896   0.512  12.765  0.8136 -3.2585 -1.1387
15355TIP3    H267481   5.995   0.491  12.878 -0.0430  0.7064  0.5184
15356TIP3   OH267482   2.682   3.756  13.080  0.3099  0.2552 -0.7200
15356TIP3    H167483   2.758   3.814  13.086 -1.0137  2.0922 -0.8547
15356TIP3    H267484   2.685   3.722  12.991  1.8289 -1.0030 -0.2386
15357TIP3   OH267485   4.784   4.442  12.083 -0.5826  0.2469 -0.6262
15357TIP3    H167486   4.854   4.383  12.054 -1.6758 -1.5836  0.3015
15357TIP3    H267487   4.791   4.517  12.024  0.4215 -1.1039 -2.3572
15358TIP3   OH267488   6.359   3.627  13.074 -0.3173 -0.3952  0.5103
15358TIP3    H167489   6.390   3.618  13.164  0.7724  0.1536  0.2075
15358TIP3    H267490   6.392   3.712  13.046  0.9660 -1.3217 -0.9901
15359TIP3   OH267491   2.953   3.149  12.836 -0.3171 -0.2560 -0.6201
15359TIP3    H167492   2.885   3.089  12.868  0.1857 -1.0563 -1.0205
15359TIP3    H267493   2.904   3.220  12.795 -0.9265 -0.7621 -0.7942
15360TIP3   OH267494   1.672   4.536   1.842 -0.0408 -0.6096 -0.4453
15360TIP3    H167495   1.689   4.588   1.921  1.5896 -1.0781 -0.4539
15360TIP3    H267496   1.657   4.447   1.875  1.6046 -1.0047 -0.6908
15361TIP3   OH267497   3.324   0.202  14.572  0.0913 -0.5090 -0.1849
15361TIP3    H167498   3.235   0.213  14.538 -0.7624 -0.6467  1.8418
15361TIP3    H267499   3.311   0.174  14.663  2.1500  2.3466  1.1419
15362TIP3   OH267500   6.345   1.255  13.924  0.2349 -0.5644  0.7087
15362TIP3    H167501   6.306   1.225  13.842  0.3309 -0.5446  0.6561
15362TIP3    H267502   6.369   1.346  13.907  0.2320 -0.5528  0.7671
15363TIP3   OH267503   0.676   6.333  16.540  0.2321  0.5987  0.1239
15363TIP3    H167504   0.626   6.256  16.567 -1.1647 -0.9135 -5.4441
15363TIP3    H267505   0.767   6.311  16.562 -0.2241 -2.3694 -0.5044
15364TIP3   OH267506   4.510   3.601  13.864  0.0951  0.3300 -0.8303
15364TIP3    H167507   4.432   3.582  13.813 -0.5267 -0.1343  0.2426
15364TIP3    H267508   4.487   3.678  13.916  0.8610  1.0493 -1.5193
15365TIP3   OH267509   3.931   5.466  15.414 -0.0788 -0.0008 -0.4866
15365TIP3    H167510   4.016   5.501  15.440 -0.1133  1.0013 -1.6346
15365TIP3    H267511   3.931   5.470  15.319 -1.9583  1.4674 -0.5021
15366TIP3   OH267512   1.382   5.375   3.201  0.5638  0.3458 -0.0781
15366TIP3    H167513   1.356   5.289   3.169 -0.9944  0.5054  0.6666
15366TIP3    H267514   1.431   5.357   3.281 -0.9244  0.1693  0.8245
15367TIP3   OH267515   5.099   5.023   0.083  0.0953 -0.6459  0.3142
15367TIP3    H167516   5.060   4.936   0.073 -0.9008 -0.0940 -1.0333
15367TIP3    H267517   5.035   5.072   0.134 -0.0202 -0.3151 -0.1423
15368TIP3   OH267518   5.561   5.827   5.795 -0.5942  0.2501  0.1940
15368TIP3    H167519   5.531   5.747   5.838 -0.5959  0.3137  0.3135
15368TIP3    H267520   5.626   5.798   5.731  0.6951  0.2985  1.4193
15369TIP3   OH267521   5.885   6.012  14.305  0.8735  0.1227 -0.6984
15369TIP3    H167522   5.800   6.033  14.345  1.2292  0.8458 -0.3203
15369TIP3    H267523   5.898   5.919  14.327 -0.0457 -0.1325 -1.1861
15370TIP3   OH267524   3.545   6.460   0.753 -0.1916  0.0020  0.5934
15370TIP3    H167525   3.579   6.530   0.809 -0.3593  0.4598  0.1250
15370TIP3    H267526   3.455   6.485   0.735 -0.4250 -0.6173  0.8685
15371TIP3   OH267527   5.580   3.811   3.919  1.2216  0.1979 -0.4689
15371TIP3    H167528   5.546   3.768   3.998  0.8938  1.3231  0.0227
15371TIP3    H267529   5.587   3.741   3.854 -0.9350 -0.3018 -0.2327
15372TIP3   OH267530   4.046   3.985   6.415 -0.3919 -0.1963 -1.0096
15372TIP3    H167531   4.076   3.901   6.449  0.4889 -0.3656 -2.1295
15372TIP3    H267532   4.075   3.986   6.324 -1.8467  0.6179 -1.5035
15373TIP3   OH267533   3.433   3.042   1.596  0.3127  0.0669 -0.5451
15373TIP3    H167534   3.381   2.985   1.539  0.9689 -1.6440  0.4812
15373TIP3    H267535   3.369   3.083   1.654 -0.1184 -0.0770 -0.9112
15374TIP3   OH267536   0.862   3.716  11.841  0.1614 -0.7116 -0.6574
15374TIP3    H167537   0.923   3.784  11.868 -0.7392  0.4144 -1.3566
15374TIP3    H267538   0.833   3.676  11.923  1.6778 -1.1527 -0.3118
15375TIP3   OH267539   3.461   6.303   5.515 -0.1506  0.2668  0.1023
15375TIP3    H167540   3.538   6.346   5.477  1.1249  0.8413  3.0554
15375TIP3    H267541   3.480   6.209   5.507  0.3087  0.3804 -0.2167
15376TIP3   OH267542   4.437   0.497   4.924  0.1793  0.0426  0.1706
15376TIP3    H167543   4.425   0.403   4.908 -0.3113  0.1081  0.1337
15376TIP3    H267544   4.532   0.509   4.926  0.2566 -0.3102 -0.7022
15377TIP3   OH267545   5.629   0.118  13.870 -0.5130  0.4732  0.0232
15377TIP3    H167546   5.564   0.185  13.889 -0.4886  0.3272  0.6499
15377TIP3    H267547   5.713   0.159  13.889 -0.3767  0.8095 -1.2184
15378TIP3   OH267548   6.617   6.400  13.492 -0.0687  0.2015 -0.7714
15378TIP3    H167549   6.611   6.437  13.580  1.6957 -0.9932 -0.0995
15378TIP3    H267550   6.533   6.356  13.479 -0.9505  1.6782 -0.3311
15379TIP3   OH267551   6.487   2.839  14.086  0.7124  0.2561 -0.5350
15379TIP3    H167552   6.432   2.878  14.018  1.6047  0.4921 -1.1495
15379TIP3    H267553   6.535   2.913  14.123  0.1193  0.1550  0.4914
15380TIP3   OH267554   0.015   1.529   4.616  0.5922 -0.1860  0.2301
15380TIP3    H167555  -0.019   1.474   4.687  0.7155 -1.3694 -0.5986
15380TIP3    H267556  -0.040   1.607   4.618  0.0625 -0.5620  1.0884
15381TIP3   OH267557   0.786   2.703   3.453  0.0214  0.3232 -0.1568
15381TIP3    H167558   0.743   2.642   3.512  0.5283  1.1342  1.1073
15381TIP3    H267559   0.875   2.668   3.443  0.3246  0.8343  0.6001
15382TIP3   OH267560   2.437   6.407  15.210 -0.1970 -0.4319  0.1900
15382TIP3    H167561   2.480   6.486  15.242 -0.1782 -0.4849  0.2978
15382TIP3    H267562   2.421   6.355  15.289 -0.6556 -0.3167  0.1771
15383TIP3   OH267563   1.129   0.445  10.740 -0.0225  0.2320 -0.0467
15383TIP3    H167564   1.205   0.421  10.688 -0.7383 -0.5792 -0.7645
15383TIP3    H267565   1.112   0.369  10.795 -2.5095 -1.2362 -2.5783
15384TIP3   OH267566   4.991   6.682  11.651 -0.2888 -0.2946 -0.1743
15384TIP3    H167567   4.942   6.764  11.654  0.9573  0.5157 -0.7407
15384TIP3    H267568   5.014   6.672  11.558  0.8922 -0.4458  0.1163
15385TIP3   OH267569   3.820   2.932  12.765  0.3146 -0.9257  0.0543
15385TIP3    H167570   3.912   2.927  12.736  0.7288  0.0050  1.1532
15385TIP3    H267571   3.787   3.014  12.727  0.0475 -1.0554  0.0027
15386TIP3   OH267572   4.132   0.277  15.310 -0.4117  0.0624  0.7451
15386TIP3    H167573   4.205   0.239  15.261  0.5321 -2.6605  3.8907
15386TIP3    H267574   4.059   0.277  15.249  1.2338 -0.8300 -1.3561
15387TIP3   OH267575   5.774   0.630   2.523  0.1104  0.7131 -0.5357
15387TIP3    H167576   5.696   0.585   2.489  0.8411 -0.9555 -0.0737
15387TIP3    H267577   5.844   0.603   2.464  0.7526  0.4258  0.3443
15388TIP3   OH267578   1.323   1.002   2.164  0.3131 -0.3849 -0.1869
15388TIP3    H167579   1.363   0.966   2.086 -0.5880  0.0296 -0.8636
15388TIP3    H267580   1.272   0.930   2.200  1.5265 -0.8770  0.6100
15389TIP3   OH267581   3.361   1.216   5.378 -0.0816  0.3089  0.4528
15389TIP3    H167582   3.368   1.307   5.351 -0.8077  0.7647  1.6861
15389TIP3    H267583   3.316   1.172   5.306  1.0355  0.7304 -0.5168
15390TIP3   OH267584   3.241   5.973   1.440  0.0199 -0.2949  0.6725
15390TIP3    H167585   3.238   5.882   1.411  0.1799  0.0282 -0.4352
15390TIP3    H267586   3.235   6.024   1.359  4.0438  0.6692  0.7495
15391TIP3   OH267587   1.044   1.191   4.830 -0.2648  0.3832 -0.2509
15391TIP3    H167588   1.027   1.222   4.741 -2.6697  1.8784  0.6195
15391TIP3    H267589   0.984   1.118   4.842 -0.9358  1.0390  0.5314
15392TIP3   OH267590   2.332   2.551  10.842 -0.1219  0.2303  0.2119
15392TIP3    H167591   2.425   2.551  10.816  0.5423  0.3864  2.4069
15392TIP3    H267592   2.293   2.481  10.790  1.9794 -2.1634  1.6272
15393TIP3   OH267593   4.315   2.572   0.094 -0.2647 -0.0122  0.0053
15393TIP3    H167594   4.235   2.529   0.125 -0.3306  0.7874  1.0069
15393TIP3    H267595   4.384   2.508   0.108 -0.9134 -1.3651 -2.4161
15394TIP3   OH267596   2.564   3.686  13.911  0.1239  0.2482 -0.1256
15394TIP3    H167597   2.525   3.746  13.975 -1.7239 -0.2356 -0.7323
15394TIP3    H267598   2.571   3.738  13.831 -1.5717 -0.3085 -0.6796
15395TIP3   OH267599   4.100   4.814  13.225  0.4970  0.2079  0.1749
15395TIP3    H167600   4.183   4.835  13.183  0.9644  0.6226  1.2631
15395TIP3    H267601   4.044   4.889  13.206  0.4121  0.0003 -0.4249
15396TIP3   OH267602   6.726   3.065  15.166  0.5387  0.4031  0.3138
15396TIP3    H167603   6.768   3.143  15.130 -0.7560  0.7437 -0.5495
15396TIP3    H267604   6.721   3.004  15.093  1.1225 -0.3232  0.8640
15397TIP3   OH267605   6.380   4.865  15.345  0.3540  0.2745 -1.0711
15397TIP3    H167606   6.430   4.839  15.423  0.7353 -1.2751 -1.7944
15397TIP3    H267607   6.291   4.836  15.362  0.8587 -2.0454 -2.0458
15398TIP3   OH267608   1.845   1.421   5.598 -0.0624  0.1020 -0.1555
15398TIP3    H167609   1.774   1.448   5.540 -0.1250  1.6933  0.6178
15398TIP3    H267610   1.866   1.499   5.648  1.6344 -0.5917  0.2760
15399TIP3   OH267611   3.420   3.530   3.991  0.5030 -0.0666  0.9879
15399TIP3    H167612   3.470   3.610   4.006  0.7265  0.1120 -0.5888
15399TIP3    H267613   3.486   3.466   3.964  0.2215 -0.5775  1.5006
15400TIP3   OH267614   0.694   6.747   0.871  0.1957 -0.6001 -0.1139
15400TIP3    H167615   0.687   6.737   0.776  1.5078  0.7507 -0.3722
15400TIP3    H267616   0.644   6.827   0.890  0.1374 -0.7365  0.3119
15401TIP3   OH267617   6.213   1.048   5.723 -0.2512 -0.1074 -1.3437
15401TIP3    H167618   6.198   1.055   5.817 -0.3690 -0.2471 -1.3502
15401TIP3    H267619   6.129   1.072   5.684 -0.6258 -1.3540 -1.3659
15402TIP3   OH267620   2.606   5.961  16.885  0.0978  0.7420  0.5830
15402TIP3    H167621   2.595   5.870  16.859  0.8431  0.2270  1.9653
15402TIP3    H267622   2.692   5.986  16.850  0.4268  0.5227  1.2157
15403TIP3   OH267623   3.040   1.525   1.127  0.0205  0.1496  0.0024
15403TIP3    H167624   3.040   1.498   1.219 -0.9004 -1.2136 -0.3630
15403TIP3    H267625   3.016   1.446   1.079 -0.5268  1.0942 -1.3371
15404TIP3   OH267626   1.796   3.858  15.512 -0.3625  0.1502  0.3265
15404TIP3    H167627   1.849   3.937  15.526  0.8567 -0.1741 -1.8637
15404TIP3    H267628   1.856   3.785  15.529 -0.9835 -0.2845  0.6975
15405TIP3   OH267629   1.343   0.314  16.822 -0.0521 -0.3059 -0.2852
15405TIP3    H167630   1.379   0.402  16.830 -0.5872 -0.0147 -0.9904
15405TIP3    H267631   1.293   0.302  16.902 -0.4452  0.2557 -0.4394
15406TIP3   OH267632   5.530   0.677  15.537 -0.0033  0.6462 -0.0892
15406TIP3    H167633   5.525   0.592  15.580  1.7995 -0.7213 -2.3470
15406TIP3    H267634   5.568   0.735  15.603  2.0983 -1.1920  0.4502
15407TIP3   OH267635   6.666   4.972   3.843 -0.5793  0.0935 -0.0463
15407TIP3    H167636   6.744   4.972   3.900 -1.7697 -0.7817  1.6714
15407TIP3    H267637   6.695   4.926   3.764 -0.0047 -2.6609  1.6184
15408TIP3   OH267638   5.909   3.374   4.628 -0.2468 -0.2921  0.3726
15408TIP3    H167639   5.837   3.311   4.635  1.0528 -1.7282  1.9401
15408TIP3    H267640   5.915   3.413   4.715  1.2378 -0.6911  0.4879
15409TIP3   OH267641   4.793   0.287  14.187  0.6667  0.0920  0.1703
15409TIP3    H167642   4.880   0.250  14.198  0.4774 -0.2254  0.6393
15409TIP3    H267643   4.803   0.351  14.117  1.1009 -0.5078 -0.3231
15410TIP3   OH267644   5.536   5.875  16.836  0.4330 -0.0082  0.4033
15410TIP3    H167645   5.588   5.948  16.871 -1.2676  0.5175  1.9679
15410TIP3    H267646   5.562   5.870  16.743  2.1877  1.1352  0.7765
15411TIP3   OH267647   5.571   3.914   4.595  0.0336 -0.5136  0.6284
15411TIP3    H167648   5.634   3.848   4.568 -0.9003 -1.4558  0.7140
15411TIP3    H267649   5.522   3.935   4.516 -2.4216 -2.9704  1.3341
15412TIP3   OH267650   3.768   0.325  14.906 -0.0270 -0.1784 -0.2398
15412TIP3    H167651   3.691   0.331  14.962 -0.2660 -1.6691 -0.3699
15412TIP3    H267652   3.740   0.362  14.823 -0.0858  0.7834  0.1937
15413TIP3   OH267653   0.147   3.998   2.017 -0.5565  0.0069 -0.2701
15413TIP3    H167654   0.204   4.055   2.067  0.0154 -0.0862 -0.7998
15413TIP3    H267655   0.079   4.056   1.981 -0.8149  0.1124  0.3812
15414TIP3   OH267656   5.523   6.268  16.613  0.6564  0.9807 -0.1844
15414TIP3    H167657   5.564   6.343  16.655  0.9661  0.4211  0.5249
15414TIP3    H267658   5.459   6.236  16.677 -0.7229  1.6634 -1.1506
15415TIP3   OH267659   2.697   2.317  11.531 -0.0173  0.1552  0.4620
15415TIP3    H167660   2.702   2.235  11.482  0.4210  0.6823 -0.4031
15415TIP3    H267661   2.765   2.373  11.493  2.1963 -0.2849  3.3877
15416TIP3   OH267662   2.304   3.559  16.181  0.4572 -0.1287  0.0785
15416TIP3    H167663   2.341   3.615  16.249  1.8282  0.5576 -1.1775
15416TIP3    H267664   2.280   3.478  16.227 -0.3383  0.9631  1.6831
15417TIP3   OH267665   4.037   2.911   5.115  0.4021  0.0125  0.1724
15417TIP3    H167666   4.012   2.957   5.035 -0.4094 -1.4960 -0.5030
15417TIP3    H267667   4.065   2.824   5.084  1.5497 -0.0711  1.4059
15418TIP3   OH267668   0.055   1.252   1.048  0.1076 -0.1924  0.0048
15418TIP3    H167669   0.101   1.222   0.969 -2.6924 -0.7865 -1.5200
15418TIP3    H267670   0.066   1.181   1.110 -0.6501 -1.3863 -1.1682
15419TIP3   OH267671   4.261   2.126  12.714  0.1402 -0.1614  0.3214
15419TIP3    H167672   4.292   2.062  12.778  1.5145  1.8068  1.7091
15419TIP3    H267673   4.281   2.086  12.629  2.2416 -1.0088  1.1463
15420TIP3   OH267674   6.105   5.909  13.122  0.2809 -0.2543 -0.5390
15420TIP3    H167675   6.095   5.997  13.085 -0.5098 -0.0139  0.2078
15420TIP3    H267676   6.183   5.874  13.079 -1.1833 -0.4336 -3.2375
15421TIP3   OH267677   3.488   3.047   2.522 -0.5938 -0.4292  0.3742
15421TIP3    H167678   3.476   3.140   2.540  1.4126 -0.2357  1.0227
15421TIP3    H267679   3.481   3.005   2.608 -0.3830 -0.7254  0.2496
15422TIP3   OH267680   6.277   3.916   2.395 -0.0083  0.1279 -0.0235
15422TIP3    H167681   6.260   3.905   2.488 -0.3889  0.4894 -0.0429
15422TIP3    H267682   6.204   3.872   2.352  0.8119 -1.1108 -0.1831
15423TIP3   OH267683   0.718   5.907  13.581 -0.0469 -0.1771 -0.4030
15423TIP3    H167684   0.705   5.983  13.638  1.0085 -0.4128  0.1688
15423TIP3    H267685   0.810   5.885  13.591 -0.3297 -1.5190 -0.5903
15424TIP3   OH267686   5.499   1.750  11.324 -0.4156 -0.6811  0.2492
15424TIP3    H167687   5.532   1.679  11.267 -2.0295  0.0076 -1.6690
15424TIP3    H267688   5.572   1.768  11.383  1.8284 -0.7743 -2.2612
15425TIP3   OH267689   0.915   6.516  14.011  0.4370  0.1057  0.1974
15425TIP3    H167690   0.996   6.566  14.004  0.0693  0.9398  1.5418
15425TIP3    H267691   0.915   6.459  13.934  1.7686  0.8559 -0.3870
15426TIP3   OH267692   0.164   1.455   0.787 -0.3577  0.2962 -0.0763
15426TIP3    H167693   0.246   1.470   0.739 -0.6652  0.0791 -0.6642
15426TIP3    H267694   0.192   1.451   0.879  0.5300 -1.4245 -0.3791
15427TIP3   OH267695   5.314   1.409  12.463 -0.3924  0.2945  0.4641
15427TIP3    H167696   5.403   1.410  12.430  0.1517  2.4373  1.8104
15427TIP3    H267697   5.289   1.317  12.462  1.6639 -0.3071 -0.3382
15428TIP3   OH267698   2.695   5.259  14.177 -0.1164  0.2599 -0.0876
15428TIP3    H167699   2.721   5.168  14.166  0.0298  0.3565 -0.5526
15428TIP3    H267700   2.713   5.278  14.269 -0.9719 -0.4364  0.2384
15429TIP3   OH267701   3.614   6.235  15.755  0.0029 -0.1804 -0.4911
15429TIP3    H167702   3.676   6.176  15.712  0.9210  0.6356 -0.3282
15429TIP3    H267703   3.666   6.312  15.777 -0.7185 -0.0763  0.9913
15430TIP3   OH267704   0.329   3.110   3.394  0.3332 -0.2028  1.1321
15430TIP3    H167705   0.346   3.020   3.366  0.4760 -0.0187  0.6212
15430TIP3    H267706   0.360   3.113   3.485  1.4020 -0.3603  0.7940
15431TIP3   OH267707   2.056   6.382   0.759  1.3657 -0.3361 -0.3267
15431TIP3    H167708   2.088   6.302   0.717  0.4577 -0.6426 -0.4398
15431TIP3    H267709   2.119   6.449   0.733  0.8436 -0.5113 -2.1838
15432TIP3   OH267710   6.423   2.903   6.279  0.1658 -0.1121 -0.7176
15432TIP3    H167711   6.455   2.847   6.207 -1.4329 -1.0633 -0.7351
15432TIP3    H267712   6.373   2.971   6.235 -0.2162 -0.2815 -0.5442
15433TIP3   OH267713   6.505   2.677  13.212 -0.1484 -0.0293  0.0796
15433TIP3    H167714   6.587   2.684  13.262 -0.0454  1.1128 -0.2243
15433TIP3    H267715   6.482   2.768  13.191 -1.2146 -0.3736 -0.2997
15434TIP3   OH267716   1.483   0.293  15.352  0.5075  0.8462  0.2945
15434TIP3    H167717   1.575   0.308  15.374  0.4003  0.4206  1.0548
15434TIP3    H267718   1.447   0.249  15.429  0.1025 -0.6559 -0.7262
15435TIP3   OH267719   6.422   4.368   4.372  0.3260  0.1234  0.2261
15435TIP3    H167720   6.400   4.280   4.400  1.4600 -1.0424 -2.1778
15435TIP3    H267721   6.516   4.375   4.389 -0.0822  1.6626  2.1851
15436TIP3   OH267722   5.738   4.587   0.396  0.0073 -0.5823 -0.4355
15436TIP3    H167723   5.737   4.496   0.424 -0.4638 -0.9461 -1.5573
15436TIP3    H267724   5.771   4.636   0.471 -0.5159 -1.5792  0.4594
15437TIP3   OH267725   4.708   1.712   0.076  0.4858  0.1170 -0.1292
15437TIP3    H167726   4.760   1.737  -0.000  2.9531  0.7739  1.6320
15437TIP3    H267727   4.665   1.793   0.104 -0.4673 -0.1374 -0.8307
15438TIP3   OH267728   6.348   6.657   5.906 -0.3117 -0.1925 -0.0672
15438TIP3    H167729   6.407   6.607   5.962  1.5834  0.4968 -1.3369
15438TIP3    H267730   6.278   6.686   5.964 -0.1328 -2.1576  1.2210
15439TIP3   OH267731   1.855   4.917   5.396 -0.1411 -0.0202  0.1448
15439TIP3    H167732   1.765   4.925   5.426  0.2666 -1.1960  1.8312
15439TIP3    H267733   1.906   4.899   5.475  2.2969  4.5907 -0.0379
15440TIP3   OH267734   6.267   6.178   4.276 -0.0415  0.0835  0.5378
15440TIP3    H167735   6.361   6.175   4.292 -0.3066  0.1890  2.3498
15440TIP3    H267736   6.250   6.268   4.246  0.3315  0.3034  0.9795
15441TIP3   OH267737   6.442   4.084  13.403  0.1235 -1.0886 -0.1165
15441TIP3    H167738   6.438   4.072  13.498 -1.9889 -4.4667 -0.4621
15441TIP3    H267739   6.528   4.052  13.378  0.5671 -0.4946  0.6198
15442TIP3   OH267740   6.321   1.142  16.064 -0.1276 -0.3501  0.2265
15442TIP3    H167741   6.349   1.066  16.013  1.7493 -0.5593  1.4481
15442TIP3    H267742   6.271   1.196  16.003  0.7652 -1.2845 -1.3917
15443TIP3   OH267743   5.937   3.541  14.631 -0.1164 -0.0925  0.4248
15443TIP3    H167744   5.930   3.636  14.637 -0.9345 -0.1444  0.4399
15443TIP3    H267745   5.849   3.512  14.606 -0.1542 -0.9351  1.4674
15444TIP3   OH267746   3.662   6.394   4.414 -1.1047  0.4792 -0.4341
15444TIP3    H167747   3.624   6.394   4.502 -0.7232 -2.1512 -0.2042
15444TIP3    H267748   3.709   6.477   4.408 -0.8414  0.5663  1.9708
15445TIP3   OH267749   6.290   5.231  15.505  0.3943 -0.2708 -0.4108
15445TIP3    H167750   6.344   5.276  15.570  1.1977 -0.8154 -0.6855
15445TIP3    H267751   6.267   5.148  15.546  1.6797 -1.0191 -1.1513
15446TIP3   OH267752   1.835   1.162  16.284 -0.0098  0.4218  0.6885
15446TIP3    H167753   1.917   1.134  16.325  0.3009  0.9970  0.4641
15446TIP3    H267754   1.862   1.200  16.200 -0.3812  1.7343  1.1426
15447TIP3   OH267755   2.591   3.547   5.396  0.0389  0.2761 -0.5763
15447TIP3    H167756   2.635   3.611   5.340  0.3139  0.7480  0.1523
15447TIP3    H267757   2.621   3.569   5.485  1.8020 -2.1839 -0.4833
15448TIP3   OH267758   5.669   1.404   2.276  0.3521 -0.5089  0.2571
15448TIP3    H167759   5.731   1.410   2.203 -1.0401 -1.3145 -1.0466
15448TIP3    H267760   5.647   1.496   2.296  0.4412 -0.2907 -0.6183
15449TIP3   OH267761   2.538   6.108  12.976 -0.0343  0.1528  0.1908
15449TIP3    H167762   2.503   6.146  12.895  1.8556  3.4318  0.6953
15449TIP3    H267763   2.626   6.079  12.952 -0.4246 -1.3457  0.5103
15450TIP3   OH267764   1.293   2.373   0.260  0.0346 -0.4503  0.5319
15450TIP3    H167765   1.321   2.464   0.259  1.7215 -0.9288  0.8931
15450TIP3    H267766   1.245   2.362   0.178 -0.7810  0.9030  0.7903
15451TIP3   OH267767   3.017   3.450   3.458  0.5495  0.1040 -0.0258
15451TIP3    H167768   2.997   3.356   3.453  1.3242 -0.0432 -0.4453
15451TIP3    H267769   3.109   3.456   3.433 -0.1212  1.2202 -2.5490
15452TIP3   OH267770   4.803   2.340   5.070 -0.1072  0.2810  0.1112
15452TIP3    H167771   4.849   2.300   4.997  0.2163  1.9126 -0.6043
15452TIP3    H267772   4.870   2.352   5.137 -0.3827 -1.1171  0.6810
15453TIP3   OH267773   1.783   2.658  12.902 -0.1231  0.0300  0.1593
15453TIP3    H167774   1.869   2.624  12.878 -0.3770  0.0210 -0.7505
15453TIP3    H267775   1.732   2.579  12.923 -1.1310 -0.3920 -3.2763
15454TIP3   OH267776   4.337   5.748  11.397  0.0860 -0.4373  0.2350
15454TIP3    H167777   4.409   5.763  11.336 -0.7023  0.4344 -0.4989
15454TIP3    H267778   4.359   5.666  11.441 -0.6429 -2.6282 -3.1461
15455TIP3   OH267779   1.690   5.181  13.888 -0.3337  0.4307  0.6422
15455TIP3    H167780   1.763   5.167  13.949  0.6181  0.9374 -0.3361
15455TIP3    H267781   1.706   5.119  13.817 -1.4844 -0.2194  0.9310
15456TIP3   OH267782   2.262   0.066  11.108  0.3888 -0.2558 -0.0734
15456TIP3    H167783   2.170   0.077  11.134  0.6125 -0.3798  0.7758
15456TIP3    H267784   2.266   0.106  11.021 -1.2146 -3.1726 -1.6300
15457TIP3   OH267785   3.113   2.177  14.672 -0.2003 -0.6266 -0.2633
15457TIP3    H167786   3.183   2.137  14.620 -0.9777 -1.0098 -1.0454
15457TIP3    H267787   3.043   2.193  14.609 -0.0425  1.7017  0.0811
15458TIP3   OH267788   4.945   4.795   1.204  0.2750  0.0346 -0.2366
15458TIP3    H167789   4.969   4.742   1.281  2.0638  0.4383 -0.4733
15458TIP3    H267790   4.861   4.758   1.175 -1.5123  1.1044  3.0251
15459TIP3   OH267791   1.258   5.398   2.614  0.1523 -0.0532 -0.9554
15459TIP3    H167792   1.269   5.451   2.693  1.1933  0.7833 -1.6228
15459TIP3    H267793   1.268   5.308   2.644 -0.0659  0.2164 -0.0396
15460TIP3   OH267794   2.479   0.067   2.600 -0.2175 -0.2016 -0.6263
15460TIP3    H167795   2.462   0.019   2.681  0.4647 -0.4953 -0.6455
15460TIP3    H267796   2.540   0.011   2.551  0.8903  0.8338 -0.4874
15461TIP3   OH267797   5.423   4.700   3.443 -0.5693  0.6506  0.2046
15461TIP3    H167798   5.460   4.736   3.524  0.7176  0.1458 -0.1351
15461TIP3    H267799   5.469   4.617   3.430 -1.9316 -0.0828 -0.1925
15462TIP3   OH267800   0.581   6.563  11.853  0.5847  0.0139  0.3672
15462TIP3    H167801   0.646   6.497  11.832  0.5823 -0.0103  0.4350
15462TIP3    H267802   0.506   6.514  11.886  1.1276  0.1238  1.8472
15463TIP3   OH267803   3.646   1.267  11.719 -0.2656 -0.1747  0.1583
15463TIP3    H167804   3.716   1.332  11.719 -1.2214  0.9151  1.1158
15463TIP3    H267805   3.686   1.188  11.682  1.3372  0.5222  0.3132
15464TIP3   OH267806   3.978   4.506  16.987 -0.4026  0.5918 -0.1259
15464TIP3    H167807   3.961   4.566  17.060 -0.1041  1.2972 -0.6287
15464TIP3    H267808   4.072   4.491  16.990 -0.4531  0.2655 -0.0989
15465TIP3   OH267809   4.417   4.128  14.558 -0.0554 -0.2025  0.0843
15465TIP3    H167810   4.402   4.220  14.576  2.7276  0.2024  0.8701
15465TIP3    H267811   4.395   4.117  14.466 -0.5521  1.2126  0.0118
15466TIP3   OH267812   4.028   2.960  10.527 -0.2592  1.0212  0.4302
15466TIP3    H167813   3.981   2.882  10.554 -1.3923  1.6681  0.3914
15466TIP3    H267814   3.969   3.004  10.465  1.4684  0.5285 -1.7135
15467TIP3   OH267815   6.741   2.571  14.771 -0.3861 -0.1078 -0.0149
15467TIP3    H167816   6.806   2.508  14.739  0.6257  1.3695 -1.0384
15467TIP3    H267817   6.770   2.591  14.860  0.7624  0.7091 -0.5381
15468TIP3   OH267818   0.872   1.681   4.393 -0.2189  0.3174  0.3891
15468TIP3    H167819   0.956   1.655   4.430  0.7863  1.2588 -1.0822
15468TIP3    H267820   0.838   1.746   4.453  0.3822  0.3336  0.7185
15469TIP3   OH267821   2.932   5.818   3.039 -0.2716 -0.0425  0.5216
15469TIP3    H167822   2.839   5.834   3.022 -0.3795  0.3219  1.4135
15469TIP3    H267823   2.975   5.902   3.020  0.1199 -0.6488 -1.4744
15470TIP3   OH267824   3.410   4.378   3.049  0.9327  0.0510  0.1834
15470TIP3    H167825   3.461   4.329   2.986 -1.5595 -1.3009 -0.9332
15470TIP3    H267826   3.366   4.311   3.102 -0.2742  1.0973  0.5571
15471TIP3   OH267827   1.858   4.715  11.980  0.2029  0.6065  0.2772
15471TIP3    H167828   1.772   4.735  11.945 -0.3550 -2.1115 -0.1154
15471TIP3    H267829   1.906   4.677  11.907  1.2807  0.8551  0.8311
15472TIP3   OH267830   0.493   0.745   5.521 -0.5117 -0.2698 -0.0366
15472TIP3    H167831   0.450   0.830   5.517  0.3318  0.3413  2.3349
15472TIP3    H267832   0.515   0.733   5.614 -1.4831 -3.5296 -0.0980
15473TIP3   OH267833   1.659   0.415   1.744  0.2353 -0.3179  0.3100
15473TIP3    H167834   1.655   0.322   1.726  1.2982 -0.0500 -1.6119
15473TIP3    H267835   1.582   0.433   1.798  0.8017 -2.5311  1.9834
15474TIP3   OH267836   4.069   4.905  16.302 -0.6259  0.1841 -0.3343
15474TIP3    H167837   4.038   4.820  16.271 -0.9121  0.3603 -0.5419
15474TIP3    H267838   4.082   4.956  16.222 -0.3087  0.2865 -0.2211
15475TIP3   OH267839   6.330   4.374   0.232  0.3124  0.2440  0.0472
15475TIP3    H167840   6.410   4.389   0.182 -0.2232 -1.1661 -1.3161
15475TIP3    H267841   6.262   4.365   0.166 -0.4743 -1.4325  1.0320
15476TIP3   OH267842   6.613   4.778   2.297 -0.0798 -1.0580 -0.8357
15476TIP3    H167843   6.550   4.743   2.360 -0.1024 -0.3279 -0.4424
15476TIP3    H267844   6.648   4.701   2.253 -0.1676 -1.5692 -0.0300
15477TIP3   OH267845   3.601   0.079   5.156  0.6436 -0.1777 -0.2507
15477TIP3    H167846   3.542   0.137   5.203 -0.6276 -0.8719 -0.9322
15477TIP3    H267847   3.671   0.136   5.124  0.4988  0.6119  0.8038
15478TIP3   OH267848   6.387   4.971  11.831  0.3607  0.0800 -0.1602
15478TIP3    H167849   6.309   4.957  11.885 -0.0809 -0.0574 -0.8328
15478TIP3    H267850   6.444   5.025  11.886  0.1261 -0.4640  0.6356
15479TIP3   OH267851   1.195   3.250  13.769  0.2268  0.1731 -0.1620
15479TIP3    H167852   1.246   3.216  13.842  0.0596  1.1348  0.4184
15479TIP3    H267853   1.132   3.310  13.809  0.2446  0.8504 -1.1131
15480TIP3   OH267854   6.805   1.783   1.460 -0.1928  0.1272 -0.5270
15480TIP3    H167855   6.818   1.859   1.404  0.9827  1.2766  1.2106
15480TIP3    H267856   6.758   1.720   1.405  3.0094  0.1627 -3.5857
15481TIP3   OH267857   5.194   3.330  14.574  0.2673  0.6924 -0.2320
15481TIP3    H167858   5.188   3.397  14.643  1.9138  0.8070 -0.1663
15481TIP3    H267859   5.273   3.353  14.525 -0.2726 -0.0414 -1.4723
15482TIP3   OH267860   2.647   6.508  14.563  0.3291 -0.1514  0.4505
15482TIP3    H167861   2.661   6.422  14.524 -0.0258  0.0699 -0.1768
15482TIP3    H267862   2.575   6.546  14.513  1.4302  1.1001 -0.2330
15483TIP3   OH267863   2.944   3.047  10.570  0.1353 -0.3647 -0.4196
15483TIP3    H167864   2.920   3.008  10.654  0.8730 -1.1295 -0.5539
15483TIP3    H267865   2.999   2.981  10.528  1.1061  0.6772 -0.8152
15484TIP3   OH267866   6.145   4.368  11.662 -0.2530 -0.4447  0.1297
15484TIP3    H167867   6.143   4.366  11.566  2.7082  0.8471 -0.0767
15484TIP3    H267868   6.137   4.461  11.684 -0.2704 -0.6714  1.1052
15485TIP3   OH267869   2.585   2.471  15.931 -0.1978 -0.2637  0.1894
15485TIP3    H167870   2.680   2.477  15.943 -0.1550 -0.6650  0.0670
15485TIP3    H267871   2.572   2.387  15.886 -0.7102 -0.7803  1.2809
15486TIP3   OH267872   1.807   5.156  16.925  0.8827  0.5785  0.1923
15486TIP3    H167873   1.867   5.231  16.926  3.1624 -1.1415 -0.4371
15486TIP3    H267874   1.728   5.190  16.882  1.1814  3.0264  1.4143
15487TIP3   OH267875   1.377   3.262   1.960 -0.2260  0.0772  0.9456
15487TIP3    H167876   1.322   3.197   1.916  1.0869 -0.5158  0.1269
15487TIP3    H267877   1.432   3.210   2.019 -0.4240  0.6435  1.6337
15488TIP3   OH267878   6.356   1.331   3.426 -0.8999  0.1834  0.2550
15488TIP3    H167879   6.357   1.422   3.395 -0.1601  0.7705  1.8654
15488TIP3    H267880   6.448   1.312   3.446 -0.6818 -1.6822 -1.9901
15489TIP3   OH267881   0.768   3.306  11.778 -0.1005 -0.2204 -0.0728
15489TIP3    H167882   0.712   3.235  11.747 -0.5356  0.3541 -0.6204
15489TIP3    H267883   0.740   3.383  11.728  2.0424 -0.1756 -1.3111
15490TIP3   OH267884   6.145   0.452   6.422  0.7056 -0.1751  0.0023
15490TIP3    H167885   6.191   0.433   6.340 -0.5825 -0.5180 -0.6667
15490TIP3    H267886   6.064   0.496   6.395  1.2304  1.6699  1.2263
15491TIP3   OH267887   5.056   5.572  10.910 -0.5741 -0.1398  0.0844
15491TIP3    H167888   5.025   5.483  10.925 -0.2370 -0.2687  0.0265
15491TIP3    H267889   4.979   5.627  10.924 -0.3129 -0.2567  2.1800
15492TIP3   OH267890   0.463   5.381   3.790  0.0479 -0.3447 -0.6645
15492TIP3    H167891   0.389   5.322   3.784  0.3203 -0.5205 -3.5256
15492TIP3    H267892   0.435   5.461   3.744  0.7320  0.6298  0.5345
15493TIP3   OH267893   5.867   1.000   0.876 -0.0054 -0.3550  0.0848
15493TIP3    H167894   5.934   1.068   0.871  0.8954 -1.1660  0.7540
15493TIP3    H267895   5.850   0.989   0.970  0.0850 -1.2511  0.0057
15494TIP3   OH267896   1.538   0.534  16.714  0.2652 -0.5686  0.8398
15494TIP3    H167897   1.549   0.613  16.663 -0.1426 -0.9006  0.2321
15494TIP3    H267898   1.574   0.464  16.659 -3.0446 -1.4420 -0.4676
15495TIP3   OH267899   3.806   6.455  12.446  0.3365  0.2762 -0.3598
15495TIP3    H167900   3.891   6.411  12.437 -0.2105 -0.8406 -0.1809
15495TIP3    H267901   3.742   6.386  12.435 -0.5392  0.7462  1.4696
15496TIP3   OH267902   1.957   5.123   4.026  0.1111 -0.1574  0.0706
15496TIP3    H167903   1.868   5.157   4.028  0.4826  0.8188  0.2261
15496TIP3    H267904   1.975   5.096   4.117  0.0850 -0.0769  0.0990
15497TIP3   OH267905   4.790   6.577   0.376 -0.8232  0.0241 -0.2797
15497TIP3    H167906   4.726   6.607   0.440  1.7910  0.1182  2.5142
15497TIP3    H267907   4.873   6.575   0.423  0.8242 -2.7462 -2.8677
15498TIP3   OH267908   1.075   4.851   1.896 -0.5372 -0.0813  0.5222
15498TIP3    H167909   1.009   4.786   1.874  2.3622 -2.3166 -2.6001
15498TIP3    H267910   1.111   4.821   1.979  0.0160 -1.9632 -0.3428
15499TIP3   OH267911   5.618   2.937  11.643  0.0310  0.5890  0.1128
15499TIP3    H167912   5.710   2.923  11.623  0.4432  0.2274  2.0391
15499TIP3    H267913   5.601   3.028  11.617  0.2087 -0.0699 -2.5890
15500TIP3   OH267914   3.386   4.995   2.136 -0.6831 -0.2459  0.0671
15500TIP3    H167915   3.296   4.964   2.143 -1.5538  1.9008 -0.6436
15500TIP3    H267916   3.411   4.976   2.045 -0.5803 -0.4403  0.1360
15501TIP3   OH267917   6.704   0.443   3.492 -0.0312 -0.1881  0.0444
15501TIP3    H167918   6.734   0.376   3.554 -1.2226  0.8573  1.8561
15501TIP3    H267919   6.769   0.513   3.499  0.3286 -0.4397 -0.6256
15502TIP3   OH267920   4.978   1.184  16.352  0.4230 -0.2225 -0.7984
15502TIP3    H167921   5.066   1.150  16.373  0.7385  1.4949  0.9122
15502TIP3    H267922   4.995   1.261  16.297 -0.0293 -0.1057 -0.7734
15503TIP3   OH267923   1.276   5.275   4.425  0.0168 -0.6595 -0.2717
15503TIP3    H167924   1.271   5.320   4.509  1.6158  0.3147 -0.6406
15503TIP3    H267925   1.220   5.327   4.367  0.8612  0.1638 -0.3833
15504TIP3   OH267926   1.681   0.347  16.543 -0.1835 -0.4459 -0.1814
15504TIP3    H167927   1.772   0.377  16.544 -0.2146 -0.3402  0.7064
15504TIP3    H267928   1.681   0.269  16.599 -0.8633  0.2868  0.8803
15505TIP3   OH267929   4.017   5.363  12.260 -0.2859 -0.1324  0.2413
15505TIP3    H167930   3.981   5.364  12.172 -1.1162  1.3627  0.5656
15505TIP3    H267931   3.965   5.427  12.308  1.7262  0.9080  1.1693
15506TIP3   OH267932   4.950   3.042   0.727  0.5431 -0.2043  0.0818
15506TIP3    H167933   4.888   3.030   0.656 -0.4070 -1.1318  1.0241
15506TIP3    H267934   4.989   2.955   0.740 -0.4995 -0.4888  1.7201
15507TIP3   OH267935   1.058   4.984   2.544 -0.2777  0.6834  0.2521
15507TIP3    H167936   1.091   5.016   2.628  0.0883  1.1558 -0.0629
15507TIP3    H267937   0.965   4.971   2.558 -0.2477  0.9223  0.6862
15508TIP3   OH267938   2.321   2.717   5.081 -0.0228 -0.4132  0.6818
15508TIP3    H167939   2.243   2.748   5.036  0.6727 -1.6395 -1.5314
15508TIP3    H267940   2.363   2.796   5.115 -1.1481  0.4596  0.0986
15509TIP3   OH267941   3.985   2.035  10.871 -0.3163  0.1363  0.4672
15509TIP3    H167942   4.024   2.064  10.788 -1.2841 -0.8595 -0.3792
15509TIP3    H267943   3.920   2.101  10.891 -0.7808 -0.1287 -0.1244
15510TIP3   OH267944   4.523   2.980  11.825  0.1538  0.1973  0.1068
15510TIP3    H167945   4.590   3.026  11.775  0.0575  1.4155  1.0425
15510TIP3    H267946   4.521   3.026  11.909  0.0826 -1.5742  1.1047
15511TIP3   OH267947   0.570   4.221  14.113 -0.2802 -0.7872  0.1285
15511TIP3    H167948   0.601   4.158  14.178 -0.8304 -0.2209  0.9741
15511TIP3    H267949   0.481   4.242  14.142 -0.2824 -0.0025 -0.4180
15512TIP3   OH267950   1.444   5.805   2.537 -0.1880  0.6563 -0.1985
15512TIP3    H167951   1.445   5.851   2.621 -0.3944  0.3244 -0.0114
15512TIP3    H267952   1.458   5.713   2.560  0.5154  0.6593 -0.5941
15513TIP3   OH267953   1.967   4.166   1.426 -0.6996 -0.3772  0.4956
15513TIP3    H167954   1.880   4.135   1.400  0.5275 -3.0281 -0.8911
15513TIP3    H267955   1.987   4.119   1.507 -0.1438 -0.5797  0.2451
15514TIP3   OH267956   4.552   1.854   4.702  0.2138  0.2060 -0.1667
15514TIP3    H167957   4.503   1.901   4.768  0.4057 -0.7425  0.6755
15514TIP3    H267958   4.496   1.856   4.624 -0.7392 -0.0529  0.4964
15515TIP3   OH267959   1.309   0.072   2.490 -0.1157  0.7157 -0.2679
15515TIP3    H167960   1.246   0.054   2.560  0.6544  0.1334  0.2959
15515TIP3    H267961   1.375   0.128   2.532  0.4234  0.2458 -0.4758
15516TIP3   OH267962   5.944   3.486  11.731 -0.3984  0.1977 -0.4434
15516TIP3    H167963   5.963   3.505  11.639 -0.6249  1.4143 -0.2685
15516TIP3    H267964   6.030   3.469  11.770 -0.1740  0.8074 -0.6562
15517TIP3   OH267965   2.991   4.257  14.619 -0.4364 -0.0989  0.2906
15517TIP3    H167966   2.930   4.301  14.559  0.2327  0.0649 -0.2816
15517TIP3    H267967   2.982   4.304  14.702 -0.3782  0.5424 -0.0643
15518TIP3   OH267968   1.606   3.164  11.442  0.2190  0.0555  0.1301
15518TIP3    H167969   1.599   3.138  11.350 -0.8160 -1.1771  0.5340
15518TIP3    H267970   1.524   3.210  11.461  1.1440  1.8464  0.0071
15519TIP3   OH267971   5.143   6.509   3.933 -0.6467  0.2028  0.0176
15519TIP3    H167972   5.093   6.499   4.014 -1.9974  0.9558 -0.6843
15519TIP3    H267973   5.190   6.427   3.923  2.4620  1.3073  3.4142
15520TIP3   OH267974   2.023   2.747   4.645  0.1076  0.0420  0.1445
15520TIP3    H167975   2.080   2.820   4.621  1.0272 -0.8117 -0.3369
15520TIP3    H267976   1.959   2.744   4.574 -0.6144  1.0466  0.7207
15521TIP3   OH267977   3.570   1.590   0.029 -0.0913  0.5022 -0.4436
15521TIP3    H167978   3.476   1.594   0.008 -0.5067  0.7217  1.3097
15521TIP3    H267979   3.574   1.607   0.123  1.5194 -1.6467 -0.0562
15522TIP3   OH267980   4.448   1.256  10.977 -0.1188  0.8486  0.1457
15522TIP3    H167981   4.382   1.221  10.917 -0.3538  0.3890  0.6638
15522TIP3    H267982   4.479   1.336  10.935 -0.2377  0.4984 -0.6185
15523TIP3   OH267983   5.268   3.450   1.288  0.3767 -0.0936  1.1218
15523TIP3    H167984   5.178   3.471   1.314 -0.1709 -1.5659  0.5594
15523TIP3    H267985   5.305   3.533   1.259 -1.6033  0.1663 -0.9092
15524TIP3   OH267986   4.245   0.524   6.029 -0.2876  0.6477  0.0409
15524TIP3    H167987   4.283   0.610   6.011 -1.9918  1.3202 -0.6010
15524TIP3    H267988   4.277   0.467   5.959  0.4982  0.8688  0.2200
15525TIP3   OH267989   2.234   2.785   1.781 -0.0354 -0.3320 -0.5060
15525TIP3    H167990   2.274   2.768   1.696 -0.0714  0.2021 -0.6353
15525TIP3    H267991   2.297   2.839   1.828 -0.7664  0.9174 -0.8898
15526TIP3   OH267992   4.435   2.420  16.270  0.6670  0.5724 -0.5749
15526TIP3    H167993   4.517   2.377  16.291  0.1862 -0.2784 -0.3817
15526TIP3    H267994   4.384   2.353  16.224 -0.1920  0.8556 -0.0536
15527TIP3   OH267995   0.068   2.261   4.316 -0.7773 -0.2012  0.5263
15527TIP3    H167996   0.048   2.315   4.393 -1.3539 -1.0613  0.9925
15527TIP3    H267997   0.039   2.314   4.241  0.9800  1.2085  0.7784
15528TIP3   OH267998   0.974   6.447  14.461  0.2147  0.2986 -0.0603
15528TIP3    H167999   0.970   6.449  14.557 -0.5917 -2.4418  0.0592
15528TIP3    H268000   0.888   6.414  14.435  0.7273  0.1717 -1.6788
15529TIP3   OH268001   0.837   1.603  15.882  0.0681 -0.4182  0.0695
15529TIP3    H168002   0.881   1.603  15.967  1.0327 -1.6826 -0.3966
15529TIP3    H268003   0.772   1.533  15.889  2.1402 -2.6352 -1.1322
15530TIP3   OH268004   2.185   3.246  11.203 -1.2777  0.0686 -0.0913
15530TIP3    H168005   2.245   3.179  11.169  0.6210  1.1644  0.9380
15530TIP3    H268006   2.190   3.317  11.139 -2.8510 -0.4793 -0.8814
15531TIP3   OH268007   3.187   6.552  12.753  0.5024  0.4977 -0.7263
15531TIP3    H168008   3.167   6.459  12.762 -1.5249  0.7902 -1.5976
15531TIP3    H268009   3.210   6.562  12.660 -2.2213  1.2875 -1.3920
15532TIP3   OH268010   6.099   1.071   3.855  0.1261  0.5939  0.5921
15532TIP3    H168011   6.136   1.151   3.817 -0.3058 -1.0595 -3.9743
15532TIP3    H268012   6.170   1.008   3.853 -0.8619 -0.5416 -1.1283
15533TIP3   OH268013   0.985   6.756  12.169  0.3572  0.3667 -0.3703
15533TIP3    H168014   0.949   6.668  12.179  0.3351  0.0411 -2.8219
15533TIP3    H268015   1.070   6.743  12.127  0.3136  1.5178 -0.8446
15534TIP3   OH268016   3.456   4.880  16.359  0.1161 -0.2351 -0.0861
15534TIP3    H168017   3.523   4.946  16.376 -1.6321  1.4199  0.8250
15534TIP3    H268018   3.383   4.905  16.417 -1.5808 -1.4721 -1.5859
15535TIP3   OH268019   3.334   1.522  16.351 -0.4029  0.2153 -0.0945
15535TIP3    H168020   3.352   1.575  16.428 -0.8242  1.2124 -0.6664
15535TIP3    H268021   3.305   1.584  16.285  1.2564 -0.4109 -1.5144
15536TIP3   OH268022   6.300   6.692  10.804 -0.3083 -0.1861 -0.1929
15536TIP3    H168023   6.237   6.620  10.798  0.2195 -0.5903 -0.8682
15536TIP3    H268024   6.385   6.650  10.817  0.1514  0.2516 -1.5790
15537TIP3   OH268025   4.303   6.107   4.004  1.0142 -0.5466  0.7215
15537TIP3    H168026   4.362   6.098   3.930  2.6093 -0.3252  1.9273
15537TIP3    H268027   4.315   6.026   4.054 -0.5197 -0.9827  0.4360
15538TIP3   OH268028   0.406   3.705  13.888  0.2668  0.1916  0.6705
15538TIP3    H168029   0.437   3.646  13.957  0.4370  1.4109  1.6715
15538TIP3    H268030   0.387   3.786  13.933  0.7802  1.1663 -0.7887
15539TIP3   OH268031   0.171   6.408   0.862 -0.4096  0.0471  0.5383
15539TIP3    H168032   0.096   6.349   0.864 -0.7277  0.3526 -0.9680
15539TIP3    H268033   0.194   6.415   0.769 -0.4026  2.2889  0.6355
15540TIP3   OH268034   6.737   3.980  14.254 -0.0905  0.5269 -0.6085
15540TIP3    H168035   6.688   4.052  14.214 -0.3809 -0.6205 -2.4191
15540TIP3    H268036   6.678   3.945  14.321 -0.3069  1.3944 -0.3412
15541TIP3   OH268037   4.378   6.430   5.844 -0.0242  0.1272 -0.2633
15541TIP3    H168038   4.430   6.432   5.924  0.1368 -0.5959 -0.3425
15541TIP3    H268039   4.301   6.378   5.866 -0.5866  0.9658 -0.2267
15542TIP3   OH268040   0.153   5.073   2.109  0.3098 -0.1791  0.2635
15542TIP3    H168041   0.230   5.043   2.158  0.1868  0.6551  0.9993
15542TIP3    H268042   0.131   5.157   2.149 -1.8941 -1.0983  1.1185
15543TIP3   OH268043   5.461   0.422   6.544  0.2697 -0.1932 -0.1209
15543TIP3    H168044   5.410   0.355   6.590 -0.0436  0.2586  0.1936
15543TIP3    H268045   5.429   0.418   6.454 -1.9955  1.6050  0.4860
15544TIP3   OH268046   2.933   6.463  14.265  0.6062  0.4178  0.3289
15544TIP3    H168047   2.988   6.524  14.217 -0.0278  0.6196 -0.1511
15544TIP3    H268048   2.844   6.495  14.251  0.3225 -0.2185  0.6424
15545TIP3   OH268049   3.023   4.087  16.331 -0.2865  0.1825  0.0247
15545TIP3    H168050   2.959   4.034  16.284  0.5010 -0.9996  0.2656
15545TIP3    H268051   3.077   4.126  16.262  0.3092 -0.8382 -0.0924
15546TIP3   OH268052   1.028   4.681   5.510  0.4311  0.6113 -0.1574
15546TIP3    H168053   1.121   4.680   5.532  0.2399  0.3342  0.6583
15546TIP3    H268054   1.026   4.669   5.415  1.2062  0.0556 -0.1138
15547TIP3   OH268055   4.566   4.238   0.030  1.6544 -0.4346  0.1638
15547TIP3    H168056   4.620   4.168   0.066  2.8126  0.3998  0.0893
15547TIP3    H268057   4.581   4.312   0.088 -0.1354 -0.4359  0.6728
15548TIP3   OH268058   5.991   6.573   1.189  0.3655  0.2741 -0.1458
15548TIP3    H168059   5.992   6.580   1.285 -0.4014  0.4553 -0.1470
15548TIP3    H268060   5.972   6.481   1.172 -1.4208  0.5912 -0.1010
15549TIP3   OH268061   6.597   5.254   3.488  0.2845  0.2506 -0.6204
15549TIP3    H168062   6.613   5.247   3.582 -0.4944 -2.5890 -0.6035
15549TIP3    H268063   6.526   5.318   3.481 -1.1403 -1.0355  0.9907
15550TIP3   OH268064   0.302   6.223  11.584  0.1729  0.1507  0.8742
15550TIP3    H168065   0.210   6.219  11.611 -0.2563 -2.0436 -0.6553
15550TIP3    H268066   0.306   6.299  11.525 -0.4390  0.7685  1.6024
15551TIP3   OH268067   3.191   4.966  15.052  0.2537  0.5294 -0.0390
15551TIP3    H168068   3.151   4.922  15.127  0.5157  0.8578  0.2986
15551TIP3    H268069   3.247   4.900  15.012  0.5242  0.5046  0.3716
15552TIP3   OH268070   4.068   5.688   0.486 -0.6994 -0.0538  0.3776
15552TIP3    H168071   4.077   5.674   0.392 -0.4291 -0.0480  0.4021
15552TIP3    H268072   4.130   5.627   0.525 -0.6117  0.1408  0.5434
15553TIP3   OH268073   0.957   2.151  12.747 -0.4887 -0.2500  0.5223
15553TIP3    H168074   0.888   2.204  12.705 -0.3734 -0.0294  0.6077
15553TIP3    H268075   0.914   2.111  12.822 -0.8086 -0.9895 -0.0476
15554TIP3   OH268076   2.439   2.690  13.839  0.8366  0.0813 -0.1744
15554TIP3    H168077   2.416   2.651  13.755  1.9634  0.5013 -0.7001
15554TIP3    H268078   2.534   2.695  13.838  0.7731  2.2354  0.1348
15555TIP3   OH268079   0.823   6.238   3.050 -0.5763 -0.2770 -0.1047
15555TIP3    H168080   0.783   6.318   3.083  0.6940  0.1635  0.4204
15555TIP3    H268081   0.915   6.246   3.073 -0.5244 -2.1608  0.4663
15556TIP3   OH268082   1.332   4.327  10.698 -0.2914  0.4138  0.0224
15556TIP3    H168083   1.366   4.238  10.691 -2.4859 -0.5420  0.5032
15556TIP3    H268084   1.350   4.352  10.789 -0.7810 -0.0685  0.2627
15557TIP3   OH268085   3.031   5.650   5.359 -0.0671 -0.4497 -0.1840
15557TIP3    H168086   2.974   5.602   5.420 -0.6774 -0.2715 -0.5980
15557TIP3    H268087   3.097   5.586   5.334  0.2909 -0.4758  0.7810
15558TIP3   OH268088   0.933   3.834   2.653  0.7975  0.0017  0.0365
15558TIP3    H168089   0.894   3.757   2.695 -0.2975  0.0327 -0.8785
15558TIP3    H268090   0.968   3.802   2.570  0.7220  0.3942 -0.1517
15559TIP3   OH268091   3.533   1.673   1.635  0.7115 -0.8890  0.8398
15559TIP3    H168092   3.560   1.733   1.565  0.6412 -0.6915  0.9838
15559TIP3    H268093   3.542   1.586   1.595 -0.8223 -0.7182  0.0706
15560TIP3   OH268094   6.078   1.745   4.452  0.5896 -0.4711  0.2639
15560TIP3    H168095   6.144   1.805   4.419  0.3057  0.3528  1.1530
15560TIP3    H268096   5.996   1.794   4.446  0.0271 -1.5013 -0.8948
15561TIP3   OH268097   4.131   0.738   5.288 -0.1013  0.4464 -0.3205
15561TIP3    H168098   4.197   0.696   5.233  0.9302  3.6179 -1.7792
15561TIP3    H268099   4.058   0.677   5.289  0.3258 -0.4063 -4.2666
15562TIP3   OH268100   5.984   6.314   3.157  0.0673  0.6042 -0.1933
15562TIP3    H168101   5.999   6.315   3.063  0.7047 -0.2441 -0.1149
15562TIP3    H268102   5.972   6.222   3.178 -2.3542  0.9412  0.2344
15563TIP3   OH268103   0.325   3.941  12.385 -0.2626 -0.0378 -0.0581
15563TIP3    H168104   0.251   3.928  12.445 -0.4616  1.5678  0.1077
15563TIP3    H268105   0.321   4.035  12.364  0.1041 -0.4652 -2.1913
15564TIP3   OH268106   4.807   6.547  15.424 -0.3327 -0.5308  0.1842
15564TIP3    H168107   4.815   6.640  15.446 -0.5721 -0.6982  1.0420
15564TIP3    H268108   4.791   6.546  15.330 -1.0040  0.3356  0.2707
15565TIP3   OH268109   3.789   3.024  10.602  0.2616  0.4581 -0.0658
15565TIP3    H168110   3.806   2.999  10.693 -0.2676  0.0927 -0.0550
15565TIP3    H268111   3.775   3.118  10.605 -0.2154  0.3802  0.3121
15566TIP3   OH268112   3.920   4.196   6.530  0.0722  0.2933  0.3734
15566TIP3    H168113   3.965   4.118   6.498  1.3519  1.4033 -0.6748
15566TIP3    H268114   3.976   4.230   6.599  0.3071  1.0793 -0.1856
15567TIP3   OH268115   0.685   0.557  10.231 -0.4968 -0.0699  0.1009
15567TIP3    H168116   0.619   0.534  10.296 -2.2276 -0.6690 -1.7619
15567TIP3    H268117   0.694   0.479  10.177 -0.3673  0.9161 -1.3769
15568TIP3   OH268118   2.178   2.977  15.061  0.5261  0.8164  0.1702
15568TIP3    H168119   2.140   2.993  15.148 -1.8812  1.8102 -0.9833
15568TIP3    H268120   2.257   3.029  15.060 -0.6803  2.7881  0.9516
15569TIP3   OH268121   3.805   3.427   5.518 -1.0387  0.2443 -0.3774
15569TIP3    H168122   3.720   3.445   5.476 -1.1884 -2.0935 -1.2337
15569TIP3    H268123   3.866   3.419   5.445 -0.2572  0.9657  0.1834
15570TIP3   OH268124   5.515   3.254  14.032 -0.2839 -0.1422 -0.1024
15570TIP3    H168125   5.552   3.328  14.080 -1.0083 -0.5229  1.0925
15570TIP3    H268126   5.576   3.238  13.960  1.0769  0.1603  0.9607
15571TIP3   OH268127   1.405   3.372   5.572 -0.0326  0.1731 -0.2441
15571TIP3    H168128   1.383   3.464   5.559 -1.6296 -0.2270 -0.4963
15571TIP3    H268129   1.467   3.352   5.501 -0.5441  0.7497 -0.8628
15572TIP3   OH268130   2.798   3.552   4.037  0.4395  0.3071 -0.2461
15572TIP3    H168131   2.753   3.469   4.021  0.7905  0.1540 -0.4541
15572TIP3    H268132   2.838   3.541   4.124 -1.2436  1.0398  0.6668
15573TIP3   OH268133   4.529   1.839  12.175 -0.1456  0.4489 -0.4862
15573TIP3    H168134   4.624   1.831  12.180 -0.2048 -0.1796 -0.2570
15573TIP3    H268135   4.499   1.820  12.264 -0.5041  0.3810 -0.6211
15574TIP3   OH268136   5.074   3.333   0.511  0.5412  0.5809 -0.2662
15574TIP3    H168137   4.988   3.322   0.469  0.9121  0.1514 -0.9294
15574TIP3    H268138   5.137   3.310   0.442  1.2046  1.3701  0.0656
15575TIP3   OH268139   3.235   2.217  12.376  0.0307  0.7271  0.0658
15575TIP3    H168140   3.276   2.144  12.330 -2.5677 -0.6773 -0.1734
15575TIP3    H268141   3.182   2.176  12.444 -1.2303  2.4299  0.1722
15576TIP3   OH268142   5.522   6.766   2.660 -0.4045  0.3613 -0.5737
15576TIP3    H168143   5.534   6.860   2.646 -0.8880  0.2953 -1.5539
15576TIP3    H268144   5.608   6.733   2.683 -0.3428  1.1345  0.3808
15577TIP3   OH268145   0.298   4.959  10.641  0.3629  0.4454 -0.2778
15577TIP3    H168146   0.211   4.927  10.619 -0.6281  1.6105  1.6681
15577TIP3    H268147   0.341   4.972  10.556 -1.1058 -0.7598 -1.2592
15578TIP3   OH268148   0.081   1.041  12.233  0.5027 -0.7608  0.3065
15578TIP3    H168149   0.079   1.123  12.185  0.9544 -0.2702  1.1050
15578TIP3    H268150   0.157   0.994  12.198 -0.6530 -1.5512 -1.2572
15579TIP3   OH268151   6.394   0.331   1.619 -0.0385  0.3541  0.2105
15579TIP3    H168152   6.442   0.330   1.537 -0.3376 -1.7337  0.0017
15579TIP3    H268153   6.345   0.248   1.620 -2.4485  1.6632  1.1042
15580TIP3   OH268154   5.766   1.973   6.278 -0.0722 -0.6432  0.0166
15580TIP3    H168155   5.719   1.971   6.195  0.4814  0.9208 -0.3838
15580TIP3    H268156   5.851   2.012   6.256  0.1680 -0.4164  1.2635
15581TIP3   OH268157   2.265   1.864  14.236  0.5578 -0.6155  0.8035
15581TIP3    H168158   2.281   1.893  14.147 -0.6371 -0.5054  0.6049
15581TIP3    H268159   2.344   1.817  14.261  1.3052  0.1996  0.0497
15582TIP3   OH268160   1.576   3.799   2.199 -0.0459  0.3201 -0.7107
15582TIP3    H168161   1.601   3.821   2.109  1.1184 -0.2749 -0.5599
15582TIP3    H268162   1.654   3.757   2.236 -0.0049  1.7491  1.0089
15583TIP3   OH268163   2.417   0.309  15.665  0.1364 -0.2653 -0.3166
15583TIP3    H168164   2.344   0.269  15.618 -0.0993  0.2894 -0.4276
15583TIP3    H268165   2.485   0.242  15.665 -0.1430 -0.5531 -0.7639
15584TIP3   OH268166   6.726   6.045  13.091  0.3903  0.1113  0.5692
15584TIP3    H168167   6.739   6.010  13.180  2.1343  1.1732  0.7905
15584TIP3    H268168   6.713   6.139  13.105 -0.0592  0.1713 -0.2556
15585TIP3   OH268169   6.707   0.325   3.220  0.0220 -0.2693  0.6492
15585TIP3    H168170   6.628   0.354   3.266  0.6284 -0.0157  1.5567
15585TIP3    H268171   6.762   0.403   3.215  1.6720 -1.1688  3.1229
15586TIP3   OH268172   4.195   1.785   2.806 -0.8185 -0.5448  0.1569
15586TIP3    H168173   4.156   1.714   2.754  0.0749 -0.9669  0.0537
15586TIP3    H268174   4.126   1.809   2.868 -1.4956 -0.8107 -0.4714
15587TIP3   OH268175   2.465   0.873  15.648 -0.5429  0.1234  0.2884
15587TIP3    H168176   2.439   0.957  15.685 -0.1304  0.4110 -0.0664
15587TIP3    H268177   2.408   0.862  15.571 -0.1480  0.3878 -0.0426
15588TIP3   OH268178   3.904   2.216  14.124  0.5433 -0.7846  0.0867
15588TIP3    H168179   3.903   2.310  14.107 -0.5315 -0.8688 -0.4064
15588TIP3    H268180   3.978   2.183  14.074  1.2179 -0.1419  0.6379
15589TIP3   OH268181   1.453   4.057   5.084 -0.4387  0.4970 -0.0692
15589TIP3    H168182   1.384   4.121   5.101 -1.3383 -0.3950 -0.1966
15589TIP3    H268183   1.408   3.987   5.037 -0.1126 -1.4326  2.2764
15590TIP3   OH268184   6.261   1.818  15.449  0.3184  0.0367  0.1435
15590TIP3    H168185   6.181   1.828  15.500  0.7445 -0.6139  0.9592
15590TIP3    H268186   6.260   1.727  15.420 -0.8436  0.8177 -2.6481
15591TIP3   OH268187   6.495   3.550   3.079  0.0109 -0.1749 -0.1678
15591TIP3    H168188   6.573   3.520   3.031  0.3221  1.7172 -0.9591
15591TIP3    H268189   6.524   3.555   3.170 -0.0956 -2.2500  0.0242
15592TIP3   OH268190   1.058   6.595  13.661  0.3647  0.5304  0.1610
15592TIP3    H168191   1.020   6.525  13.714  0.7051 -0.1425 -0.4655
15592TIP3    H268192   1.072   6.555  13.574 -0.0153  1.5530 -0.3846
15593TIP3   OH268193   1.653   1.939   1.318 -0.2016  0.2519  0.0025
15593TIP3    H168194   1.716   2.011   1.311  0.8465 -0.7002 -0.6380
15593TIP3    H268195   1.667   1.886   1.240  1.0202 -2.1889  1.7477
15594TIP3   OH268196   6.435   6.778  12.491 -0.6375  0.2841  0.2497
15594TIP3    H168197   6.361   6.718  12.499 -0.6099  0.0426 -1.1094
15594TIP3    H268198   6.457   6.801  12.581 -2.5435  0.5739  0.6767
15595TIP3   OH268199   0.780   0.031   1.710  0.2995  0.4440  0.6535
15595TIP3    H168200   0.768   0.126   1.703  0.1211  0.3079 -1.9268
15595TIP3    H268201   0.747   0.009   1.797  1.6719  2.9021  1.9135
15596TIP3   OH268202   0.507   0.109  14.249  0.4424 -0.2692  0.1224
15596TIP3    H168203   0.594   0.123  14.286 -0.0535 -0.3355  1.3633
15596TIP3    H268204   0.482   0.195  14.214  0.2615  0.2420  1.4464
15597TIP3   OH268205   1.075   3.438  10.774 -0.0687  0.1717 -0.0188
15597TIP3    H168206   1.126   3.426  10.693 -0.6479  1.7389 -0.6599
15597TIP3    H268207   1.002   3.494  10.748 -0.7851 -0.0451  1.4167
15598TIP3   OH268208   4.824   3.814   0.485  0.0286  0.5800  0.6255
15598TIP3    H168209   4.862   3.884   0.539 -0.4838  0.7872  0.7200
15598TIP3    H268210   4.762   3.770   0.543 -0.6041  0.8709  0.1777
15599TIP3   OH268211   3.111   0.651   3.171 -0.3125 -0.2573 -0.2249
15599TIP3    H168212   3.199   0.633   3.203  0.8577  0.7457 -2.6251
15599TIP3    H268213   3.076   0.716   3.231  0.1008 -1.4783  1.4109
15600TIP3   OH268214   5.253   5.732  11.059  0.3539  0.0325  0.1733
15600TIP3    H168215   5.228   5.658  11.003 -2.3505  0.5294  0.5773
15600TIP3    H268216   5.318   5.696  11.119  0.4441 -1.5412 -0.8224
15601TIP3   OH268217   0.559   2.904   4.088 -0.0979  0.3225  0.1389
15601TIP3    H168218   0.571   2.988   4.044  2.0062 -0.8102 -1.6160
15601TIP3    H268219   0.573   2.839   4.020  1.6371 -1.4940  2.1114
15602TIP3   OH268220   2.036   4.744   0.599  0.8815  0.1321  0.2224
15602TIP3    H168221   2.105   4.712   0.656  0.6336 -0.1414  0.3687
15602TIP3    H268222   2.008   4.667   0.549  0.0230  0.0219  0.8420
15603TIP3   OH268223   5.961   2.505   0.143  0.2711 -0.2943 -0.0041
15603TIP3    H168224   5.915   2.506   0.059  0.0103 -0.3653  0.1388
15603TIP3    H268225   5.950   2.593   0.178 -0.6983 -0.6216  0.5417
15604TIP3   OH268226   4.283   4.561   4.517 -0.1143  0.8567  0.2136
15604TIP3    H168227   4.358   4.501   4.515 -0.6639  0.1772 -0.1513
15604TIP3    H268228   4.254   4.559   4.609  2.0744  3.3815  1.1179
15605TIP3   OH268229   3.543   5.214  11.785  0.5118  0.1543 -1.1675
15605TIP3    H168230   3.473   5.166  11.742  0.9150 -1.0360 -0.5499
15605TIP3    H268231   3.584   5.265  11.715 -2.0523  2.3244 -1.2400
15606TIP3   OH268232   6.106   3.768  13.000 -0.4065  0.3888  0.2722
15606TIP3    H168233   6.104   3.678  13.033 -0.8545 -0.1054 -1.0123
15606TIP3    H268234   6.016   3.799  13.010 -0.3512  0.5315  0.3166
15607TIP3   OH268235   1.157   5.286  16.301  0.5589  0.8612  0.4042
15607TIP3    H168236   1.178   5.287  16.395 -1.2350  0.8849  0.8452
15607TIP3    H268237   1.235   5.320  16.259  2.4641 -1.6242  1.6464
15608TIP3   OH268238   2.567   1.087   0.906 -0.1781  0.5646 -0.2195
15608TIP3    H168239   2.649   1.121   0.943  0.4591 -0.8444 -0.2593
15608TIP3    H268240   2.566   0.995   0.933 -1.3947  0.3824 -0.8531
15609TIP3   OH268241   1.350   0.901   3.977  0.2688 -0.1665 -0.4863
15609TIP3    H168242   1.334   0.826   3.920  0.0848 -0.8552  0.4465
15609TIP3    H268243   1.420   0.873   4.035  1.1545  0.8936 -1.0114
15610TIP3   OH268244   5.875   0.008   5.479 -0.0301  0.0295 -0.3416
15610TIP3    H168245   5.780   0.021   5.479  0.0465  1.3236  2.2857
15610TIP3    H268246   5.887  -0.084   5.501 -0.7992  0.5128  2.5703
15611TIP3   OH268247   3.632   3.816  11.298  0.4041  0.2604 -0.3483
15611TIP3    H168248   3.641   3.733  11.344 -1.7296 -0.0611 -0.3988
15611TIP3    H268249   3.549   3.852  11.329  1.1659  2.3058 -0.4850
15612TIP3   OH268250   4.342   2.930   3.016 -0.3983  0.1651  0.4377
15612TIP3    H168251   4.341   2.983   3.097 -0.9615  1.7559 -0.5567
15612TIP3    H268252   4.254   2.893   3.012 -0.5422  0.5161  0.2937
15613TIP3   OH268253   4.396   1.593  13.785  0.1250  0.1832  0.1368
15613TIP3    H168254   4.401   1.562  13.695  2.1988  1.1620 -0.1332
15613TIP3    H268255   4.418   1.517  13.838  1.1746  0.1668 -0.3100
15614TIP3   OH268256   5.675   5.704  14.907 -0.2117 -0.1882  0.4685
15614TIP3    H168257   5.594   5.658  14.927  0.0318 -1.1364 -0.6409
15614TIP3    H268258   5.682   5.771  14.975 -1.9426 -0.0498  0.5600
15615TIP3   OH268259   4.080   1.523   3.230  0.3780  0.1423 -0.4591
15615TIP3    H168260   4.152   1.541   3.170 -0.7614  0.5081 -1.7827
15615TIP3    H268261   4.038   1.608   3.244 -0.8062 -0.3070 -1.1036
15616TIP3   OH268262   1.413   0.145  15.574  0.2146 -0.1456  0.1652
15616TIP3    H168263   1.361   0.140  15.654 -0.7148  1.3727 -0.3043
15616TIP3    H268264   1.406   0.058  15.535  2.1740 -1.5121  2.5681
15617TIP3   OH268265   6.513   5.421  14.861  0.4727  0.2625  0.1059
15617TIP3    H168266   6.578   5.457  14.921  0.6661 -1.0979  0.7699
15617TIP3    H268267   6.458   5.366  14.916 -0.2741  0.1606 -0.7237
15618TIP3   OH268268   6.307   4.434   1.126  0.0321  0.3059  0.0718
15618TIP3    H168269   6.214   4.410   1.129 -0.8475  3.3506  0.0143
15618TIP3    H268270   6.328   4.459   1.216  0.0734  1.9146 -0.3562
15619TIP3   OH268271   0.580   0.298   5.105 -0.1117  0.1707 -0.1090
15619TIP3    H168272   0.499   0.349   5.105 -0.6854 -0.7333  0.3551
15619TIP3    H268273   0.645   0.358   5.068 -0.6041  1.5076  1.0863
15620TIP3   OH268274   2.227   1.237  11.960 -0.5503  0.2516 -0.1496
15620TIP3    H168275   2.246   1.292  11.884  0.8814 -0.0600 -0.0542
15620TIP3    H268276   2.312   1.225  12.003 -1.1796 -0.3175  1.0040
15621TIP3   OH268277   1.333   6.017   1.724 -0.1686  0.4482 -0.3920
15621TIP3    H168278   1.295   5.937   1.688  1.8049 -0.9752  0.5061
15621TIP3    H268279   1.265   6.052   1.782 -0.5896 -1.3503  0.2698
15622TIP3   OH268280   1.180   6.058  12.323 -0.4934 -0.2689  0.5186
15622TIP3    H168281   1.156   5.968  12.302  2.7491 -1.4040  1.0796
15622TIP3    H268282   1.236   6.050  12.400  1.4644  2.0037 -0.5453
15623TIP3   OH268283   0.097   2.646   3.176 -0.2000  0.0152 -0.7949
15623TIP3    H168284   0.091   2.551   3.187 -1.9716  0.1075 -0.6595
15623TIP3    H268285   0.182   2.670   3.214  0.1530 -1.4763 -0.6003
15624TIP3   OH268286   6.207   6.299   1.511 -0.3042 -0.0803 -0.9263
15624TIP3    H168287   6.239   6.359   1.578 -3.0131 -0.0730  0.5151
15624TIP3    H268288   6.227   6.342   1.428 -0.8434  2.1436  0.0201
15625TIP3   OH268289   1.881   2.974  12.253  0.0358  0.1831  0.0573
15625TIP3    H168290   1.921   2.916  12.188  0.8347  0.4481  0.2946
15625TIP3    H268291   1.888   3.061  12.214 -2.9556 -0.0343 -1.1990
15626TIP3   OH268292   2.838   4.701  11.607  0.4353 -0.0531  0.2267
15626TIP3    H168293   2.812   4.731  11.519 -0.6999 -0.2776  0.4669
15626TIP3    H268294   2.849   4.606  11.597 -0.5468 -0.2050  0.5120
15627TIP3   OH268295   2.410   6.662  10.851 -0.2887  0.3018 -0.4231
15627TIP3    H168296   2.423   6.594  10.916 -1.5878 -0.4016 -0.8522
15627TIP3    H268297   2.377   6.737  10.901 -1.1662 -0.1944 -0.2316
15628TIP3   OH268298   1.353   0.631  16.890  0.4606 -0.5101  0.5772
15628TIP3    H168299   1.396   0.601  16.810  0.8767 -2.2497  1.4042
15628TIP3    H268300   1.350   0.726  16.882 -0.8602 -0.6799 -2.1693
15629TIP3   OH268301   4.958   6.034   1.099 -0.0148  0.4359  1.3562
15629TIP3    H168302   4.931   5.979   1.173  0.2833 -0.3731  0.8831
15629TIP3    H268303   4.961   6.123   1.134  0.5962  0.0018  2.4392
15630TIP3   OH268304   1.290   1.802  13.773  0.0753 -0.0712 -0.1960
15630TIP3    H168305   1.379   1.777  13.747 -0.2700 -4.9922  2.1906
15630TIP3    H268306   1.301   1.845  13.858  0.1593  0.1113 -0.2966
15631TIP3   OH268307   3.986   6.238   0.825 -0.3918  0.2710 -0.3345
15631TIP3    H168308   3.996   6.250   0.730 -0.1961 -0.6333 -0.4357
15631TIP3    H268309   4.075   6.222   0.856 -0.5589 -0.2436 -0.1196
15632TIP3   OH268310   5.640   4.340  11.503 -0.1477  0.0768  0.3050
15632TIP3    H168311   5.666   4.357  11.412  0.9074  0.5554  0.6794
15632TIP3    H268312   5.688   4.405  11.554 -1.1693  0.1919  1.1633
15633TIP3   OH268313   1.743   6.210   2.389  0.0163  0.0032  0.1381
15633TIP3    H168314   1.709   6.300   2.386  1.2462  0.6006  1.9645
15633TIP3    H268315   1.802   6.210   2.464  2.5182 -1.4716 -1.6715
15634TIP3   OH268316   4.356   0.280  14.663 -0.2603  0.5728  0.0065
15634TIP3    H168317   4.382   0.191  14.688 -2.4155 -0.6645 -1.7426
15634TIP3    H268318   4.438   0.322  14.637  0.6889 -1.3518 -0.3242
15635TIP3   OH268319   1.319   4.150  14.651  0.2698 -0.3887  0.0442
15635TIP3    H168320   1.400   4.107  14.624  0.2393 -0.8734  0.7247
15635TIP3    H268321   1.252   4.081  14.649 -0.2882  0.1491 -1.1758
15636TIP3   OH268322   3.322   6.253  13.228 -0.0433  0.3642 -0.0771
15636TIP3    H168323   3.345   6.160  13.219  0.6342  0.4908  0.2537
15636TIP3    H268324   3.404   6.295  13.253 -0.7314  0.7574  1.6821
15637TIP3   OH268325   4.870   1.138  15.150  0.1063  0.0529 -0.3580
15637TIP3    H168326   4.916   1.218  15.127  2.5601 -0.9984  0.5450
15637TIP3    H268327   4.878   1.082  15.073 -2.1791  0.8083 -1.2420
15638TIP3   OH268328   5.432   0.408  11.037 -0.4145 -0.1353 -0.1692
15638TIP3    H168329   5.342   0.378  11.039 -0.1084 -1.1332 -0.4252
15638TIP3    H268330   5.454   0.411  10.943 -0.2960  0.4652 -0.1257
15639TIP3   OH268331   1.763   4.682  17.017 -0.4261 -0.5274  0.2142
15639TIP3    H168332   1.728   4.607  16.968  1.2535 -0.5851 -0.9912
15639TIP3    H268333   1.829   4.644  17.075  1.5069  0.0851 -1.4545
15640TIP3   OH268334   3.725   4.876   3.684 -0.0222  0.3758 -0.2702
15640TIP3    H168335   3.786   4.912   3.619 -0.0142 -1.1320 -1.1529
15640TIP3    H268336   3.761   4.790   3.705  0.1200  0.9312  1.9814
15641TIP3   OH268337   2.701   6.745  12.986  0.9058 -0.5078  0.2678
15641TIP3    H168338   2.610   6.764  12.964  0.9119 -0.8873 -0.0953
15641TIP3    H268339   2.725   6.813  13.049  0.2112 -0.7230  0.7730
15642TIP3   OH268340   3.593   5.280  13.582  0.3687  0.8120 -0.0047
15642TIP3    H168341   3.601   5.221  13.657 -1.6613 -0.1310 -0.4606
15642TIP3    H268342   3.581   5.367  13.620  0.6813  0.5380  0.7295
15643TIP3   OH268343   4.136   0.630   2.244  0.2807  0.0165 -0.7347
15643TIP3    H168344   4.179   0.664   2.323 -1.6221  0.3242  0.2244
15643TIP3    H268345   4.138   0.703   2.183  2.8706 -0.6026 -1.5063
15644TIP3   OH268346   2.942   6.793  15.245  0.2633  0.5906 -0.2217
15644TIP3    H168347   2.899   6.861  15.193  1.4097  0.4433 -1.4106
15644TIP3    H268348   3.033   6.822  15.251  0.3224  0.1998  1.0491
15645TIP3   OH268349   5.151   6.450  15.766 -0.0634 -0.5428 -0.0711
15645TIP3    H168350   5.129   6.465  15.857  1.1439 -2.5437  0.6166
15645TIP3    H268351   5.177   6.358  15.762  0.9848 -0.2322 -2.2053
15646TIP3   OH268352   0.401   2.365  13.232 -0.5909 -0.1184  0.2938
15646TIP3    H168353   0.440   2.438  13.184 -0.4799  0.2952  0.9803
15646TIP3    H268354   0.366   2.307  13.165  0.6850 -0.2042 -0.3260
15647TIP3   OH268355   4.430   4.260  12.399  0.4678  0.3041 -0.0893
15647TIP3    H168356   4.447   4.349  12.429 -0.4926  0.6896 -0.6536
15647TIP3    H268357   4.336   4.248  12.411  0.5588 -0.5795 -0.1665
15648TIP3   OH268358   0.319   6.468  12.045 -0.2958 -0.3294  0.0339
15648TIP3    H168359   0.358   6.427  12.122  1.3457  0.3983 -0.3620
15648TIP3    H268360   0.336   6.406  11.974  2.1622  0.8947 -0.5593
15649TIP3   OH268361   4.899   2.150  12.477  0.5637 -0.8161 -0.6511
15649TIP3    H168362   4.926   2.059  12.491  2.8532 -0.1520 -0.3300
15649TIP3    H268363   4.981   2.198  12.463 -0.5388  1.2722 -0.4444
15650TIP3   OH268364   4.667   2.814  10.356  0.1396  0.3430 -0.0295
15650TIP3    H168365   4.583   2.855  10.379 -1.1029 -1.6552 -0.7070
15650TIP3    H268366   4.733   2.873  10.391 -1.4648  3.2970 -1.5825
15651TIP3   OH268367   4.570   0.256  11.577 -0.4054  0.4016  0.3882
15651TIP3    H168368   4.598   0.347  11.580  0.2202  0.1788  1.6607
15651TIP3    H268369   4.491   0.253  11.630 -1.3312  0.4817 -0.9275
15652TIP3   OH268370   6.713   4.319   4.128  0.1307  0.1625 -0.4991
15652TIP3    H168371   6.652   4.281   4.065 -0.0923  1.1021 -0.8763
15652TIP3    H268372   6.758   4.388   4.078 -1.6944  2.5556  0.9048
15653TIP3   OH268373   1.726   4.788  16.300  0.1125 -0.1812  0.3705
15653TIP3    H168374   1.718   4.868  16.352  1.5731  0.5906 -0.5011
15653TIP3    H268375   1.710   4.817  16.210  0.0289 -1.0099  0.1072
15654TIP3   OH268376   4.717   6.434   3.454  0.2491 -0.0687 -0.4012
15654TIP3    H168377   4.728   6.343   3.426 -0.3878 -0.3531  0.2237
15654TIP3    H268378   4.675   6.427   3.540  2.8219  0.7520  1.0078
15655TIP3   OH268379   4.313   1.379  12.959 -0.5494  0.1267 -0.2022
15655TIP3    H168380   4.401   1.354  12.985 -1.2262 -1.6592  0.5035
15655TIP3    H268381   4.255   1.331  13.018 -2.0039  2.4533  0.4003
15656TIP3   OH268382   3.659   4.103  12.725  0.0579  0.0555  0.4862
15656TIP3    H168383   3.573   4.144  12.725 -0.6137 -1.1110 -2.4119
15656TIP3    H268384   3.669   4.068  12.814 -0.4865  3.8860  2.2358
15657TIP3   OH268385   5.597   0.078  13.287 -0.3937 -0.3858  0.0690
15657TIP3    H168386   5.681   0.091  13.243  0.4441 -2.5311  0.8914
15657TIP3    H268387   5.597   0.140  13.359 -0.2572  0.7486 -0.8773
15658TIP3   OH268388   1.259   5.616   5.502 -0.1426  0.0129 -0.4430
15658TIP3    H168389   1.170   5.637   5.476  1.4001  3.7049 -3.7042
15658TIP3    H268390   1.305   5.596   5.420  2.1132 -1.6534  1.0936
15659TIP3   OH268391   1.589   5.537   0.005  0.3814 -0.2932  0.0986
15659TIP3    H168392   1.572   5.571   0.093 -0.4056 -0.5099  0.0342
15659TIP3    H268393   1.671   5.488   0.014  0.8537  0.5253  0.4778
15660TIP3   OH268394   1.722   0.702  15.585 -0.1858  0.8548  0.3795
15660TIP3    H168395   1.763   0.738  15.664  0.3028 -0.8659  0.9315
15660TIP3    H268396   1.635   0.675  15.614 -0.1004  0.4568  0.2583
15661TIP3   OH268397   4.355   2.954  11.556  0.0342 -0.4994 -0.3185
15661TIP3    H168398   4.284   2.980  11.498  2.0450  0.4782 -2.5057
15661TIP3    H268399   4.328   2.983  11.643 -1.9558  0.3705 -1.1865
15662TIP3   OH268400   2.920   1.713  15.244  0.1133 -0.1354  0.3752
15662TIP3    H168401   2.905   1.629  15.199  1.1678 -0.9659  1.5206
15662TIP3    H268402   2.835   1.758  15.238 -0.9564 -1.9517  1.0823
15663TIP3   OH268403   6.191   4.064  15.571 -0.4208  0.7129 -0.1386
15663TIP3    H168404   6.270   4.118  15.577 -0.6844  0.9465  3.0197
15663TIP3    H268405   6.221   3.982  15.533  0.8048  1.6438 -1.2968
15664TIP3   OH268406   6.284   3.505  13.983 -0.4033  0.7653 -0.0202
15664TIP3    H168407   6.219   3.437  14.002 -0.9065  1.0163 -0.7767
15664TIP3    H268408   6.322   3.479  13.899  2.2283 -0.6580  1.4834
15665TIP3   OH268409   5.316   2.098   2.096  0.2602  0.5154 -0.7985
15665TIP3    H168410   5.241   2.158   2.094 -0.1309  0.0820  0.2226
15665TIP3    H268411   5.331   2.076   2.004 -1.0082  0.4399 -1.0082
15666TIP3   OH268412   2.486   4.472   1.321 -0.3757  0.2608  0.1982
15666TIP3    H168413   2.479   4.567   1.329 -1.1404  0.2149  0.1513
15666TIP3    H268414   2.547   4.457   1.249  2.0633  0.6999  2.0273
15667TIP3   OH268415   0.295   5.527   5.670  0.1678 -0.2518 -0.0976
15667TIP3    H168416   0.244   5.565   5.598  1.6246  2.2606  0.0838
15667TIP3    H268417   0.268   5.576   5.747  1.0891 -0.5708  0.4458
15668TIP3   OH268418   0.123   5.029  14.537  0.1824 -0.4175  0.7076
15668TIP3    H168419   0.168   5.024  14.453  1.0362 -0.0056  1.1192
15668TIP3    H268420   0.177   5.089  14.589 -0.3997 -0.5641  1.4977
15669TIP3   OH268421   0.216   4.002   4.272  0.1339  0.5312 -0.4731
15669TIP3    H168422   0.211   3.940   4.345  1.9199  1.7698  0.7720
15669TIP3    H268423   0.172   4.081   4.305  1.1010  1.1533 -0.6284
15670TIP3   OH268424   5.714   2.023   3.093 -0.1974 -0.1767 -0.1689
15670TIP3    H168425   5.773   1.971   3.148 -0.5289  0.8482  1.2055
15670TIP3    H268426   5.687   1.962   3.024  0.9846 -1.2229  0.2436
15671TIP3   OH268427   4.220   0.998  16.256  0.1838 -0.5349 -0.3003
15671TIP3    H168428   4.210   0.962  16.169  1.9033 -0.8912 -0.3896
15671TIP3    H268429   4.300   1.051  16.252 -0.7904  1.1127  0.5401
15672TIP3   OH268430   6.812   0.216   3.611 -0.4482  0.2459 -0.2080
15672TIP3    H168431   6.899   0.212   3.571 -0.8267 -0.0793 -1.0160
15672TIP3    H268432   6.829   0.240   3.702  0.6467 -1.5989  0.1247
15673TIP3   OH268433   3.475   3.954   3.302 -0.4655  0.5098 -0.4258
15673TIP3    H168434   3.391   4.001   3.300 -1.2341 -0.8003 -0.1150
15673TIP3    H268435   3.492   3.930   3.211 -0.7009  0.3293 -0.4245
15674TIP3   OH268436   2.918   0.521   3.001 -0.2396 -0.1886  0.2527
15674TIP3    H168437   2.936   0.559   3.087 -1.2051  0.1940  0.3050
15674TIP3    H268438   2.954   0.433   3.005 -0.1781 -0.1359  1.0080
15675TIP3   OH268439   5.091   0.035  12.987 -0.1299 -0.9651  0.0198
15675TIP3    H168440   5.131  -0.020  13.055 -0.4722 -0.4132  0.6752
15675TIP3    H268441   5.091   0.123  13.025 -0.3953 -0.6677 -0.6721
15676TIP3   OH268442   2.468   6.109  12.450 -0.2509  0.0164 -0.2072
15676TIP3    H168443   2.473   6.038  12.386 -1.4436  0.0491 -0.3601
15676TIP3    H268444   2.503   6.071  12.531  0.3911 -0.3103 -0.6247
15677TIP3   OH268445   4.909   4.162  14.030  0.0176 -0.1621 -0.6001
15677TIP3    H168446   4.956   4.079  14.020 -0.2272 -0.5363  1.1735
15677TIP3    H268447   4.817   4.138  14.028 -0.0552  0.0837 -0.1943
15678TIP3   OH268448   4.181   0.027   5.065 -0.6578 -0.1248  0.0604
15678TIP3    H168449   4.154  -0.050   5.115  0.3736 -0.4021  0.2123
15678TIP3    H268450   4.128   0.099   5.102 -1.0562 -0.6103  0.4544
15679TIP3   OH268451   5.020   4.807  14.818  0.8011 -0.3668  0.1928
15679TIP3    H168452   5.014   4.879  14.756  0.1999 -0.7661 -0.2307
15679TIP3    H268453   4.942   4.815  14.872  0.6560 -0.7734  0.0523
15680TIP3   OH268454   0.182   6.714   4.594 -0.0616  0.6617  0.4588
15680TIP3    H168455   0.179   6.636   4.538 -1.1544 -0.8214  2.4386
15680TIP3    H268456   0.216   6.682   4.677 -3.9068  1.3816  2.5288
15681TIP3   OH268457   1.911   6.098  12.796  0.1113  0.0392 -0.6678
15681TIP3    H168458   1.882   6.041  12.867 -0.4264 -1.3439 -1.9518
15681TIP3    H268459   1.831   6.144  12.768  0.2946  0.4804 -0.4707
15682TIP3   OH268460   4.262   4.006  10.580  0.6976 -0.1003 -0.3966
15682TIP3    H168461   4.278   3.911  10.576 -0.0047 -0.2163 -0.5991
15682TIP3    H268462   4.181   4.018  10.530  1.1826  0.7086 -1.0112
15683TIP3   OH268463   1.213   2.425  17.066  0.3407 -0.0702  0.6709
15683TIP3    H168464   1.152   2.373  17.013  0.4814  0.0539  0.3812
15683TIP3    H268465   1.251   2.488  17.004  1.6757 -0.9408  0.5692
15684TIP3   OH268466   1.034   4.668  12.363  0.2578 -0.0514 -0.1910
15684TIP3    H168467   0.949   4.710  12.374  0.7581  0.5822  1.4746
15684TIP3    H268468   1.018   4.599  12.298 -1.0214  1.4126 -1.5184
15685TIP3   OH268469   1.685   2.191  12.031  0.1356 -0.4244  0.1383
15685TIP3    H168470   1.629   2.176  12.107  0.3199 -0.7461  0.2128
15685TIP3    H268471   1.731   2.108  12.018  0.4274 -0.2349 -0.0586
15686TIP3   OH268472   3.928   3.216  10.356  0.3879 -0.0729  0.4858
15686TIP3    H168473   3.867   3.222  10.430  0.9654  0.7281  0.9214
15686TIP3    H268474   3.872   3.211  10.279 -0.2341 -1.7655  1.0116
15687TIP3   OH268475   5.379   1.639   4.739 -0.1125 -0.0633 -0.0748
15687TIP3    H168476   5.402   1.601   4.654 -2.1136 -2.4430  0.3607
15687TIP3    H268477   5.457   1.627   4.793  0.2133 -1.1211 -0.7621
15688TIP3   OH268478   4.561   2.091  11.613 -0.3269 -0.2402  0.0241
15688TIP3    H168479   4.605   2.163  11.658 -1.3342 -0.5295  1.5441
15688TIP3    H268480   4.632   2.036  11.580  0.4592  1.5913 -1.4595
15689TIP3   OH268481   2.449   2.044   4.569  0.1023 -0.1092 -0.1980
15689TIP3    H168482   2.456   2.139   4.574 -1.0024 -0.0518  0.9252
15689TIP3    H268483   2.374   2.029   4.511 -0.2864 -0.2610  0.3369
15690TIP3   OH268484   0.177   4.279  16.201 -0.0579 -0.3779 -0.6035
15690TIP3    H168485   0.171   4.271  16.296  1.0192  1.3267 -0.3469
15690TIP3    H268486   0.265   4.313  16.186 -1.0457  1.7238 -2.0285
15691TIP3   OH268487   3.820   5.547  14.743 -0.4069  0.2970 -0.5664
15691TIP3    H168488   3.856   5.631  14.774  1.5990 -0.4051 -0.7966
15691TIP3    H268489   3.897   5.489  14.738 -1.2388 -0.7300 -3.1191
15692TIP3   OH268490   1.385   6.503   3.293  0.4525  0.2856  0.0383
15692TIP3    H168491   1.420   6.440   3.356  0.9678 -1.1964 -1.6426
15692TIP3    H268492   1.429   6.585   3.314  2.3724 -0.7134  0.1783
15693TIP3   OH268493   4.321   6.074   1.482  0.6494  0.4633 -0.3197
15693TIP3    H168494   4.246   6.127   1.455  0.3953 -0.4689 -1.5350
15693TIP3    H268495   4.398   6.126   1.458  0.4329  1.4682  1.0247
15694TIP3   OH268496   0.723   2.895   3.703 -0.0541 -0.5288  0.3219
15694TIP3    H168497   0.679   2.818   3.740 -0.0347  0.2252  1.9908
15694TIP3    H268498   0.652   2.950   3.671 -0.0704 -1.1944 -0.8388
15695TIP3   OH268499   5.984   2.129  14.849  0.9063  0.0846  0.6923
15695TIP3    H168500   5.913   2.169  14.900 -0.7845 -1.0512 -0.6613
15695TIP3    H268501   6.028   2.203  14.807 -0.8687  0.7151 -0.1572
15696TIP3   OH268502   5.441   4.821  15.306  0.2539  0.2406 -0.4592
15696TIP3    H168503   5.456   4.744  15.361 -0.8508  1.5310  1.8147
15696TIP3    H268504   5.527   4.863  15.302  0.3912  0.0414  0.1952
15697TIP3   OH268505   0.205   3.377  14.714 -0.3766 -0.4029 -0.0577
15697TIP3    H168506   0.288   3.388  14.667 -0.4182 -0.4071 -0.1315
15697TIP3    H268507   0.158   3.459  14.700  0.1514  0.1172  1.0437
15698TIP3   OH268508   0.910   5.550   0.877  0.2564  0.2306 -0.0103
15698TIP3    H168509   0.943   5.500   0.952  0.3981  1.5299  0.8421
15698TIP3    H268510   0.986   5.561   0.820  0.6517  0.8596  0.6111
15699TIP3   OH268511   3.074   0.481   4.232 -0.3123 -0.2873 -0.4726
15699TIP3    H168512   2.995   0.493   4.284 -1.1816 -1.8124 -1.3566
15699TIP3    H268513   3.045   0.489   4.141  1.3967  3.5739 -0.8723
15700TIP3   OH268514   1.349   5.834  12.763 -0.6046 -0.7679 -0.0316
15700TIP3    H168515   1.404   5.879  12.827 -3.9435  0.6369  2.1682
15700TIP3    H268516   1.344   5.895  12.689  0.9794 -1.0808 -0.4218
15701TIP3   OH268517   3.307   0.622   4.644 -0.6397  0.1832 -0.2536
15701TIP3    H168518   3.369   0.675   4.593 -0.8970  0.4736 -0.2643
15701TIP3    H268519   3.334   0.634   4.735  0.3645 -1.0241 -0.3666
15702TIP3   OH268520   5.320   4.256  16.224  0.3594  0.1090 -0.1694
15702TIP3    H168521   5.287   4.333  16.270  1.2858  1.3395 -1.4671
15702TIP3    H268522   5.348   4.289  16.139  3.7104 -1.0695  0.3371
15703TIP3   OH268523   2.610   5.579  13.829  0.0523  0.5785  0.5314
15703TIP3    H168524   2.686   5.624  13.864  0.4256 -0.2526  0.8256
15703TIP3    H268525   2.589   5.625  13.748 -0.9742  2.6927  1.9300
15704TIP3   OH268526   5.052   6.401  15.172  0.1636  0.4777  0.1500
15704TIP3    H168527   5.107   6.477  15.190  1.4780 -0.6230  0.9674
15704TIP3    H268528   5.080   6.371  15.085  0.1666  0.4853  0.1482
15705TIP3   OH268529   3.028   5.706   2.364 -0.1061  0.1324  0.4106
15705TIP3    H168530   3.094   5.678   2.428 -1.0367 -0.0765  1.3038
15705TIP3    H268531   3.074   5.705   2.280  0.4717 -2.0513  0.6937
15706TIP3   OH268532   6.190   1.070   3.468  0.3569 -0.1816 -0.1863
15706TIP3    H168533   6.251   1.132   3.509 -0.1602 -0.5107  1.1639
15706TIP3    H268534   6.245   1.014   3.414  0.8794  1.2415 -1.1942
15707TIP3   OH268535   4.869   4.125  16.530  0.6341  0.1654 -0.1195
15707TIP3    H168536   4.910   4.129  16.616  0.5524  0.9818 -0.1068
15707TIP3    H268537   4.942   4.114  16.469  0.8686  1.3591 -0.0770
15708TIP3   OH268538   5.210   3.904  12.490 -0.0005 -0.1828 -0.4145
15708TIP3    H168539   5.155   3.837  12.528 -0.8717  2.1154  2.7948
15708TIP3    H268540   5.293   3.897  12.538  0.1208  0.6119 -0.4936
15709TIP3   OH268541   0.001   5.393  16.612 -0.0422 -0.2749  0.0347
15709TIP3    H168542  -0.047   5.450  16.552 -1.0939  0.2711  1.3369
15709TIP3    H268543  -0.037   5.412  16.698 -0.4847 -2.9873  0.5315
15710TIP3   OH268544   4.164   0.954   4.040 -0.7886  0.6249 -0.1036
15710TIP3    H168545   4.144   0.862   4.021  0.4990 -0.0618  1.6591
15710TIP3    H268546   4.256   0.964   4.016 -0.2170  0.7501  1.9591
15711TIP3   OH268547   4.092   6.505   4.865 -0.5906 -0.0713  0.4256
15711TIP3    H168548   4.071   6.540   4.951 -3.1263 -2.0809  0.7730
15711TIP3    H268549   4.011   6.516   4.815  1.0209  1.7144 -2.0420
15712TIP3   OH268550   0.235   1.143   3.550  0.1790  0.3321  0.3871
15712TIP3    H168551   0.320   1.102   3.536 -1.1286 -2.5048 -0.0558
15712TIP3    H268552   0.212   1.179   3.464 -0.4056 -1.8252 -0.4317
15713TIP3   OH268553   2.619   4.061   0.581  0.4212 -0.9284  0.4726
15713TIP3    H168554   2.699   4.085   0.627  0.0493 -1.4474  1.4220
15713TIP3    H268555   2.630   3.968   0.561  1.1885 -0.4080 -1.7978
15714TIP3   OH268556   6.579   0.130  11.465  0.1899  0.5139  0.1073
15714TIP3    H168557   6.640   0.061  11.437  0.3137  0.1233  1.2907
15714TIP3    H268558   6.623   0.174  11.537 -0.6481  0.6382  0.5648
15715TIP3   OH268559   4.599   1.253   6.567 -0.6543 -0.1912 -0.2625
15715TIP3    H168560   4.589   1.276   6.475  2.7215  1.1929 -0.4172
15715TIP3    H268561   4.547   1.319   6.614 -0.3729  0.6813 -1.1340
15716TIP3   OH268562   5.398   2.859  10.941  0.1638  0.0844 -0.2531
15716TIP3    H168563   5.406   2.778  10.890  2.4537  0.2680 -0.2997
15716TIP3    H268564   5.438   2.926  10.886 -0.1616  0.9005  0.4863
15717TIP3   OH268565   6.650   2.253  15.404 -0.2767 -0.1058 -0.1358
15717TIP3    H168566   6.682   2.188  15.467 -0.9411  0.7510  1.1172
15717TIP3    H268567   6.695   2.334  15.428  0.6105 -0.0759 -1.7391
15718TIP3   OH268568   1.396   0.427  13.343 -0.0113  0.8693  0.5179
15718TIP3    H168569   1.353   0.394  13.422 -1.0315  1.5102  0.2449
15718TIP3    H268570   1.365   0.517  13.334  0.9321  1.1550 -0.0256
15719TIP3   OH268571   1.585   0.655  10.823 -0.0583 -0.3397 -0.6197
15719TIP3    H168572   1.620   0.590  10.764  1.9441  1.2380 -1.2920
15719TIP3    H268573   1.517   0.700  10.773 -0.6295 -1.1030 -0.5500
15720TIP3   OH268574   1.808   1.288  17.043  0.0048  0.0584  0.3245
15720TIP3    H168575   1.714   1.299  17.059  0.4803  1.0670  2.7293
15720TIP3    H268576   1.820   1.320  16.953 -1.9598 -0.3543 -0.1464
15721TIP3   OH268577   0.685   1.442  16.294 -0.8781  0.0103  0.3602
15721TIP3    H168578   0.620   1.397  16.240 -0.7125  1.3169 -1.0078
15721TIP3    H268579   0.674   1.535  16.272  1.4490  0.2664  0.0490
15722TIP3   OH268580   6.744   5.183  15.279 -0.4076 -0.4667 -0.1377
15722TIP3    H168581   6.654   5.155  15.294 -0.8210 -0.4184 -2.1959
15722TIP3    H268582   6.736   5.254  15.214  1.1318 -0.9081 -0.8611
15723TIP3   OH268583   1.886   1.411   4.735  0.0745  0.0592  0.0919
15723TIP3    H168584   1.912   1.386   4.647  3.2470  1.3672  0.5124
15723TIP3    H268585   1.812   1.471   4.723  1.1925  1.1599 -1.8297
15724TIP3   OH268586   4.392   6.777  16.823  0.5372 -0.2866 -0.6126
15724TIP3    H168587   4.463   6.805  16.880  0.3184 -0.1577 -0.3965
15724TIP3    H268588   4.348   6.707  16.873 -1.9632  2.2724  1.1208
15725TIP3   OH268589   2.093   2.154   3.949 -0.3558 -0.1084 -0.4506
15725TIP3    H168590   2.130   2.081   3.999  1.1556 -1.0757 -2.7646
15725TIP3    H268591   2.048   2.111   3.876  0.1689  1.2272 -1.6040
15726TIP3   OH268592   0.541   5.146  14.557  0.1550  0.3136  0.4306
15726TIP3    H168593   0.567   5.061  14.522  0.9744  0.8889 -0.3995
15726TIP3    H268594   0.455   5.163  14.517 -0.4945 -0.5631  1.3987
15727TIP3   OH268595   4.410   6.463  11.721 -0.1314 -0.2946  0.4423
15727TIP3    H168596   4.317   6.483  11.728  0.2844  1.7267  0.8395
15727TIP3    H268597   4.442   6.463  11.811 -0.0248 -2.6938  0.4557
15728TIP3   OH268598   5.991   0.058   5.750  0.0682  0.4411  0.1118
15728TIP3    H168599   6.055  -0.012   5.765  1.7691  2.1548  1.1416
15728TIP3    H268600   6.019   0.100   5.669 -1.7810 -0.8466 -1.3055
15729TIP3   OH268601   5.371   3.382  16.542 -0.2926 -0.3221 -0.4025
15729TIP3    H168602   5.290   3.425  16.519  1.1241  3.5989  1.1381
15729TIP3    H268603   5.435   3.415  16.479  1.1427  1.0443  1.6740
15730TIP3   OH268604   6.291   2.575  16.162 -0.5755 -0.0066 -0.2219
15730TIP3    H168605   6.296   2.503  16.100  2.5203  1.7630 -2.3417
15730TIP3    H268606   6.248   2.646  16.114 -0.9796  0.4608  0.7894
15731TIP3   OH268607   5.767   1.117   1.117 -0.0575 -0.0842 -0.7745
15731TIP3    H168608   5.796   1.038   1.163  0.4003 -0.7028 -2.0706
15731TIP3    H268609   5.770   1.186   1.184 -1.6727 -1.3614  0.7148
15732TIP3   OH268610   3.508   0.887   5.352 -0.4468 -0.2228 -0.1312
15732TIP3    H168611   3.596   0.898   5.315  0.3828  0.5977  1.9401
15732TIP3    H268612   3.458   0.961   5.316  0.0116 -0.0737 -0.4699
15733TIP3   OH268613   5.798   5.955   1.967  0.1389  0.7201 -0.0456
15733TIP3    H168614   5.880   5.911   1.944  1.9378  3.3049  1.0028
15733TIP3    H268615   5.764   5.988   1.884  0.7726  0.6242 -0.3454
15734TIP3   OH268616   5.255   1.084  16.426 -0.0449  0.5325 -0.5692
15734TIP3    H168617   5.238   0.992  16.406  0.5177  0.2957 -0.0198
15734TIP3    H268618   5.305   1.081  16.508 -0.7043  1.3643 -0.1228
15735TIP3   OH268619   2.745   3.321  11.365 -0.2013  0.0744  1.0932
15735TIP3    H168620   2.686   3.376  11.417 -0.6126  0.8621 -0.1527
15735TIP3    H268621   2.789   3.266  11.429 -0.2256  1.4405  2.3429
15736TIP3   OH268622   5.727   1.463  16.112  0.0678  0.2147  0.7415
15736TIP3    H168623   5.692   1.387  16.065  0.7447  0.3574 -0.0190
15736TIP3    H268624   5.669   1.535  16.088  2.1717  1.0308 -2.5457
15737TIP3   OH268625   1.536   1.338  17.008  0.0501 -0.1699 -0.2898
15737TIP3    H168626   1.463   1.400  17.015 -1.1145 -1.3415 -1.4475
15737TIP3    H268627   1.534   1.309  16.917  0.2203 -2.2608  0.3055
15738TIP3   OH268628   0.576   6.378  13.870 -0.1920  0.0853  0.3866
15738TIP3    H168629   0.594   6.470  13.887  1.1579 -0.4163  1.8956
15738TIP3    H268630   0.596   6.366  13.777 -1.3768  1.4989 -0.0794
15739TIP3   OH268631   3.199   3.461   1.892 -0.3506  0.0779 -0.1907
15739TIP3    H168632   3.172   3.477   1.801  0.3327 -0.3115 -0.4687
15739TIP3    H268633   3.218   3.367   1.895  0.3297  0.2236  0.1675
15740TIP3   OH268634   3.136   0.380  14.955  0.1321 -0.7023 -0.3877
15740TIP3    H168635   3.206   0.360  14.893  0.1961  0.0989 -0.5883
15740TIP3    H268636   3.059   0.398  14.900  0.0658 -0.4605 -0.2193
15741TIP3   OH268637   3.759   5.728   3.573  0.2158 -0.0574 -0.1962
15741TIP3    H168638   3.667   5.749   3.586  0.8461  2.8496  0.1708
15741TIP3    H268639   3.793   5.714   3.661  0.3882  0.0726 -0.2418
15742TIP3   OH268640   1.545   1.493  12.238  0.4874 -0.1671 -0.0585
15742TIP3    H168641   1.614   1.513  12.301 -0.1272  1.8855  0.0654
15742TIP3    H268642   1.566   1.547  12.161 -1.9893  2.1748  0.7582
15743TIP3   OH268643   2.796   6.443  16.594  0.1455  0.1633  0.3360
15743TIP3    H168644   2.788   6.489  16.678  1.4282  1.7019 -0.3170
15743TIP3    H268645   2.723   6.476  16.541 -0.1215 -0.1014  0.5393
15744TIP3   OH268646   4.463   1.253  11.480  0.1183  0.3313 -0.1815
15744TIP3    H168647   4.412   1.180  11.443 -0.4455  1.5390 -1.9121
15744TIP3    H268648   4.397   1.309  11.521  0.3712  0.6046 -0.1482
15745TIP3   OH268649   5.128   4.212  13.734 -0.0822 -0.3887 -0.2466
15745TIP3    H168650   5.188   4.257  13.792  0.6889 -1.5833 -0.0917
15745TIP3    H268651   5.087   4.145  13.788 -0.9835 -0.1066 -0.5483
15746TIP3   OH268652   4.679   6.098  11.491 -0.0348 -0.0669 -0.6664
15746TIP3    H168653   4.665   6.150  11.570 -1.5113 -1.9206  0.3726
15746TIP3    H268654   4.756   6.138  11.450  0.0568  1.6970  1.0504
15747TIP3   OH268655   2.149   0.318   0.020 -0.1242  0.3509  0.3489
15747TIP3    H168656   2.221   0.278  -0.029  1.0855  0.9588  1.5539
15747TIP3    H268657   2.159   0.285   0.109 -2.0716 -0.4602  0.3091
15748TIP3   OH268658   3.824   1.323  15.999  0.2286 -0.0888 -0.7547
15748TIP3    H168659   3.766   1.353  16.069 -0.9987 -1.0988 -1.2860
15748TIP3    H268660   3.766   1.311  15.923  1.4500  0.5838 -1.8430
15749TIP3   OH268661   3.739   5.203  17.042  0.1314 -0.4432  0.4674
15749TIP3    H168662   3.805   5.147  17.082  0.5855  0.8597  1.6300
15749TIP3    H268663   3.788   5.260  16.982  0.0370  0.2899  1.0697
15750TIP3   OH268664   0.773   0.472   5.369 -0.0810  0.2294  0.0758
15750TIP3    H168665   0.780   0.376   5.376 -0.2936  0.1435 -0.7670
15750TIP3    H268666   0.768   0.488   5.275  0.3031  1.1000  0.1986
15751TIP3   OH268667   0.505   3.284   0.044  0.0712  0.1105  0.9347
15751TIP3    H168668   0.417   3.265   0.012 -0.3202  1.1321  1.3527
15751TIP3    H268669   0.524   3.372   0.012  2.2743 -1.2470 -1.9262
15752TIP3   OH268670   1.781   0.196   2.843 -0.0825  0.7412 -0.9437
15752TIP3    H168671   1.820   0.272   2.885  1.9480 -0.1820 -1.0230
15752TIP3    H268672   1.699   0.181   2.891 -0.2436  2.6119 -0.5841
15753TIP3   OH268673   6.262   0.798  11.205 -0.5332  0.5370 -0.0435
15753TIP3    H168674   6.328   0.743  11.162 -0.0478 -0.0970  1.4531
15753TIP3    H268675   6.249   0.871  11.144 -1.4425 -1.3526 -2.2361
15754TIP3   OH268676   1.820   5.900  11.856  0.1515 -0.4268 -0.1099
15754TIP3    H168677   1.762   5.904  11.780 -1.2296  0.4715  0.9293
15754TIP3    H268678   1.825   5.991  11.887  0.1096 -0.8713  1.2702
15755TIP3   OH268679   4.465   0.782  12.982 -0.2401 -0.3780  0.6680
15755TIP3    H168680   4.449   0.876  12.970 -1.9221 -0.7169 -0.0492
15755TIP3    H268681   4.539   0.778  13.042 -1.1023  1.4243  1.9574
15756TIP3   OH268682   0.136   6.655   3.253  0.2992 -0.4287 -0.2349
15756TIP3    H168683   0.201   6.629   3.187  0.7441  0.5478 -0.1972
15756TIP3    H268684   0.172   6.625   3.336  1.0301  0.6885 -0.1389
15757TIP3   OH268685   5.804   5.680  16.365  0.1779 -0.1992  0.2535
15757TIP3    H168686   5.724   5.653  16.410  0.1406  1.1269  1.0564
15757TIP3    H268687   5.799   5.639  16.279  0.3650 -3.0392  1.4741
15758TIP3   OH268688   4.615   6.818   2.798  0.0202  0.3470  0.4155
15758TIP3    H168689   4.596   6.725   2.811  2.6575  0.0628  3.6346
15758TIP3    H268690   4.674   6.820   2.723 -1.9916 -0.1684 -1.2880
15759TIP3   OH268691   5.740   1.407  13.238  0.0148 -0.5277 -0.3375
15759TIP3    H168692   5.707   1.393  13.327 -0.1092  2.2309  0.1326
15759TIP3    H268693   5.827   1.367  13.238  0.0069 -0.5852  1.0135
15760TIP3   OH268694   2.781   6.651  13.652 -0.6015 -0.5383 -0.1366
15760TIP3    H168695   2.708   6.611  13.698 -0.6975 -1.1968 -0.8379
15760TIP3    H268696   2.842   6.579  13.636 -1.1102 -0.5999 -2.0630
15761TIP3   OH268697   0.273   1.207  13.638  0.3258 -0.6715  0.1646
15761TIP3    H168698   0.228   1.189  13.721  1.7399 -1.9416  0.6943
15761TIP3    H268699   0.218   1.167  13.571 -1.5615  1.5321  0.2582
15762TIP3   OH268700   0.604   6.375  12.816  0.2526 -0.1767  0.1402
15762TIP3    H168701   0.576   6.404  12.902 -0.8783  1.5567 -0.7647
15762TIP3    H268702   0.679   6.317  12.833  1.5892  1.9637  2.1466
15763TIP3   OH268703   2.533   1.735   6.744 -0.0465 -0.1350  0.6817
15763TIP3    H168704   2.474   1.684   6.689  0.4961  1.5771 -1.6549
15763TIP3    H268705   2.478   1.766   6.816 -1.5363 -0.2139 -0.3696
15764TIP3   OH268706   3.407   6.104  11.743  0.4862 -0.3834  0.5050
15764TIP3    H168707   3.334   6.127  11.686  1.3650  1.7719  0.1708
15764TIP3    H268708   3.453   6.033  11.697  0.0453 -0.0402 -0.4811
15765TIP3   OH268709   5.423   3.588  14.005 -0.2577  0.3574  0.0177
15765TIP3    H168710   5.505   3.615  13.962 -0.1314  0.5854  0.3942
15765TIP3    H268711   5.451   3.537  14.081 -0.4591  0.5677  0.2367
15766TIP3   OH268712   6.530   6.390  13.789  0.1561  0.0830 -0.6867
15766TIP3    H168713   6.625   6.400  13.797  0.2530 -0.2865 -1.2910
15766TIP3    H268714   6.503   6.466  13.738 -0.0113  0.7052  0.3158
15767TIP3   OH268715   2.780   4.337   4.551 -0.2329 -0.0970 -0.2911
15767TIP3    H168716   2.699   4.363   4.506 -0.5917 -1.1448 -0.2684
15767TIP3    H268717   2.848   4.385   4.504 -0.9087  1.3175  0.1036
15768TIP3   OH268718   6.254   0.306  15.083 -0.0471 -0.8027  0.0593
15768TIP3    H168719   6.193   0.377  15.059  2.0297  0.4011 -2.1371
15768TIP3    H268720   6.236   0.289  15.175 -2.7999  0.3631 -0.1642
15769TIP3   OH268721   6.056   0.740   4.936 -0.2245  0.2330 -0.3866
15769TIP3    H168722   6.130   0.800   4.945 -0.5985  0.7961 -0.9551
15769TIP3    H268723   6.093   0.653   4.952 -0.1774  0.7570  3.1651
15770TIP3   OH268724   5.246   5.435  11.810  0.2044 -0.0210 -0.4192
15770TIP3    H168725   5.305   5.441  11.885 -0.6259  1.2403  0.1725
15770TIP3    H268726   5.193   5.357  11.827 -2.5829  2.2080  2.3926
15771TIP3   OH268727   5.258   5.124   5.094  0.1586 -0.2191  0.0579
15771TIP3    H168728   5.260   5.031   5.071  0.0081 -0.7184  1.9006
15771TIP3    H268729   5.177   5.134   5.144  0.7536  0.6497  0.8687
15772TIP3   OH268730   0.469   0.056   1.045  0.0489 -0.3504  0.6288
15772TIP3    H168731   0.543   0.080   1.101  0.0105  0.1066  0.4878
15772TIP3    H268732   0.393   0.063   1.102 -0.2233  1.9423  0.0806
15773TIP3   OH268733   1.843   5.199  13.508 -0.0311 -0.3324  0.3033
15773TIP3    H168734   1.856   5.205  13.413  1.4025  1.0739  0.5485
15773TIP3    H268735   1.831   5.290  13.537  3.4411 -0.2173  1.9045
15774TIP3   OH268736   6.005   3.365  14.375  0.2368 -0.2120  0.4661
15774TIP3    H168737   5.926   3.347  14.425 -0.0907 -1.0653 -0.3169
15774TIP3    H268738   6.053   3.429  14.427 -1.3332  0.9262  0.5871
15775TIP3   OH268739   0.781   4.814   0.147 -0.3254  0.0038  0.4680
15775TIP3    H168740   0.700   4.771   0.175 -0.4092 -0.7297 -0.7987
15775TIP3    H268741   0.756   4.904   0.128 -1.4729 -0.8078 -2.3389
15776TIP3   OH268742   4.334   4.474  14.920 -0.1856  0.6757 -0.0308
15776TIP3    H168743   4.424   4.458  14.890 -0.6468  0.0671 -1.1491
15776TIP3    H268744   4.342   4.486  15.014  0.9455 -0.4307  0.0423
15777TIP3   OH268745   5.689   2.950   1.278  0.4109 -0.6109  0.0931
15777TIP3    H168746   5.747   2.937   1.202 -0.6841 -0.2276 -0.8284
15777TIP3    H268747   5.633   3.023   1.253  0.7995  0.2975  1.7695
15778TIP3   OH268748   4.441   6.213   3.484 -0.1862 -0.1367  0.2369
15778TIP3    H168749   4.355   6.214   3.526 -0.3911  0.3543 -0.1798
15778TIP3    H268750   4.496   6.264   3.543 -0.0388 -0.8955  0.7757
15779TIP3   OH268751   6.739   2.950  14.915  0.1289 -0.1730  0.0994
15779TIP3    H168752   6.731   2.921  14.824  0.5945 -0.0676  0.0232
15779TIP3    H268753   6.694   3.034  14.918 -0.2983 -0.4007  0.0750
15780TIP3   OH268754   5.519   0.791   3.407  0.0113 -0.0067 -0.3307
15780TIP3    H168755   5.508   0.789   3.502  1.0535 -2.4781 -0.2000
15780TIP3    H268756   5.584   0.860   3.392 -0.4352  0.6581  0.6871
15781TIP3   OH268757   0.208   6.009   1.675  0.1355  0.1875 -0.0586
15781TIP3    H168758   0.273   6.074   1.702  1.7378 -1.5474  0.4263
15781TIP3    H268759   0.228   5.991   1.583  0.3295 -0.3188  0.0800
15782TIP3   OH268760   1.733   1.520   3.857 -0.0381  0.0005 -0.3980
15782TIP3    H168761   1.723   1.432   3.822  0.0771  0.3588 -1.3702
15782TIP3    H268762   1.690   1.518   3.943  1.2002 -1.3773  0.2291
15783TIP3   OH268763   3.681   2.146   5.864 -0.0839  1.1369 -0.1988
15783TIP3    H168764   3.676   2.112   5.954 -0.6564 -0.2764 -0.7342
15783TIP3    H268765   3.763   2.113   5.830 -0.9913 -0.4483 -0.9731
15784TIP3   OH268766   3.172   2.562  15.915  0.1729  0.0331 -0.3071
15784TIP3    H168767   3.121   2.481  15.914  0.0229  0.0917  0.9036
15784TIP3    H268768   3.135   2.615  15.844 -0.9364 -0.2436  0.0388
15785TIP3   OH268769   5.852   0.737   0.803 -0.0764 -0.3252  0.1553
15785TIP3    H168770   5.856   0.829   0.831  0.0584 -0.5234  0.8108
15785TIP3    H268771   5.800   0.693   0.871  1.4665 -1.0935  0.8982
15786TIP3   OH268772   5.595   0.569   1.864 -0.4694 -0.2608 -0.1570
15786TIP3    H168773   5.658   0.610   1.923  0.0140 -1.7567  0.4024
15786TIP3    H268774   5.635   0.577   1.777 -0.0247 -0.2538  0.0480
15787TIP3   OH268775   2.447   3.636  11.657  0.4304 -0.2366  0.4404
15787TIP3    H168776   2.474   3.727  11.651  0.2758 -0.1279  1.2474
15787TIP3    H268777   2.356   3.640  11.686 -0.7348 -0.5706 -2.7527
15788TIP3   OH268778   6.344   4.975   5.761  0.7123  0.5653 -0.5059
15788TIP3    H168779   6.297   4.976   5.678  1.4139  0.8568 -0.9038
15788TIP3    H268780   6.287   4.925   5.820  0.3035  0.1827 -1.2141
15789TIP3   OH268781   0.336   2.330   0.643  0.3724 -0.0701  1.0000
15789TIP3    H168782   0.432   2.327   0.647  0.4441 -0.1886 -0.2860
15789TIP3    H268783   0.313   2.415   0.681  1.2466  1.4680 -1.5795
15790TIP3   OH268784   1.816   1.769  11.623 -0.3851  0.7557  0.1167
15790TIP3    H168785   1.738   1.770  11.678 -0.5207  0.2832 -0.0627
15790TIP3    H268786   1.887   1.746  11.683 -0.8412 -1.9930 -0.2554
15791TIP3   OH268787   5.757   3.429   0.754  0.8711  0.1029 -0.1572
15791TIP3    H168788   5.780   3.427   0.847  0.6631  1.6901 -0.0390
15791TIP3    H268789   5.814   3.496   0.717 -0.2556  0.7354 -0.8100
15792TIP3   OH268790   6.177   0.951  13.954 -0.0037  0.4514  0.3901
15792TIP3    H168791   6.257   0.938  14.004  0.3431  3.4401  0.8118
15792TIP3    H268792   6.114   0.891  13.993  1.5397 -0.7213  1.1803
15793TIP3   OH268793   2.853   6.064  14.658 -0.7187 -0.7182  0.3094
15793TIP3    H168794   2.909   6.141  14.662 -0.1858 -1.0430 -0.5478
15793TIP3    H268795   2.783   6.081  14.721 -1.2480  0.9863 -0.6752
15794TIP3   OH268796   0.928   2.187   1.154  0.3069 -0.1294 -0.0397
15794TIP3    H168797   0.845   2.235   1.154 -0.0912 -0.8042  0.0764
15794TIP3    H268798   0.982   2.232   1.090 -0.8509 -0.8713 -1.5988
15795TIP3   OH268799   1.988   0.801  16.360 -0.5096  0.1833  0.4505
15795TIP3    H168800   1.971   0.879  16.411 -0.1721 -0.6816  1.9506
15795TIP3    H268801   1.965   0.728  16.418 -1.3765 -0.8420 -1.1015
15796TIP3   OH268802   1.798   3.812   5.245  0.3067  0.0802  0.4671
15796TIP3    H168803   1.779   3.861   5.165 -1.0652  0.3489  0.9447
15796TIP3    H268804   1.854   3.870   5.296 -0.0831  0.5390  0.3780
15797TIP3   OH268805   5.286   3.427   5.388 -0.4098  0.3373 -0.0007
15797TIP3    H168806   5.278   3.508   5.337  0.5541 -0.8796 -2.2727
15797TIP3    H268807   5.220   3.435   5.457 -1.3944  2.3762 -1.0785
15798TIP3   OH268808   6.606   1.761  12.072  0.0972 -0.1370  0.1291
15798TIP3    H168809   6.610   1.675  12.113  2.1042  0.4286  1.2406
15798TIP3    H268810   6.575   1.819  12.142 -2.3013 -0.0676 -0.9096
15799TIP3   OH268811   2.666   4.640  11.129  0.2022  0.0300 -0.0827
15799TIP3    H168812   2.571   4.646  11.145  0.3833 -1.7276  2.0157
15799TIP3    H268813   2.675   4.665  11.037 -2.2577  0.6041 -0.2582
15800TIP3   OH268814   4.757   0.519   5.126  0.1114 -0.6332  0.1649
15800TIP3    H168815   4.681   0.575   5.144  0.1558 -0.7251  0.6379
15800TIP3    H268816   4.807   0.567   5.060  0.0860 -0.1735  0.4768
15801TIP3   OH268817   6.199   0.358   6.160 -0.3870  0.2459  0.2572
15801TIP3    H168818   6.251   0.278   6.163  0.2503  0.5999 -0.7533
15801TIP3    H268819   6.113   0.329   6.131  0.2399  0.0725 -1.5858
15802TIP3   OH268820   2.298   1.153   4.859 -0.4010  0.1536 -0.3768
15802TIP3    H168821   2.357   1.087   4.822  0.8528  1.0714 -0.0671
15802TIP3    H268822   2.305   1.140   4.954 -1.4411 -0.3457 -0.3546
15803TIP3   OH268823   6.137   5.208   4.228 -0.1997  0.0421 -0.8934
15803TIP3    H168824   6.113   5.292   4.190  1.6254  0.8047 -0.4746
15803TIP3    H268825   6.227   5.193   4.199  1.0834  0.3613  2.4744
15804TIP3   OH268826   0.256   2.996   0.521 -0.4647 -0.1310 -0.4694
15804TIP3    H168827   0.294   2.912   0.495 -1.2065 -0.3888 -0.7600
15804TIP3    H268828   0.161   2.983   0.512 -0.6267  0.4916  0.2278
15805TIP3   OH268829   1.496   5.831  11.622 -0.1588  0.1622  0.3626
15805TIP3    H168830   1.449   5.784  11.691 -0.0077  0.5444  0.7261
15805TIP3    H268831   1.501   5.768  11.550 -1.9579  0.3730 -0.0046
15806TIP3   OH268832   1.629   5.390  15.719  0.5305 -0.7780 -0.2986
15806TIP3    H168833   1.552   5.447  15.714 -0.4968 -2.1401 -0.5813
15806TIP3    H268834   1.698   5.440  15.675 -0.7057 -0.3238 -1.8080
15807TIP3   OH268835   5.711   3.848  12.393  0.6702  0.0130  0.5161
15807TIP3    H168836   5.678   3.770  12.439  0.9942 -1.3137 -1.4051
15807TIP3    H268837   5.632   3.899  12.373  0.1085 -1.3655 -0.9066
15808TIP3   OH268838   3.689   1.442  14.873 -0.0309  0.0657 -0.0100
15808TIP3    H168839   3.705   1.403  14.787  3.9202  1.7400 -0.2422
15808TIP3    H268840   3.625   1.511  14.856 -1.3407 -1.3137 -1.0024
15809TIP3   OH268841   4.104   5.506   2.798 -0.0901  0.1778 -0.2134
15809TIP3    H168842   4.037   5.506   2.867 -0.7289 -1.1662 -0.7879
15809TIP3    H268843   4.187   5.500   2.845 -0.3033  2.3039  0.5307
15810TIP3   OH268844   4.940   3.060   3.733  0.1975 -0.1465  0.6029
15810TIP3    H168845   4.921   3.120   3.805  0.7834 -0.0920  0.7201
15810TIP3    H268846   5.012   3.102   3.685  0.0802 -0.3748  0.2217
15811TIP3   OH268847   0.492   2.360   1.503 -0.2854 -1.3509 -0.1656
15811TIP3    H168848   0.423   2.317   1.554 -1.8513 -0.4140 -1.3957
15811TIP3    H268849   0.499   2.448   1.541  0.4297 -1.5079  0.0958
15812TIP3   OH268850   4.313   3.996  16.562  0.2305  0.6941  0.5496
15812TIP3    H168851   4.398   3.968  16.595 -0.3755 -0.9944  0.7993
15812TIP3    H268852   4.288   4.070  16.617  1.2944  0.8824  0.7929
15813TIP3   OH268853   0.987   4.527  16.746 -0.1721 -0.5985 -0.0385
15813TIP3    H168854   0.999   4.531  16.841  1.6217 -0.9013 -0.2103
15813TIP3    H268855   1.059   4.579  16.710  0.5383 -2.3188 -1.2661
15814TIP3   OH268856   4.856   0.093   0.556  0.0261 -0.0450 -0.6449
15814TIP3    H168857   4.767   0.073   0.585 -0.4763  1.6069 -0.9296
15814TIP3    H268858   4.866   0.045   0.474 -0.3838 -0.6774 -0.3333
15815TIP3   OH268859   1.012   5.755  16.066  0.2028  0.0468 -0.3651
15815TIP3    H168860   1.020   5.813  15.990 -1.6014  0.5728 -0.2099
15815TIP3    H268861   0.925   5.716  16.056 -0.1286  0.2454  1.5207
15816TIP3   OH268862   4.092   1.743  16.857 -0.5524  0.5097 -0.1802
15816TIP3    H168863   4.116   1.832  16.881 -1.5420  0.5366  0.7989
15816TIP3    H268864   4.176   1.697  16.847 -0.0348  1.5520 -0.7923
15817TIP3   OH268865   4.646   5.688  12.498  0.2864  0.0539  0.0955
15817TIP3    H168866   4.673   5.618  12.438 -0.4197  0.6515 -0.9567
15817TIP3    H268867   4.726   5.713  12.544  1.0237  0.1226 -1.1823
15818TIP3   OH268868   1.423   1.332  13.096 -0.2322  0.2127  0.4411
15818TIP3    H168869   1.492   1.287  13.144  0.0905 -0.2887 -0.4720
15818TIP3    H268870   1.375   1.262  13.051 -1.5038  0.5265  1.2677
15819TIP3   OH268871   2.863   1.843   4.644  0.0927 -0.0458  0.5265
15819TIP3    H168872   2.947   1.889   4.655  0.7698 -1.3309  0.9068
15819TIP3    H268873   2.838   1.861   4.553  0.7266  0.4203  0.4306
15820TIP3   OH268874   2.197   4.543  16.658  0.1153  0.2231  0.0636
15820TIP3    H168875   2.228   4.453  16.667 -0.9752 -0.2957 -1.0457
15820TIP3    H268876   2.255   4.582  16.593 -1.2442 -0.6529 -1.7831
15821TIP3   OH268877   6.372   1.444  12.541 -0.2162  0.2540  0.2354
15821TIP3    H168878   6.444   1.383  12.555 -1.4497 -0.8337  2.3195
15821TIP3    H268879   6.397   1.522  12.591  0.6845  0.9604 -1.2389
15822TIP3   OH268880   4.799   3.574   2.726  0.0911 -0.0388  0.3330
15822TIP3    H168881   4.816   3.577   2.820 -1.3144  0.1231  0.6021
15822TIP3    H268882   4.710   3.540   2.719 -0.6442  1.9397 -0.8210
15823TIP3   OH268883   4.391   2.192  11.012  0.1739 -0.3437 -0.1642
15823TIP3    H168884   4.331   2.250  10.966  0.5364 -0.1793 -0.4363
15823TIP3    H268885   4.424   2.132  10.944  1.2199  0.3227 -0.2684
15824TIP3   OH268886   4.051   1.594  11.125 -0.2615  0.4396 -0.6198
15824TIP3    H168887   4.087   1.540  11.055  0.1531  0.3884 -0.3705
15824TIP3    H268888   4.059   1.684  11.093  0.2614  0.4410 -0.4877
15825TIP3   OH268889   1.662   2.422  16.412  0.3906  0.1372 -0.1065
15825TIP3    H168890   1.616   2.505  16.399 -0.4679 -0.3763 -0.5137
15825TIP3    H268891   1.709   2.407  16.330 -1.5740 -1.0161 -1.1225
15826TIP3   OH268892   2.301   4.328  12.883  0.3119 -1.1420  0.4112
15826TIP3    H168893   2.316   4.339  12.977  0.7289 -1.5068  0.3913
15826TIP3    H268894   2.367   4.264  12.855  1.1472  0.0498 -0.4137
15827TIP3   OH268895   1.311   3.639  15.197 -0.1183 -0.1029  1.1456
15827TIP3    H168896   1.220   3.659  15.177  0.1891 -0.5259 -0.8337
15827TIP3    H268897   1.309   3.552  15.237 -0.5571 -0.2490  0.8104
15828TIP3   OH268898   6.447   0.306  12.322  0.3839 -0.4543  0.2484
15828TIP3    H168899   6.454   0.387  12.271  0.1013 -1.0442 -0.7361
15828TIP3    H268900   6.538   0.276  12.331  0.5038  0.0430  0.7442
15829TIP3   OH268901   3.673   5.399   5.630 -0.1294  0.2155 -0.0993
15829TIP3    H168902   3.750   5.390   5.687 -0.0620  0.9501 -0.0648
15829TIP3    H268903   3.620   5.322   5.650  0.7296 -0.4511 -0.3306
15830TIP3   OH268904   3.315   3.915  14.829  0.1046  0.0696  0.1860
15830TIP3    H168905   3.242   3.889  14.774 -0.5423 -1.5290  1.6711
15830TIP3    H268906   3.274   3.945  14.911  1.0612  0.9755  0.3531
15831TIP3   OH268907   5.547   4.170   5.186 -0.5842 -0.3603  0.1151
15831TIP3    H168908   5.627   4.139   5.144 -0.2191  0.9562 -0.1998
15831TIP3    H268909   5.484   4.181   5.115 -0.5321  0.1662  0.1511
15832TIP3   OH268910   0.405   5.179   4.105  0.0156 -0.1166  0.1037
15832TIP3    H168911   0.339   5.233   4.062  0.3986 -0.1274 -0.5128
15832TIP3    H268912   0.379   5.089   4.087  0.3696 -0.1179 -0.4088
15833TIP3   OH268913   4.898   0.518   1.226 -0.1479 -0.1763  0.3366
15833TIP3    H168914   4.835   0.512   1.154  0.0758  0.3460  0.0962
15833TIP3    H268915   4.848   0.554   1.299  0.1348  1.3875 -0.1960
15834TIP3   OH268916   5.162   6.024   5.137 -0.3422  0.2705 -0.2895
15834TIP3    H168917   5.078   6.068   5.147 -0.0267  0.3896  2.9625
15834TIP3    H268918   5.219   6.068   5.200  2.2123  0.1690 -2.3640
15835TIP3   OH268919   0.814   3.133   4.523 -0.5777 -0.5359 -0.7166
15835TIP3    H168920   0.817   3.135   4.427  1.1260  1.1590 -0.6694
15835TIP3    H268921   0.893   3.086   4.549 -1.3227 -1.5046 -0.1124
15836TIP3   OH268922   5.974   0.234  16.730  0.4681 -0.4228 -0.0272
15836TIP3    H168923   5.894   0.189  16.757  0.4560 -0.9905 -0.9663
15836TIP3    H268924   5.954   0.327  16.741  0.1177 -0.5978  0.9167
15837TIP3   OH268925   5.229   4.676  15.193  0.1280 -0.0907  0.0763
15837TIP3    H168926   5.245   4.675  15.099 -0.2307  1.9904 -0.0715
15837TIP3    H268927   5.293   4.739  15.227  0.2753 -0.8413  1.2478
15838TIP3   OH268928   0.208   6.377  15.549 -0.3531  0.6338  0.1039
15838TIP3    H168929   0.175   6.368  15.459  0.8601 -0.6422 -0.2689
15838TIP3    H268930   0.228   6.287  15.575  2.1184  1.2194  0.5178
15839TIP3   OH268931   1.196   6.790   3.448  0.0195  0.0674  0.0621
15839TIP3    H168932   1.161   6.839   3.523  0.4038  0.1627  0.1870
15839TIP3    H268933   1.143   6.711   3.443 -0.2824  0.2624  0.1756
15840TIP3   OH268934   4.830   2.216   1.499  0.1928  0.4297 -0.2493
15840TIP3    H168935   4.911   2.169   1.515 -0.3728 -0.4620  0.0817
15840TIP3    H268936   4.778   2.157   1.444  0.0051  1.2433 -0.9651
15841TIP3   OH268937   6.162   5.664   4.576 -0.2228  0.1024 -0.3602
15841TIP3    H168938   6.193   5.734   4.633  1.1727 -0.2900 -0.6120
15841TIP3    H268939   6.125   5.599   4.636 -1.1181  0.8436 -0.0967
15842TIP3   OH268940   1.693   6.007   3.247 -0.3703  0.1086  0.3108
15842TIP3    H168941   1.713   6.100   3.257  0.1717  0.0516 -0.2118
15842TIP3    H268942   1.775   5.962   3.268 -0.8442 -0.2988  1.3474
15843TIP3   OH268943   1.719   6.511   4.136  0.2787 -0.1941 -0.0884
15843TIP3    H168944   1.709   6.580   4.202 -0.2875 -0.1105 -0.2578
15843TIP3    H268945   1.768   6.553   4.065  0.1795 -0.0454 -0.0703
15844TIP3   OH268946   0.445   3.746   2.948  0.0211  0.0792 -0.4334
15844TIP3    H168947   0.417   3.655   2.950 -0.0386  0.1030 -0.1469
15844TIP3    H268948   0.442   3.774   3.039  0.2233  0.3118 -0.4975
15845TIP3   OH268949   3.113   5.063   4.253  0.5579  0.2420 -0.2306
15845TIP3    H168950   3.203   5.035   4.269  0.5658  1.2916  1.9342
15845TIP3    H268951   3.074   5.069   4.340 -1.3903  0.5340 -1.0749
15846TIP3   OH268952   0.225   2.586  11.562 -0.3963  0.2725  0.0580
15846TIP3    H168953   0.194   2.639  11.635 -1.7408 -1.1437  0.5810
15846TIP3    H268954   0.227   2.646  11.487  1.5119  1.8859  1.3183
15847TIP3   OH268955   3.517   4.742  10.542 -0.4814  0.1475  0.0758
15847TIP3    H168956   3.551   4.831  10.532 -1.6132  0.6610  0.5561
15847TIP3    H268957   3.423   4.754  10.556 -0.4554 -1.0351  1.5262
15848TIP3   OH268958   2.814   1.240  14.964  0.3367  0.0182  0.3849
15848TIP3    H168959   2.898   1.274  14.995 -0.4362  1.9136  0.4924
15848TIP3    H268960   2.807   1.272  14.874 -1.2741  1.8619  1.1151
15849TIP3   OH268961   4.817   2.148  14.985  0.0502 -0.2115 -0.2058
15849TIP3    H168962   4.840   2.202  14.910 -1.3350  1.7438  0.7012
15849TIP3    H268963   4.874   2.179  15.055 -0.7091  0.0542  0.3068
15850TIP3   OH268964   3.390   3.901  12.069 -0.5927  1.0508 -0.1673
15850TIP3    H168965   3.476   3.939  12.086 -0.7084  1.2304  0.0117
15850TIP3    H268966   3.394   3.875  11.977  0.1882 -0.3354  0.2276
15851TIP3   OH268967   5.023   1.489   3.167 -0.3895  0.6398  0.1771
15851TIP3    H168968   4.994   1.503   3.257 -0.6314  1.0851  0.0296
15851TIP3    H268969   5.007   1.395   3.151 -1.5878  0.8343  0.1521
15852TIP3   OH268970   6.698   4.609   4.733 -0.4397 -0.1810 -0.0723
15852TIP3    H168971   6.717   4.570   4.819  0.9742  0.4879 -0.0460
15852TIP3    H268972   6.749   4.690   4.733 -1.6422  0.5882 -0.9577
15853TIP3   OH268973   6.234   6.731   0.635 -0.0163  0.5394  0.8400
15853TIP3    H168974   6.293   6.790   0.589 -3.9466  2.1472 -2.6569
15853TIP3    H268975   6.189   6.786   0.699  0.8041 -0.2830  2.1998
15854TIP3   OH268976   4.047   1.412   3.662 -0.0045  0.2381  0.0247
15854TIP3    H168977   4.026   1.325   3.697  0.1214 -0.4718 -1.5812
15854TIP3    H268978   4.015   1.473   3.729 -0.2279 -1.0318  1.1193
15855TIP3   OH268979   1.793   2.048   4.045  0.5142 -0.0415  0.0775
15855TIP3    H168980   1.815   2.089   4.129 -1.5136  0.9849  0.1571
15855TIP3    H268981   1.739   1.973   4.069  2.9320 -2.0034 -0.1640
15856TIP3   OH268982   4.620   1.255   2.039  0.0686  0.5373 -0.0031
15856TIP3    H168983   4.692   1.212   1.991  0.3978 -0.1798  1.0994
15856TIP3    H268984   4.611   1.203   2.119 -1.0172  1.2327  0.3324
15857TIP3   OH268985   6.598   4.342  11.362  0.7193  0.1780  0.0957
15857TIP3    H168986   6.666   4.318  11.425  1.0525 -1.1316 -0.7365
15857TIP3    H268987   6.552   4.415  11.404 -0.3867 -1.8959  2.8551
15858TIP3   OH268988   2.413   4.139   0.758 -0.7025  0.0757 -0.2657
15858TIP3    H168989   2.463   4.093   0.690 -0.0531  0.2504  0.0779
15858TIP3    H268990   2.443   4.100   0.840 -0.4123  0.8359  0.0065
15859TIP3   OH268991   1.058   3.986  14.253  0.5384  0.4411  0.6984
15859TIP3    H168992   1.115   4.045  14.303 -0.4665  1.0114  1.2087
15859TIP3    H268993   1.005   4.045  14.199 -0.4472  0.0091  1.1791
15860TIP3   OH268994   0.259   5.785  13.646 -0.0984  0.7915  0.0504
15860TIP3    H168995   0.199   5.786  13.571 -1.1402 -1.3402  0.7955
15860TIP3    H268996   0.340   5.746  13.612 -0.7560 -0.6888  0.1292
15861TIP3   OH268997   1.140   4.270  11.388 -0.1067  0.6707 -0.6093
15861TIP3    H168998   1.045   4.265  11.403  0.1057  2.1043  1.5474
15861TIP3    H268999   1.160   4.189  11.340 -2.0393 -0.9218  1.0621
15862TIP3   OH269000   1.567   5.458  10.658 -0.6287 -0.3849 -0.2546
15862TIP3    H169001   1.643   5.455  10.599 -0.2577  0.5789  0.1428
15862TIP3    H269002   1.604   5.484  10.742 -1.4362  0.3424 -0.1157
15863TIP3   OH269003   0.877   5.548  11.722  0.0054  0.1294  0.4022
15863TIP3    H169004   0.963   5.508  11.728  0.5297  1.2389  0.5061
15863TIP3    H269005   0.894   5.642  11.715 -1.1831  0.3451  0.1306
15864TIP3   OH269006   4.193   3.746   0.412  0.3783 -0.3899 -0.1879
15864TIP3    H169007   4.218   3.682   0.478 -2.2847 -1.2481  0.0987
15864TIP3    H269008   4.117   3.707   0.368 -0.3895  1.9114 -1.0482
15865TIP3   OH269009   2.348   6.087   5.811 -0.5019  0.2837  0.1619
15865TIP3    H169010   2.269   6.042   5.783 -0.6578  0.9707 -0.5048
15865TIP3    H269011   2.330   6.114   5.901 -0.7506 -0.1881  0.2537
15866TIP3   OH269012   2.682   1.319  14.229  0.2369  0.4312 -0.0919
15866TIP3    H169013   2.710   1.339  14.140  0.3097  2.0404  0.2598
15866TIP3    H269014   2.607   1.260  14.218  1.2235 -0.6718 -1.1461
15867TIP3   OH269015   6.692   1.722   1.046 -0.1141  0.3057  0.5929
15867TIP3    H169016   6.769   1.736   0.990 -0.6121  0.4791 -0.0560
15867TIP3    H269017   6.698   1.630   1.072 -0.5814 -0.1406 -0.8207
15868TIP3   OH269018   6.538   4.977  15.071 -0.3434 -0.5551 -0.7532
15868TIP3    H169019   6.582   4.919  15.133  0.9226  0.7133 -0.4223
15868TIP3    H269020   6.531   5.060  15.116 -1.3328 -0.1827 -1.5461
15869TIP3   OH269021   2.020   6.721   3.116 -0.5442  0.3435 -0.3566
15869TIP3    H169022   2.104   6.767   3.118 -0.4207  0.1223 -0.4027
15869TIP3    H269023   1.988   6.733   3.027  0.2713 -1.0440 -0.8637
15870TIP3   OH269024   4.462   3.810   0.610 -0.5889  0.3358 -0.0269
15870TIP3    H169025   4.431   3.734   0.560  0.5692  0.7454 -1.4563
15870TIP3    H269026   4.547   3.782   0.645 -0.1977  0.9241 -0.4873
15871TIP3   OH269027   4.215   0.258   3.492 -0.3240 -0.2339 -0.0528
15871TIP3    H169028   4.215   0.277   3.586  0.5575  0.9880 -0.2737
15871TIP3    H269029   4.306   0.238   3.472 -0.7306 -1.8937 -0.4208
15872TIP3   OH269030   5.295   0.342  13.207  0.0728 -0.7491 -0.4130
15872TIP3    H169031   5.335   0.282  13.144 -0.9561 -0.5119 -1.3200
15872TIP3    H269032   5.368   0.379  13.256  0.9402 -0.5608 -1.8158
15873TIP3   OH269033   5.450   2.771  12.843 -0.4166  0.6564 -0.0481
15873TIP3    H169034   5.519   2.712  12.813 -0.9103  0.3041 -0.5240
15873TIP3    H269035   5.400   2.791  12.764  0.2237  2.3914 -0.0535
15874TIP3   OH269036   6.568   3.602  11.587 -0.6202 -0.2970 -0.5946
15874TIP3    H169037   6.632   3.532  11.580  0.9960  1.1316 -0.9086
15874TIP3    H269038   6.618   3.682  11.570 -3.0334  0.7164 -3.9598
15875TIP3   OH269039   1.635   3.556  14.940  0.0370  1.2014 -0.4987
15875TIP3    H169040   1.662   3.635  14.894  0.4695  0.9053 -0.7602
15875TIP3    H269041   1.604   3.587  15.025  1.3630  1.5283 -0.1219
15876TIP3   OH269042   1.215   3.265  15.815 -0.1034  0.0418  0.2283
15876TIP3    H169043   1.199   3.286  15.907 -0.6987  0.4946  0.0264
15876TIP3    H269044   1.133   3.285  15.771 -0.2409 -1.3736 -0.2105
15877TIP3   OH269045   1.445   1.885  12.651 -0.6594 -0.2726 -0.2243
15877TIP3    H169046   1.413   1.892  12.741  0.3955  1.1434  0.0670
15877TIP3    H269047   1.436   1.792  12.630 -1.2062 -0.5761  1.2357
15878TIP3   OH269048   5.332   5.278   2.381 -0.2853  0.2342 -0.1105
15878TIP3    H169049   5.396   5.319   2.323  0.1809 -0.0809  0.1765
15878TIP3    H269050   5.248   5.317   2.356  0.4068  3.2517  1.8002
15879TIP3   OH269051   6.779   4.691   1.697  0.1269 -0.4854 -0.1609
15879TIP3    H169052   6.733   4.695   1.612  0.6196  0.7763 -0.3874
15879TIP3    H269053   6.717   4.730   1.759 -0.0610 -1.0135 -0.0113
15880TIP3   OH269054   0.827   5.001   5.366 -0.6471 -0.4527  0.8371
15880TIP3    H169055   0.755   5.060   5.388  2.0042  2.8154  1.6210
15880TIP3    H269056   0.843   5.016   5.273 -1.1689 -1.4145  0.5885
15881TIP3   OH269057   1.466   5.645  15.206 -0.1840 -0.2728 -0.4738
15881TIP3    H169058   1.478   5.551  15.221 -0.3409 -0.1187  0.7684
15881TIP3    H269059   1.535   5.686  15.259 -2.0700  0.3909  1.6357
15882TIP3   OH269060   1.439   1.514   3.295 -0.4159 -0.6153  0.2756
15882TIP3    H169061   1.387   1.587   3.264 -2.0846 -0.8656  2.2033
15882TIP3    H269062   1.444   1.527   3.390  0.8062 -2.0335  0.4477
15883TIP3   OH269063   0.138   1.208   4.080 -0.2085  0.4468 -0.3076
15883TIP3    H169064   0.128   1.127   4.031  0.2563 -0.6650  1.3649
15883TIP3    H269065   0.183   1.267   4.019  1.1020 -1.1442 -0.9680
15884TIP3   OH269066   5.898   6.743  12.173  0.1410  0.1328  0.3868
15884TIP3    H169067   5.940   6.818  12.133 -1.9112  1.0832 -0.1323
15884TIP3    H269068   5.953   6.721  12.248  0.6598  2.3153  0.7070
15885TIP3   OH269069   5.474   1.030   3.094  0.0964 -0.6077 -0.1748
15885TIP3    H169070   5.483   0.947   3.047 -0.5447 -0.3752 -0.7369
15885TIP3    H269071   5.563   1.053   3.121  0.2427 -1.6084  0.2195
15886TIP3   OH269072   3.241   4.179   5.810 -0.0375  0.3124 -0.6405
15886TIP3    H169073   3.293   4.151   5.735  0.4053  1.1419 -0.6554
15886TIP3    H269074   3.170   4.115   5.816  1.2912 -1.1691 -0.2638
15887TIP3   OH269075   1.796   2.713   2.133  0.1902 -0.0714 -0.1738
15887TIP3    H169076   1.794   2.682   2.223  0.4578 -0.7794 -0.4046
15887TIP3    H269077   1.869   2.776   2.131 -0.8632  1.2258  0.4868
15888TIP3   OH269078   2.809   5.838  12.292  0.0520 -0.3034 -0.6305
15888TIP3    H169079   2.776   5.795  12.213 -0.4208  0.8888 -1.0928
15888TIP3    H269080   2.901   5.857  12.272  1.0755 -3.3457  0.5442
15889TIP3   OH269081   6.381   0.581   1.233  0.0659 -0.2249 -0.6071
15889TIP3    H169082   6.375   0.495   1.192 -0.6602 -0.4925  0.0352
15889TIP3    H269083   6.291   0.602   1.259  0.2222  0.7524 -0.8098
15890TIP3   OH269084   5.730   0.002   5.822  0.1726 -0.1311  0.2306
15890TIP3    H169085   5.786   0.023   5.747  0.2334 -0.5634  0.1518
15890TIP3    H269086   5.792  -0.024   5.891  0.2498  2.0109  1.0445
15891TIP3   OH269087   3.497   3.434   1.462 -0.6544  0.2204 -0.2628
15891TIP3    H169088   3.486   3.343   1.434 -0.6965  0.8444 -2.4808
15891TIP3    H269089   3.585   3.458   1.434 -0.5579  0.8008  0.5060
15892TIP3   OH269090   5.856   4.325   0.152 -0.2942  0.4847 -0.1391
15892TIP3    H169091   5.786   4.381   0.184 -0.8784  0.4287 -1.2793
15892TIP3    H269092   5.861   4.343   0.059  1.9334  1.2616  0.0615
15893TIP3   OH269093   3.708   2.991   5.339 -0.3176  0.1952  0.6517
15893TIP3    H169094   3.730   3.073   5.294 -0.9249  0.1189  0.2077
15893TIP3    H269095   3.733   2.922   5.278 -0.5534  0.0704  0.6932
15894TIP3   OH269096   1.766   1.456  14.167 -0.4150 -0.0868 -0.4643
15894TIP3    H169097   1.721   1.534  14.199 -1.0129 -0.6458  0.1052
15894TIP3    H269098   1.790   1.476  14.077 -0.0649  0.9584 -0.1488
15895TIP3   OH269099   1.963   3.105   2.162  0.4839 -1.1316 -0.0721
15895TIP3    H169100   1.925   3.151   2.237  2.3403 -1.2816  1.0280
15895TIP3    H269101   2.055   3.131   2.162  0.7248 -1.7999 -1.8226
15896TIP3   OH269102   6.539   2.866   3.822 -0.2689  0.5799  0.2733
15896TIP3    H169103   6.496   2.921   3.887 -1.2231 -0.2544  0.3614
15896TIP3    H269104   6.472   2.804   3.795  1.1510 -1.4563  1.1976
15897TIP3   OH269105   3.829   3.529   0.727  0.1820 -1.0139 -0.2985
15897TIP3    H169106   3.843   3.476   0.648 -0.1137 -2.0325  0.3057
15897TIP3    H269107   3.734   3.532   0.736  0.2096 -0.6295 -0.1612
15898TIP3   OH269108   2.274   6.796   3.216  0.3784  0.3118 -0.0490
15898TIP3    H169109   2.276   6.883   3.255  1.3527  0.3692 -0.2042
15898TIP3    H269110   2.366   6.775   3.199  0.2806 -1.3092  1.2042
15899TIP3   OH269111   2.874   0.182  10.378  0.5638 -0.1257  0.3567
15899TIP3    H169112   2.966   0.203  10.395  0.8452 -1.4220  0.5650
15899TIP3    H269113   2.829   0.208  10.459  1.0184 -0.9909  0.9094
15900TIP3   OH269114   0.087   3.576   3.511 -0.7408 -0.0450 -0.4362
15900TIP3    H169115   0.012   3.632   3.491 -1.5960 -1.0012  0.0094
15900TIP3    H269116   0.099   3.522   3.433 -1.2186 -0.6383 -0.1130
15901TIP3   OH269117   5.321   5.190  16.812 -0.5057  0.1777  0.1019
15901TIP3    H169118   5.318   5.106  16.857  0.3568  0.7217  1.2547
15901TIP3    H269119   5.408   5.193  16.772 -0.1676  0.8888  0.8633
15902TIP3   OH269120   0.819   5.208   0.926  0.5440 -1.0856  0.2111
15902TIP3    H169121   0.811   5.114   0.939  1.0347 -1.3467 -1.2168
15902TIP3    H269122   0.798   5.221   0.833  0.3228  0.2334  0.4252
15903TIP3   OH269123   5.697   2.954   5.950 -0.0339 -0.2110 -0.0881
15903TIP3    H169124   5.642   2.996   5.884 -0.5529  1.0686  1.1042
15903TIP3    H269125   5.652   2.971   6.033  1.3749 -0.4685  0.7625
15904TIP3   OH269126   3.285   4.493  15.237  0.4981  0.7880  0.0752
15904TIP3    H169127   3.356   4.520  15.294  1.5672  1.3353 -1.4549
15904TIP3    H269128   3.325   4.483  15.151 -1.3991  1.8120 -0.9972
15905TIP3   OH269129   0.721   1.443  13.099  0.4096  0.0941  0.2945
15905TIP3    H169130   0.718   1.405  13.012 -2.3309  0.3029  0.2062
15905TIP3    H269131   0.677   1.379  13.155 -1.9747  1.8907  0.6116
15906TIP3   OH269132   1.391   1.501  16.088 -0.1291 -0.5275 -0.0119
15906TIP3    H169133   1.362   1.573  16.144  0.8794 -1.0061  1.1835
15906TIP3    H269134   1.421   1.543  16.007 -0.2513  0.3243  0.3744
15907TIP3   OH269135   6.622   1.376   1.327 -0.2749  0.1028 -0.0638
15907TIP3    H169136   6.534   1.414   1.323 -0.6647 -0.7306  0.3341
15907TIP3    H269137   6.609   1.290   1.367  0.2190 -1.4589 -2.9900
15908TIP3   OH269138   0.270   6.169   5.135  0.3632 -0.1224 -0.1325
15908TIP3    H169139   0.193   6.111   5.138  0.4733 -0.3349 -0.9801
15908TIP3    H269140   0.234   6.257   5.134  0.1787 -0.1782  0.7466
15909TIP3   OH269141   4.708   2.558   2.050 -0.3959  0.3925 -0.4062
15909TIP3    H169142   4.682   2.499   2.121  0.8430  0.1378 -0.1375
15909TIP3    H269143   4.718   2.643   2.091  2.2706 -0.1229  0.2334
15910TIP3   OH269144   0.943   4.159   2.316  0.8096  0.2380 -0.6257
15910TIP3    H169145   1.004   4.130   2.248  2.0381 -1.5443  1.1043
15910TIP3    H269146   0.987   4.135   2.398 -2.0969 -0.8980  0.7365
15911TIP3   OH269147   4.016   2.121   1.638 -0.0234 -0.4476 -0.3773
15911TIP3    H169148   4.055   2.141   1.723 -2.6681  0.5692  0.7103
15911TIP3    H269149   3.956   2.048   1.655  0.5129 -1.2404 -1.7282
15912TIP3   OH269150   1.416   0.465  11.573  0.0094 -0.3692  0.0482
15912TIP3    H169151   1.411   0.449  11.479 -0.3205  1.2446 -0.2406
15912TIP3    H269152   1.383   0.554  11.584  2.9414  0.6928  1.3119
15913TIP3   OH269153   1.574   5.114  16.628  0.0941 -0.1112  0.0767
15913TIP3    H169154   1.566   5.176  16.700 -0.9835 -0.4944  0.3078
15913TIP3    H269155   1.484   5.084  16.612 -0.0038  1.2141 -2.5235
15914TIP3   OH269156   5.616   1.987  10.572  0.0347  0.4648  0.1457
15914TIP3    H169157   5.698   2.011  10.529 -1.1649  2.7320 -1.1309
15914TIP3    H269158   5.586   1.910  10.525  1.1330 -0.0273  0.2265
15915TIP3   OH269159   4.378   3.757  16.112 -0.3725  0.4243  0.1192
15915TIP3    H169160   4.445   3.794  16.054 -0.7244  0.5053 -0.2441
15915TIP3    H269161   4.295   3.793  16.079 -0.4505  1.7912  1.7068
15916TIP3   OH269162   5.458   1.942   0.595  0.2081  0.3096 -0.1115
15916TIP3    H169163   5.526   1.874   0.598  0.1086  0.2240  2.0730
15916TIP3    H269164   5.418   1.933   0.509 -0.3310 -2.9575  0.3685
15917TIP3   OH269165   5.624   6.429  14.225  0.2142  0.0740 -0.0739
15917TIP3    H169166   5.571   6.473  14.157  0.7232  0.9142  0.0600
15917TIP3    H269167   5.644   6.498  14.288  2.5723  0.1070 -0.7679
15918TIP3   OH269168   3.559   0.764   6.620 -0.3098  0.6902 -1.1055
15918TIP3    H169169   3.536   0.841   6.673 -0.1457 -0.5181  0.8331
15918TIP3    H269170   3.632   0.794   6.566 -0.9932  2.2106 -1.2472
15919TIP3   OH269171   1.346   1.701  10.259  0.5591  0.9843 -0.8806
15919TIP3    H169172   1.291   1.643  10.208  0.4544  0.4582 -0.1841
15919TIP3    H269173   1.341   1.785  10.214 -3.2731  1.8512  0.7539
15920TIP3   OH269174   4.869   3.739  14.584 -0.1650  0.1235  1.2216
15920TIP3    H169175   4.801   3.741  14.518 -0.0499  0.4999  1.1122
15920TIP3    H269176   4.824   3.762  14.666 -0.4139 -0.8865  1.3763
15921TIP3   OH269177   5.219   1.616   1.727 -0.1330 -0.2599 -0.0753
15921TIP3    H169178   5.198   1.616   1.633 -0.0726 -0.9157 -0.0890
15921TIP3    H269179   5.144   1.660   1.767 -0.6710 -0.9254 -0.3224
15922TIP3   OH269180   5.735   4.940   2.273 -0.1360 -0.0998 -0.0294
15922TIP3    H169181   5.696   4.854   2.289 -0.3571  0.2811  1.7201
15922TIP3    H269182   5.830   4.923   2.271 -0.2546 -0.7206 -2.2173
15923TIP3   OH269183   4.256   2.425  14.685  0.1719  0.6268 -0.2456
15923TIP3    H169184   4.272   2.488  14.755  0.3625 -0.8690  1.0945
15923TIP3    H269185   4.304   2.347  14.711 -1.1259 -0.5431 -1.2048
15924TIP3   OH269186   4.681   1.208   1.488  0.3881  0.1922 -0.2819
15924TIP3    H169187   4.636   1.125   1.502  0.6656  0.0354 -0.2971
15924TIP3    H269188   4.771   1.190   1.516  0.1772  0.8342  0.8666
15925TIP3   OH269189   1.691   5.924  11.119  0.4477 -0.0844  0.0964
15925TIP3    H169190   1.738   5.974  11.052  0.7911  0.6608  0.8782
15925TIP3    H269191   1.752   5.920  11.193 -0.5257  0.5092  0.9584
15926TIP3   OH269192   2.636   2.676   3.157 -0.5488 -0.0790  0.0312
15926TIP3    H169193   2.708   2.733   3.185 -0.5698  0.2253 -0.5245
15926TIP3    H269194   2.611   2.709   3.071 -1.3305 -0.2135  0.1985
15927TIP3   OH269195   2.974   0.295  15.545 -0.2635 -0.4072 -0.2673
15927TIP3    H169196   2.936   0.298  15.457 -1.6680  0.6694  0.3491
15927TIP3    H269197   3.054   0.347  15.538 -0.3853 -0.2986 -0.8887
15928TIP3   OH269198   5.137   3.473  16.411 -0.4699 -0.1044  0.3462
15928TIP3    H169199   5.145   3.444  16.320 -2.3982 -0.5485  0.2834
15928TIP3    H269200   5.045   3.459  16.433 -0.2331  0.8197  2.0989
15929TIP3   OH269201   5.010   5.406  12.685  0.4601  0.6760 -0.3031
15929TIP3    H169202   5.092   5.425  12.639  1.0073 -0.7993 -0.0091
15929TIP3    H269203   4.947   5.384  12.617  0.0834  2.4656 -0.5791
15930TIP3   OH269204   3.767   6.806   3.857 -0.0939 -0.0409  0.1093
15930TIP3    H169205   3.775   6.726   3.804 -2.7989  0.3092 -1.0422
15930TIP3    H269206   3.853   6.847   3.852  0.8851 -2.0313 -0.6879
15931TIP3   OH269207   1.762   2.708   2.411  0.0349  0.5756 -0.1569
15931TIP3    H169208   1.726   2.729   2.497  0.5637 -1.6260  0.6672
15931TIP3    H269209   1.775   2.613   2.413  1.5315  0.6804 -2.0949
15932TIP3   OH269210   6.681   0.942   1.410  0.7289  0.1009  0.4054
15932TIP3    H169211   6.629   0.890   1.349 -2.1505  1.1285  1.8173
15932TIP3    H269212   6.628   1.019   1.428  3.5737  2.1967  0.6157
15933TIP3   OH269213   1.659   0.923  11.988  0.1061 -0.0403 -0.0376
15933TIP3    H169214   1.606   0.855  12.030  1.6757 -1.5847 -0.4648
15933TIP3    H269215   1.741   0.924  12.037  1.4442 -0.9123 -2.1162
15934TIP3   OH269216   6.302   1.448  13.116  0.3677  0.4894 -0.4616
15934TIP3    H169217   6.283   1.395  13.193 -0.9032  0.3735 -0.8217
15934TIP3    H269218   6.345   1.526  13.150 -0.1077  0.4025  0.3578
15935TIP3   OH269219   0.497   1.034   5.097  0.2379 -0.5382  0.4957
15935TIP3    H169220   0.524   1.069   5.012  0.0194 -0.1779  0.5738
15935TIP3    H269221   0.449   0.954   5.075  1.1683 -1.0662  0.3481
15936TIP3   OH269222   5.118   4.601   1.726 -0.3897  0.1970 -0.1999
15936TIP3    H169223   5.057   4.545   1.773  0.0603  1.4124  1.9666
15936TIP3    H269224   5.199   4.597   1.777  0.5919  0.4983 -1.6689
15937TIP3   OH269225   1.578   5.154   0.353  0.0880 -0.0172 -0.0792
15937TIP3    H169226   1.664   5.187   0.327  0.6148 -1.9492 -0.9716
15937TIP3    H269227   1.592   5.060   0.368 -2.2412 -0.8151 -2.2579
15938TIP3   OH269228   4.205   5.627  16.128  0.0430 -0.8091 -0.1258
15938TIP3    H169229   4.166   5.627  16.040  1.2164  4.4871 -0.9840
15938TIP3    H269230   4.299   5.616  16.113  0.1120 -1.3089  0.6312
15939TIP3   OH269231   6.482   1.082  11.252  0.3289  0.9564  0.4025
15939TIP3    H169232   6.460   0.994  11.221  1.5908  0.5012  0.7715
15939TIP3    H269233   6.502   1.132  11.173 -0.4111  0.9292  0.1916
15940TIP3   OH269234   0.357   2.372  14.639 -0.7165 -0.6872 -0.1601
15940TIP3    H169235   0.402   2.288  14.629 -0.2735 -0.3185 -1.4751
15940TIP3    H269236   0.402   2.415  14.711  1.9852  0.1961 -2.1972
15941TIP3   OH269237   0.786   6.250  13.219 -0.2277 -0.3927 -0.0190
15941TIP3    H169238   0.751   6.319  13.162 -0.6509 -0.2190  0.4452
15941TIP3    H269239   0.761   6.277  13.307  3.0749  1.0206  0.6319
15942TIP3   OH269240   2.127   5.125  15.842  0.3676  1.0340 -0.1598
15942TIP3    H169241   2.177   5.206  15.856  1.0004  0.6720 -0.2640
15942TIP3    H269242   2.184   5.056  15.876 -1.0765  0.8158  1.9856
15943TIP3   OH269243   0.424   0.320   2.536 -0.6392 -0.0152  0.0394
15943TIP3    H169244   0.361   0.261   2.578 -1.0094 -1.2835 -2.1167
15943TIP3    H269245   0.414   0.302   2.442  0.1737  2.5957 -0.6260
15944TIP3   OH269246   5.209   2.068  13.928 -0.0432  0.3215 -0.6167
15944TIP3    H169247   5.194   2.037  13.839  1.9483  0.8161 -1.1894
15944TIP3    H269248   5.206   1.990  13.983 -0.3479 -0.1214 -1.2629
15945TIP3   OH269249   2.525   5.617   3.561 -0.1973 -0.6854  0.7338
15945TIP3    H169250   2.527   5.565   3.481  0.1002  0.3445  0.0422
15945TIP3    H269251   2.578   5.568   3.624  2.3464 -0.0039 -0.7112
15946TIP3   OH269252   2.068   0.481  13.217  0.4141  0.0196  0.0353
15946TIP3    H169253   2.159   0.485  13.247  0.2059 -1.6848  1.0375
15946TIP3    H269254   2.061   0.396  13.173 -1.3086 -1.1468  2.3509
15947TIP3   OH269255   5.701   3.139  11.026  0.1895 -0.2232  0.5465
15947TIP3    H169256   5.783   3.132  11.075  0.0274  1.0536  1.0565
15947TIP3    H269257   5.723   3.113  10.937  1.2261  0.3737  0.6134
15948TIP3   OH269258   0.839   1.177   0.011 -0.3799 -0.3036  0.5530
15948TIP3    H169259   0.761   1.229  -0.006 -0.2348 -0.4677 -0.7460
15948TIP3    H269260   0.832   1.152   0.103 -2.4191 -1.2580  0.1865
15949TIP3   OH269261   3.064   4.381   3.213  0.3019  0.0065 -0.3464
15949TIP3    H169262   3.056   4.432   3.132  1.4252 -1.1044 -1.2197
15949TIP3    H269263   3.023   4.434   3.280  1.5992  2.1360 -1.1587
15950TIP3   OH269264   6.330   1.377   1.394 -0.1069  0.1007 -0.4043
15950TIP3    H169265   6.242   1.362   1.360 -0.0769  0.0943 -0.4790
15950TIP3    H269266   6.334   1.326   1.475 -0.7431  1.4087  0.4991
15951TIP3   OH269267   0.788   2.587   1.521  0.7923  0.3919  0.1939
15951TIP3    H169268   0.876   2.602   1.489  0.5847  0.0243 -0.5717
15951TIP3    H269269   0.788   2.496   1.552  0.1158 -0.3834 -1.8664
15952TIP3   OH269270   6.389   4.556   5.065  0.1251 -0.0192 -0.2633
15952TIP3    H169271   6.442   4.485   5.101  0.9710  0.4977 -0.4479
15952TIP3    H269272   6.306   4.516   5.042 -0.5420 -0.3609  2.4040
15953TIP3   OH269273   5.325   1.748  16.228 -0.2707 -0.3271  0.2275
15953TIP3    H169274   5.321   1.660  16.267 -1.1250 -0.0547  0.7745
15953TIP3    H269275   5.234   1.779  16.229 -0.1690  0.0995 -1.0506
15954TIP3   OH269276   5.769   0.121  12.557 -0.4273  0.0406 -0.1043
15954TIP3    H169277   5.690   0.126  12.504 -0.5952 -1.2730 -0.0113
15954TIP3    H269278   5.757   0.187  12.625 -2.6982 -1.9177  1.5493
15955TIP3   OH269279   1.093   0.774   4.020 -0.4048  0.1503 -0.0864
15955TIP3    H169280   1.142   0.855   4.006  0.0086 -0.0596  0.1402
15955TIP3    H269281   1.115   0.719   3.944 -1.5917  0.6773 -0.8561
15956TIP3   OH269282   1.211   0.207  17.052  0.2086 -0.5419 -0.2497
15956TIP3    H169283   1.166   0.124  17.068  0.8173 -0.8081  0.1149
15956TIP3    H269284   1.236   0.238  17.140 -1.2526  0.7392 -0.2405
15957TIP3   OH269285   5.536   5.508   3.697 -1.3478 -0.0108  0.2550
15957TIP3    H169286   5.583   5.463   3.627 -0.9443  0.5463  0.1556
15957TIP3    H269287   5.481   5.441   3.738 -0.2784 -0.7351  0.5311
15958TIP3   OH269288   1.153   0.932  11.808  0.0487 -0.6000 -0.2621
15958TIP3    H169289   1.168   1.014  11.760 -0.2924  0.6870  1.7304
15958TIP3    H269290   1.081   0.891  11.761  2.4810 -1.6229 -3.4784
15959TIP3   OH269291   1.868   3.665  15.177  0.5179  0.3369  0.5133
15959TIP3    H169292   1.876   3.586  15.124 -1.6681  0.2180  0.2416
15959TIP3    H269293   1.773   3.674  15.192  0.7043  2.7987  0.6757
15960TIP3   OH269294   3.950   1.544  16.154  0.1234  0.8496 -0.3000
15960TIP3    H169295   3.904   1.593  16.086 -1.2309 -0.4147 -0.3458
15960TIP3    H269296   3.978   1.463  16.110  1.8225  1.2728 -0.0819
15961TIP3   OH269297   4.814   1.035   1.974 -0.1519  0.1853  0.0497
15961TIP3    H169298   4.819   1.045   2.069 -0.3052 -0.7156  0.1612
15961TIP3    H269299   4.902   1.007   1.948 -0.0434  0.6668 -0.1066
15962TIP3   OH269300   3.128   4.532   5.491 -0.1521 -0.9448 -0.2227
15962TIP3    H169301   3.145   4.622   5.516  0.3359 -1.3211  0.8792
15962TIP3    H269302   3.141   4.482   5.572 -2.0403 -1.8149 -0.4054
15963TIP3   OH269303   1.020   1.647  15.325 -0.2226  0.0510 -0.3726
15963TIP3    H169304   1.033   1.734  15.360 -1.3569  0.2632 -0.4453
15963TIP3    H269305   0.925   1.632  15.330 -0.2244 -0.5724 -1.7516
15964TIP3   OH269306   5.657   3.547  14.595 -0.1388 -0.1244  0.0352
15964TIP3    H169307   5.661   3.460  14.555 -0.3795 -0.1730  0.1151
15964TIP3    H269308   5.573   3.548  14.641 -0.5433  0.4629 -0.6971
15965TIP3   OH269309   6.652   5.895  11.400  0.6821  0.4576  0.0312
15965TIP3    H169310   6.628   5.918  11.311  0.8190  2.0173  0.3748
15965TIP3    H269311   6.716   5.823  11.390 -0.8485 -0.8296 -1.0168
15966TIP3   OH269312   3.290   0.823  16.180 -0.0092 -0.5236 -0.2666
15966TIP3    H169313   3.379   0.852  16.197 -0.1422 -0.8708  1.1629
15966TIP3    H269314   3.240   0.904  16.172  0.4648 -0.3237 -1.3452
15967TIP3   OH269315   3.631   2.667  11.743  0.0945  0.2400 -0.1686
15967TIP3    H169316   3.596   2.601  11.684 -1.1507  0.8854 -0.1806
15967TIP3    H269317   3.683   2.725  11.687  0.8115 -0.4489 -0.2321
15968TIP3   OH269318   2.178   1.782  12.430 -0.5123  0.1706 -0.0235
15968TIP3    H169319   2.110   1.726  12.394 -0.0486 -0.9794  0.8177
15968TIP3    H269320   2.141   1.817  12.511  0.7321 -2.5973  1.9021
15969TIP3   OH269321   3.790   1.929   4.308  0.6350  0.5963 -0.3100
15969TIP3    H169322   3.719   1.868   4.329  0.2856  1.5377  1.3647
15969TIP3    H269323   3.762   1.971   4.226 -0.1575  0.1064 -0.3017
15970TIP3   OH269324   5.903   6.269  12.972 -0.1590  0.0825 -0.0691
15970TIP3    H169325   5.895   6.297  13.063 -0.4790  1.2469 -0.4296
15970TIP3    H269326   5.893   6.350  12.921 -1.0273 -0.6916 -1.1899
15971TIP3   OH269327   3.905   0.668   0.539  0.1302  0.4783  0.4336
15971TIP3    H169328   3.958   0.715   0.603  2.4837 -1.0476 -0.2564
15971TIP3    H269329   3.960   0.663   0.461 -0.8959 -1.4522 -0.2403
15972TIP3   OH269330   3.378   3.005   6.536  0.1447  0.1891 -0.2490
15972TIP3    H169331   3.462   3.042   6.509 -0.2898  2.6526  1.4304
15972TIP3    H269332   3.402   2.931   6.591  1.4383  2.2874  2.2538
15973TIP3   OH269333   5.429   1.532  15.402  0.0338 -0.7645  0.2036
15973TIP3    H169334   5.409   1.449  15.445  1.5478 -0.2389  2.0933
15973TIP3    H269335   5.358   1.591  15.430  0.6291 -0.6197  1.4722
15974TIP3   OH269336   5.678   2.312  15.614 -0.0310 -0.2273 -0.1785
15974TIP3    H169337   5.611   2.259  15.571 -0.9085  1.0683 -0.4562
15974TIP3    H269338   5.667   2.400  15.577 -0.4942  0.8403  2.2793
15975TIP3   OH269339   4.129   2.760  11.358 -0.3462 -0.4240  0.4700
15975TIP3    H169340   4.213   2.715  11.369 -0.7280 -1.0040  1.0807
15975TIP3    H269341   4.073   2.695  11.315 -1.0592 -0.7470  1.8282
15976TIP3   OH269342   3.545   0.430  12.394 -0.1490  0.5207  0.1055
15976TIP3    H169343   3.526   0.418  12.487  0.0672 -0.7428  0.0022
15976TIP3    H269344   3.519   0.520  12.376 -1.4793  0.3623  1.0777
15977TIP3   OH269345   3.205   5.184   2.528  0.9734 -0.3219 -0.0738
15977TIP3    H169346   3.275   5.190   2.463  1.2275  1.2804  0.2910
15977TIP3    H269347   3.154   5.264   2.516 -0.8940 -1.4972 -0.4007
15978TIP3   OH269348   4.782   5.357  15.682  0.3600 -0.0406 -0.0379
15978TIP3    H169349   4.877   5.351  15.686  0.2993 -0.8369  0.6218
15978TIP3    H269350   4.753   5.328  15.769 -0.4203  2.0612  0.4621
15979TIP3   OH269351   1.998   0.198   1.795  0.4153  0.4277  0.1168
15979TIP3    H169352   2.063   0.219   1.728  0.1609  0.4850 -0.1138
15979TIP3    H269353   1.933   0.144   1.749  0.3572  0.2789  0.3721
15980TIP3   OH269354   6.779   6.447  14.691 -0.1917  0.4436  0.1423
15980TIP3    H169355   6.706   6.417  14.745 -1.5938  2.2157 -0.6781
15980TIP3    H269356   6.797   6.536  14.721  1.7088  0.0468  0.3511
15981TIP3   OH269357   6.546   0.406   3.814  0.2670 -0.3892 -0.2833
15981TIP3    H169358   6.608   0.417   3.887 -0.6623 -1.6298  0.7389
15981TIP3    H269359   6.551   0.489   3.767  2.0143 -0.1077  0.2993
15982TIP3   OH269360   5.578   5.064   3.917 -0.2579 -0.6234  0.3548
15982TIP3    H169361   5.564   5.130   3.985 -1.1482 -0.7396  0.3003
15982TIP3    H269362   5.490   5.040   3.889  0.1049  0.5541 -1.9690
15983TIP3   OH269363   2.377   0.530   1.195  0.2451 -0.0963  0.3196
15983TIP3    H169364   2.293   0.550   1.237  0.5846  2.7875 -0.1440
15983TIP3    H269365   2.432   0.499   1.267 -0.2704  1.2207  1.3426
15984TIP3   OH269366   5.614   2.297   3.090  0.5633  0.1277  0.8335
15984TIP3    H169367   5.699   2.315   3.051  1.0184 -0.0184  1.7438
15984TIP3    H269368   5.601   2.203   3.076  0.3810  0.2138  0.3859
15985TIP3   OH269369   0.684   2.987  14.222 -0.2308 -0.1230  0.0675
15985TIP3    H169370   0.719   3.004  14.135 -1.5243 -0.4637 -0.5410
15985TIP3    H269371   0.645   2.900  14.216 -2.3536  0.7583  0.3059
15986TIP3   OH269372   6.526   1.790  12.357 -0.2125  0.1628  0.6272
15986TIP3    H169373   6.494   1.848  12.426 -1.9530  0.3742 -0.3023
15986TIP3    H269374   6.507   1.701  12.390  0.1623  0.2070  0.9716
15987TIP3   OH269375   3.048   0.224  11.670  0.4563  0.2862  0.1076
15987TIP3    H169376   3.123   0.192  11.721 -0.3441 -0.6633  0.7424
15987TIP3    H269377   2.972   0.199  11.722 -0.3825 -0.4404 -1.3945
15988TIP3   OH269378   4.269   6.423  13.391 -0.1345  0.2990 -0.2668
15988TIP3    H169379   4.212   6.483  13.344  0.4208  0.5576 -0.6172
15988TIP3    H269380   4.358   6.458  13.379  0.0821  0.0429  0.4718
15989TIP3   OH269381   1.727   4.026  16.594 -0.0163 -0.2631 -0.5892
15989TIP3    H169382   1.746   3.945  16.546 -1.5260  0.7336 -3.0417
15989TIP3    H269383   1.771   4.095  16.544 -0.3422  0.6689  0.3633
15990TIP3   OH269384   5.194   5.487   1.734 -0.0862  0.0019 -0.7075
15990TIP3    H169385   5.222   5.401   1.766  1.0534 -0.4335 -2.6616
15990TIP3    H269386   5.249   5.549   1.781  0.1758 -0.4613 -0.3906
15991TIP3   OH269387   2.436   0.391   0.659 -0.2839 -0.7894  0.7605
15991TIP3    H169388   2.449   0.403   0.753  1.2508  1.8461  0.3154
15991TIP3    H269389   2.451   0.297   0.645  1.0541 -0.9811  2.9314
15992TIP3   OH269390   2.227   5.659  14.574 -0.2655  0.1324 -0.2519
15992TIP3    H169391   2.226   5.573  14.616 -1.9031 -0.3076 -1.1009
15992TIP3    H269392   2.135   5.678  14.554  0.0714  2.0092 -0.2613
15993TIP3   OH269393   5.664   5.613   4.811  0.0930  0.2167 -0.5593
15993TIP3    H169394   5.646   5.645   4.722  2.9660 -0.2557 -1.4426
15993TIP3    H269395   5.755   5.637   4.826 -0.6232  1.2915  2.8038
15994TIP3   OH269396   3.546   3.936   6.488 -0.2660 -0.1358 -0.0740
15994TIP3    H169397   3.600   3.857   6.491 -0.1621 -0.1134 -0.9972
15994TIP3    H269398   3.532   3.952   6.394 -1.2911  0.2548  0.1311
15995TIP3   OH269399   0.757   2.850   5.739 -0.3825 -0.2193  0.1492
15995TIP3    H169400   0.828   2.880   5.796 -0.3661 -0.6587  0.3603
15995TIP3    H269401   0.775   2.893   5.655  0.9912 -1.4812 -0.2567
15996TIP3   OH269402   6.128   3.621   0.067 -0.3180  0.4423  0.1816
15996TIP3    H169403   6.085   3.544   0.028  1.8731 -1.0790  0.5264
15996TIP3    H269404   6.148   3.677  -0.008 -3.0762  1.3865  0.0486
15997TIP3   OH269405   5.858   1.365  12.742  0.8631 -0.2316 -0.1893
15997TIP3    H169406   5.920   1.438  12.743  0.4067  0.1597  0.1974
15997TIP3    H269407   5.905   1.295  12.698  0.8901  0.6559 -1.6489
15998TIP3   OH269408   0.119   1.776  10.822 -0.1057  0.1803  0.2948
15998TIP3    H169409   0.192   1.771  10.883 -0.0110  0.0075  0.1654
15998TIP3    H269410   0.102   1.870  10.814  0.2703  0.2353  0.1244
15999TIP3   OH269411   6.624   6.308   2.933 -0.4279 -0.1214  0.4171
15999TIP3    H169412   6.659   6.250   3.001 -0.5265 -0.3207  0.2972
15999TIP3    H269413   6.587   6.249   2.868  0.9203  0.0150 -0.5101
16000TIP3   OH269414   0.605   3.831   2.245  0.3462 -0.2199  0.2907
16000TIP3    H169415   0.544   3.818   2.173 -0.2964  1.4745  0.4789
16000TIP3    H269416   0.688   3.796   2.213  0.0223  0.2969 -1.1939
16001TIP3   OH269417   5.716   6.309  11.917  0.6257 -0.8996 -0.1704
16001TIP3    H169418   5.718   6.404  11.922  1.8806 -0.9595  1.3250
16001TIP3    H269419   5.642   6.283  11.972  0.9657 -0.8137  0.3339
16002TIP3   OH269420   4.817   1.462   0.472 -0.5621 -0.7042  0.4959
16002TIP3    H169421   4.757   1.499   0.537 -0.1332  0.1989  0.3912
16002TIP3    H269422   4.892   1.431   0.524 -0.8025 -1.1894  0.5572
16003TIP3   OH269423   4.485   2.591   0.449  0.3099 -0.3433 -0.4807
16003TIP3    H169424   4.441   2.507   0.458  0.7195 -0.3848  1.6005
16003TIP3    H269425   4.447   2.646   0.518  1.5341  0.5009 -0.4315
16004TIP3   OH269426   6.176   5.870  17.047 -0.1652  0.7252  0.0920
16004TIP3    H169427   6.156   5.890  17.138  1.3487  0.3620  0.5287
16004TIP3    H269428   6.140   5.944  16.998 -1.1327  0.8517  0.9512
16005TIP3   OH269429   2.718   0.193   6.512  0.0411 -0.0244 -0.8966
16005TIP3    H169430   2.733   0.109   6.469 -2.0209 -0.6427 -0.4955
16005TIP3    H269431   2.689   0.252   6.442  0.7594  0.1751 -1.0418
16006TIP3   OH269432   4.910   1.382   1.218  0.2865 -0.0572 -0.0054
16006TIP3    H169433   4.845   1.320   1.185 -0.9864  0.3268  1.6727
16006TIP3    H269434   4.977   1.327   1.258  1.3523 -0.4815 -2.2032
16007TIP3   OH269435   6.512   3.162  14.583  0.0142 -0.3256 -0.3365
16007TIP3    H169436   6.441   3.221  14.557  0.8852 -0.3949 -3.0953
16007TIP3    H269437   6.592   3.210  14.562  0.8437 -0.5916  1.9603
16008TIP3   OH269438   0.542   4.859  13.066 -0.3282 -0.4161  0.2559
16008TIP3    H169439   0.616   4.812  13.104  0.6509  1.1482  0.3813
16008TIP3    H269440   0.566   4.951  13.073 -0.3366  0.0363 -3.5771
16009TIP3   OH269441   2.640   5.274  16.062  0.6254  0.1369 -0.4779
16009TIP3    H169442   2.699   5.276  16.137 -1.8424 -0.5382  1.6461
16009TIP3    H269443   2.574   5.341  16.082  0.3342  0.4986 -2.4815
16010TIP3   OH269444   2.727   5.724  11.322 -0.3393  0.3869  0.2461
16010TIP3    H169445   2.645   5.735  11.371 -0.0667  1.4048  0.5024
16010TIP3    H269446   2.791   5.776  11.371  0.0113  1.1853 -1.0069
16011TIP3   OH269447   3.582   5.312   4.456 -0.3883  0.5360 -0.5938
16011TIP3    H169448   3.526   5.288   4.382 -2.4860  0.5111  0.8996
16011TIP3    H269449   3.665   5.339   4.416  0.0389 -3.2337 -2.7603
16012TIP3   OH269450   3.102   6.081  12.787 -0.0399 -0.1143 -0.4580
16012TIP3    H169451   3.127   6.004  12.735 -0.3534  0.5344 -1.5941
16012TIP3    H269452   3.036   6.125  12.734 -1.3190 -0.0984  1.0681
16013TIP3   OH269453   0.945   0.132   4.555 -0.3651 -0.6354  0.9595
16013TIP3    H169454   0.982   0.103   4.638 -1.5515 -3.9565  0.5111
16013TIP3    H269455   1.015   0.116   4.491 -0.8808 -2.3882  0.7746
16014TIP3   OH269456   6.202   3.314  15.905 -0.8773 -0.4382  0.2656
16014TIP3    H169457   6.218   3.397  15.950  0.5033 -0.3428 -0.3404
16014TIP3    H269458   6.123   3.329  15.854 -0.9039  0.3541  0.5284
16015TIP3   OH269459   0.414   3.217   5.067  0.1003 -0.2258 -0.0687
16015TIP3    H169460   0.447   3.139   5.022 -0.9833 -1.0437  0.5082
16015TIP3    H269461   0.356   3.259   5.002 -1.5603 -1.4706  0.5215
16016TIP3   OH269462   2.087   6.293  12.719 -0.1838  0.1247  0.0883
16016TIP3    H169463   2.011   6.347  12.701  0.1866  0.5678 -0.1587
16016TIP3    H269464   2.051   6.215  12.763 -0.7104  0.5800  0.4829
16017TIP3   OH269465   2.136   5.134  14.038  0.0752 -0.4510  0.1836
16017TIP3    H169466   2.055   5.084  14.052 -0.4866 -0.2202 -1.8864
16017TIP3    H269467   2.129   5.208  14.098  0.5958 -2.3945  2.7868
16018TIP3   OH269468   2.122   6.766   0.177  0.7271  0.2804 -0.1259
16018TIP3    H169469   2.098   6.685   0.222  2.0448 -0.0402  0.0436
16018TIP3    H269470   2.056   6.829   0.205  0.3458 -0.4427  0.6531
16019TIP3   OH269471   4.292   1.826   3.429  0.0033  0.1808  0.4718
16019TIP3    H169472   4.220   1.793   3.482 -0.8606 -1.1435 -1.4360
16019TIP3    H269473   4.356   1.754   3.428 -0.5544 -0.3335 -1.2580
16020TIP3   OH269474   6.761   3.791   4.587  0.1947  0.0282 -0.0316
16020TIP3    H169475   6.813   3.862   4.550  0.5810 -1.5403 -2.7087
16020TIP3    H269476   6.710   3.833   4.657  1.4427  2.6000 -0.5527
16021TIP3   OH269477   6.240   2.748   1.288  1.1365 -0.2933  0.1629
16021TIP3    H169478   6.242   2.758   1.383  0.1049  2.8014 -0.0084
16021TIP3    H269479   6.322   2.787   1.258  0.0053  1.9164 -0.2876
16022TIP3   OH269480   6.756   5.119   2.590  0.2224  0.2422  0.0443
16022TIP3    H169481   6.756   5.175   2.513  1.0622  1.7525  1.0991
16022TIP3    H269482   6.750   5.179   2.665  0.4024 -1.1067  1.1997
16023TIP3   OH269483   4.663   2.485   5.491  0.2477  0.2008  0.8579
16023TIP3    H169484   4.569   2.494   5.473  0.5528  0.2182 -0.9089
16023TIP3    H269485   4.694   2.424   5.424  1.7203  1.1219  0.6732
16024TIP3   OH269486   4.855   4.019   1.288 -0.1397 -0.4341 -0.2802
16024TIP3    H169487   4.853   4.045   1.196  0.0570 -2.0078 -0.7635
16024TIP3    H269488   4.768   4.044   1.321 -0.1204  0.3846 -0.8101
16025TIP3   OH269489   0.201   4.566  13.263  0.7863 -0.6576 -0.1437
16025TIP3    H169490   0.261   4.492  13.254  0.5096 -1.6444  4.0065
16025TIP3    H269491   0.256   4.640  13.288  0.6688 -0.4498 -0.4850
16026TIP3   OH269492   3.586   1.252   2.446 -0.4388  0.0409  0.4883
16026TIP3    H169493   3.550   1.333   2.481  0.4567 -0.0985  1.8420
16026TIP3    H269494   3.657   1.230   2.507  0.5404 -0.7706 -0.8958
16027TIP3   OH269495   0.255   2.396   3.641 -0.0759 -0.3655  0.1705
16027TIP3    H169496   0.345   2.365   3.642  0.6209  1.5291  0.9019
16027TIP3    H269497   0.258   2.477   3.592 -1.2150  0.1701  0.9435
16028TIP3   OH269498   1.129   4.912   4.160  0.3835  0.2460  0.6455
16028TIP3    H169499   1.082   4.923   4.078 -1.5286  0.5821  1.7185
16028TIP3    H269500   1.087   4.974   4.220  2.0586  0.3812  1.7579
16029TIP3   OH269501   3.485   4.970   3.419  0.3379 -0.0186  0.5819
16029TIP3    H169502   3.397   4.942   3.445  0.4500 -0.0056  0.9816
16029TIP3    H269503   3.528   4.889   3.392 -0.2874  0.1710 -1.1259
16030TIP3   OH269504   5.462   5.467   2.898 -0.2850 -0.5002  0.4624
16030TIP3    H169505   5.386   5.413   2.920 -0.7470 -0.1494 -0.2380
16030TIP3    H269506   5.459   5.475   2.803 -0.0497  0.5122  0.5311
16031TIP3   OH269507   1.055   1.298  13.292 -0.2456  0.0240 -0.4430
16031TIP3    H169508   1.079   1.279  13.201  1.2921  3.3381 -0.8579
16031TIP3    H269509   1.038   1.392  13.294  1.4495  0.4176  2.9847
16032TIP3   OH269510   3.487   4.088   0.854  0.3774 -0.1745 -0.3563
16032TIP3    H169511   3.418   4.030   0.820 -0.2315  0.4003 -0.1330
16032TIP3    H269512   3.480   4.079   0.949  1.7217 -1.3734 -0.3399
16033TIP3   OH269513   5.690   4.234   2.612 -0.1122 -0.3663  0.2323
16033TIP3    H169514   5.603   4.197   2.599 -0.5883  0.8968 -0.4168
16033TIP3    H269515   5.702   4.235   2.707 -0.8307 -0.5185  0.3300
16034TIP3   OH269516   5.711   4.959   4.300  0.2927  0.1427  0.1701
16034TIP3    H169517   5.791   5.009   4.283  0.6956 -0.8562 -1.0024
16034TIP3    H269518   5.741   4.878   4.340 -0.3120  0.5532  1.5170
16035TIP3   OH269519   4.936   5.809   3.596 -0.1145 -0.8113 -0.1267
16035TIP3    H169520   4.851   5.775   3.569 -2.0210  2.7778  0.7321
16035TIP3    H269521   4.987   5.815   3.516 -0.5652 -3.0492 -0.6511
16036TIP3   OH269522   0.902   6.262   3.831 -0.5544 -0.0976 -0.2673
16036TIP3    H169523   0.875   6.201   3.900  1.6469 -1.9462 -0.8855
16036TIP3    H269524   0.976   6.309   3.869  1.0266 -1.5142 -1.4233
16037TIP3   OH269525   3.017   4.013  12.679  0.0236 -0.4186 -0.4192
16037TIP3    H169526   3.042   4.036  12.590 -0.9464  1.2095 -0.3158
16037TIP3    H269527   2.963   3.934  12.670 -0.1511 -0.2071 -1.2865
16038TIP3   OH269528   3.396   5.203   1.086 -0.6559  0.6651  0.0424
16038TIP3    H169529   3.435   5.115   1.086 -1.9198  0.0686 -0.8151
16038TIP3    H269530   3.470   5.262   1.102  0.4790 -0.4616 -0.8160
16039TIP3   OH269531   2.285   6.712  10.627 -1.0104  1.2798 -0.0708
16039TIP3    H169532   2.317   6.774  10.562 -1.9347  2.7079  0.7904
16039TIP3    H269533   2.356   6.704  10.690 -1.6553  3.1880  0.9697
16040TIP3   OH269534   0.593   3.504   0.911  0.4876  0.7717  0.2550
16040TIP3    H169535   0.614   3.411   0.905 -2.9469 -0.1013 -0.5421
16040TIP3    H269536   0.598   3.524   1.004 -0.3389 -0.7179  0.6579
16041TIP3   OH269537   3.439   1.365  12.844  0.6322 -0.8905 -0.0788
16041TIP3    H169538   3.451   1.323  12.759 -0.8683  0.5541 -1.0852
16041TIP3    H269539   3.526   1.397  12.868  0.8692 -0.1202 -1.7884
16042TIP3   OH269540   4.416   0.595  12.783  0.5449  0.2445  0.1457
16042TIP3    H169541   4.479   0.599  12.711  0.9338  3.5791  0.5177
16042TIP3    H269542   4.457   0.645  12.854 -0.8575 -0.9101  1.8585
16043TIP3   OH269543   1.556   2.820  14.546 -0.1946 -0.0425 -0.5490
16043TIP3    H169544   1.513   2.753  14.492 -0.7461  0.8368 -1.2262
16043TIP3    H269545   1.616   2.770  14.601 -1.4958 -1.2477 -0.1350
16044TIP3   OH269546   2.769   3.279   0.802  0.0980 -0.4918  0.3392
16044TIP3    H169547   2.770   3.202   0.859  1.5804 -0.5032  0.3148
16044TIP3    H269548   2.804   3.350   0.856  0.8733 -0.3492 -0.3415
16045TIP3   OH269549   1.024   3.664  15.227  0.8281 -0.5533  0.3470
16045TIP3    H169550   0.984   3.577  15.231  0.1752 -0.2700  0.0710
16045TIP3    H269551   0.975   3.710  15.160 -0.5655  0.8864  2.2411
16046TIP3   OH269552   5.397   3.038  15.942 -0.4934 -0.7566  0.1052
16046TIP3    H169553   5.313   3.005  15.910  0.0073 -0.8121 -1.2370
16046TIP3    H269554   5.397   3.131  15.916 -0.1384 -0.7568  0.1030
16047TIP3   OH269555   6.531   3.072  15.508  0.2488 -0.0381  0.4499
16047TIP3    H169556   6.509   3.109  15.593 -1.2843 -0.5190  0.2937
16047TIP3    H269557   6.539   2.978  15.525 -0.3130 -0.1654  0.0212
16048TIP3   OH269558   4.858   6.465   5.282  0.3152 -0.3035  0.2492
16048TIP3    H169559   4.788   6.458   5.347 -1.6733 -2.5502 -1.9272
16048TIP3    H269560   4.834   6.540   5.228 -0.0169 -0.5861 -0.0047
16049TIP3   OH269561   1.141   4.005  13.394 -0.1553  0.2846  0.5755
16049TIP3    H169562   1.139   4.083  13.450 -1.8925 -0.5492  1.7541
16049TIP3    H269563   1.070   3.950  13.426  2.6572 -3.1147  1.6326
16050TIP3   OH269564   2.899   3.568   0.525 -0.0581  0.8414 -0.1529
16050TIP3    H169565   2.926   3.582   0.616 -1.9716  0.7077  0.4791
16050TIP3    H269566   2.912   3.653   0.483 -0.1494  1.1891  0.5058
16051TIP3   OH269567   0.751   4.322  13.359  0.3624 -0.2495 -0.0953
16051TIP3    H169568   0.790   4.382  13.295  0.7429 -1.7713 -1.3672
16051TIP3    H269569   0.817   4.313  13.427 -0.7201  2.7132  1.4810
16052TIP3   OH269570   5.439   0.317  11.325 -0.0218 -0.1301 -0.5483
16052TIP3    H169571   5.443   0.323  11.230 -0.4826  0.5301 -0.5254
16052TIP3    H269572   5.434   0.223  11.342 -2.0049 -0.1897 -1.2675
16053TIP3   OH269573   5.541   4.036   3.137 -0.0719 -0.1814 -0.3273
16053TIP3    H169574   5.517   4.044   3.045  0.4639  2.6128 -0.3141
16053TIP3    H269575   5.466   3.994   3.179 -0.0690 -2.0748 -2.0910
16054TIP3   OH269576   1.541   1.316  16.736  0.0533  0.1837  0.2959
16054TIP3    H169577   1.480   1.242  16.729 -0.8654  0.9670 -0.1696
16054TIP3    H269578   1.613   1.294  16.677  1.4662 -1.8519  2.5514
16055TIP3   OH269579   1.423   4.682  16.047 -0.2182 -0.2019 -0.0275
16055TIP3    H169580   1.464   4.763  16.079  0.7014 -1.5603  2.5024
16055TIP3    H269581   1.331   4.705  16.034 -0.0624  1.1544  1.0404
16056TIP3   OH269582   0.144   5.257  14.218  0.1376  0.0457 -0.0048
16056TIP3    H169583   0.189   5.254  14.134 -0.1701 -1.8121 -0.1360
16056TIP3    H269584   0.087   5.180  14.218 -1.8017  1.3920  0.8589
16057TIP3   OH269585   0.439   1.362  14.261  0.1197 -0.4429 -0.9469
16057TIP3    H169586   0.372   1.386  14.198  2.4701  3.3053 -2.3871
16057TIP3    H269587   0.489   1.293  14.218  0.1485  0.2813 -2.1253
16058TIP3   OH269588   1.577   4.741   1.550 -0.2564 -0.3646  0.0422
16058TIP3    H169589   1.485   4.724   1.571 -0.4171  1.0982  0.6485
16058TIP3    H269590   1.584   4.837   1.548  1.4073 -0.4374  0.7202
16059TIP3   OH269591   6.757   0.145  15.262 -0.1069  0.2141 -0.3655
16059TIP3    H169592   6.674   0.130  15.217 -0.0154  0.5523 -0.6571
16059TIP3    H269593   6.821   0.094  15.212 -0.3428 -1.1069  0.6298
16060TIP3   OH269594   2.985   0.941  14.790 -0.0799  0.7754 -0.2038
16060TIP3    H169595   3.042   0.989  14.730  1.6048  0.5129  1.1024
16060TIP3    H269596   3.016   0.966  14.878 -1.1942 -0.3282  0.5405
16061TIP3   OH269597   2.355   1.675   1.263  0.1996 -0.5587 -0.2013
16061TIP3    H169598   2.316   1.715   1.185  1.5207  2.2484  0.4542
16061TIP3    H269599   2.440   1.643   1.232 -0.0110 -1.0413 -0.2847
16062TIP3   OH269600   2.872   1.125   4.614  0.5511 -0.4125  0.1571
16062TIP3    H169601   2.852   1.134   4.707 -1.0725  0.6035 -0.2493
16062TIP3    H269602   2.852   1.034   4.593 -3.3451  0.3139 -0.0444
16063TIP3   OH269603   1.502   3.004   4.820 -0.1877  0.1611  0.0759
16063TIP3    H169604   1.487   3.096   4.799 -1.1474 -0.1318 -0.5761
16063TIP3    H269605   1.597   2.993   4.813 -0.1007  1.0123 -0.2057
16064TIP3   OH269606   1.551   4.456   1.147  1.0733  0.2187 -0.2124
16064TIP3    H169607   1.504   4.506   1.214  1.7809  0.4601  0.1103
16064TIP3    H269608   1.619   4.409   1.195  1.4861  0.2717 -0.7365
16065TIP3   OH269609   6.536   2.780   6.077 -0.1330 -0.4020  0.1009
16065TIP3    H169610   6.564   2.849   6.018 -0.7806 -1.0107 -0.9479
16065TIP3    H269611   6.612   2.723   6.086  0.4690  0.5242  1.1313
16066TIP3   OH269612   2.941   0.905   0.807 -0.3513  0.5233 -0.6367
16066TIP3    H169613   2.944   0.818   0.847  1.4601  1.7114  2.1080
16066TIP3    H269614   3.015   0.907   0.746 -0.3295  0.1625 -0.6196
16067TIP3   OH269615   2.302   4.936  16.020 -0.1213  0.3409 -0.0435
16067TIP3    H169616   2.324   4.890  15.939  0.2817 -1.2370  0.9323
16067TIP3    H269617   2.213   4.907  16.041 -0.8422  1.9485 -0.7041
16068TIP3   OH269618   0.946   4.331  13.538  0.2082  0.0025 -0.2162
16068TIP3    H169619   1.006   4.271  13.582 -2.3554 -2.3678  0.2917
16068TIP3    H269620   0.900   4.375  13.609 -0.8234 -0.5230 -0.5466
16069TIP3   OH269621   4.366   6.072  13.382 -0.1884  0.4494  0.7109
16069TIP3    H169622   4.297   6.065  13.316 -0.9936  1.1722  1.4638
16069TIP3    H269623   4.442   6.102  13.333 -0.8172  1.1350  0.1326
16070TIP3   OH269624   1.404   1.073   0.013 -0.3705  0.0106  0.6081
16070TIP3    H169625   1.442   1.149   0.058 -0.7671 -0.1801  1.2839
16070TIP3    H269626   1.448   0.998   0.052 -1.3917 -0.2128  1.3950
16071TIP3   OH269627   3.037   5.308   4.131 -0.2519  0.1463  0.4311
16071TIP3    H169628   3.076   5.239   4.184 -0.6602  1.1476  2.0858
16071TIP3    H269629   3.103   5.378   4.129  0.1546 -0.2281 -1.2202
16072TIP3   OH269630   6.222   4.785  10.704 -0.3405 -0.3230 -0.3420
16072TIP3    H169631   6.267   4.725  10.644 -1.3188 -0.4520 -0.9671
16072TIP3    H269632   6.135   4.746  10.717 -0.1595 -0.2992  1.1711
16073TIP3   OH269633   4.969   1.331   5.216  0.2430  0.1519 -0.1966
16073TIP3    H169634   4.998   1.243   5.238 -1.1156 -0.0261  0.9436
16073TIP3    H269635   4.889   1.318   5.165 -0.0274  0.7388  0.0784
16074TIP3   OH269636   5.308   4.252   4.017  0.0026  0.2227 -0.1505
16074TIP3    H169637   5.214   4.259   4.032  0.1655  2.3392  0.2209
16074TIP3    H269638   5.347   4.313   4.080  1.7452 -1.4899  0.5680
16075TIP3   OH269639   2.613   4.193   5.694 -0.5933  0.2940 -0.2414
16075TIP3    H169640   2.690   4.190   5.637 -1.4557  0.1961 -1.4167
16075TIP3    H269641   2.640   4.248   5.768  0.8705 -0.3919 -0.2302
16076TIP3   OH269642   2.735   0.112   1.852 -0.4057 -0.0390  0.2523
16076TIP3    H169643   2.805   0.048   1.846 -1.9759 -1.8234  0.1088
16076TIP3    H269644   2.780   0.196   1.861  1.7382 -0.9800 -0.9598
16077TIP3   OH269645   3.644   4.479  11.133 -0.4235 -0.3286  0.0829
16077TIP3    H169646   3.676   4.462  11.221  1.6846 -0.8898 -0.7296
16077TIP3    H269647   3.549   4.483  11.142 -0.3715 -2.0432  2.0993
16078TIP3   OH269648   4.631   4.941  12.483 -0.1526  0.2795  0.7394
16078TIP3    H169649   4.705   4.989  12.445  0.8344 -0.7623  1.2695
16078TIP3    H269650   4.553   4.982  12.445  0.6512  2.0969  0.9747
16079TIP3   OH269651   4.614   6.101   3.881 -0.3713  0.6977 -0.0577
16079TIP3    H169652   4.688   6.045   3.902 -0.5487  0.8100  0.8972
16079TIP3    H269653   4.630   6.182   3.929 -0.1756  1.4447 -1.3274
16080TIP3   OH269654   2.304   0.684   0.689  0.5512 -0.1006  0.1224
16080TIP3    H169655   2.269   0.622   0.752 -1.3946 -1.6837 -2.3535
16080TIP3    H269656   2.280   0.770   0.724 -0.6290 -0.9194  1.4185
16081TIP3   OH269657   6.412   3.164   0.491 -0.1384 -0.4074 -0.2361
16081TIP3    H169658   6.355   3.090   0.472 -0.4705 -0.7586  1.8881
16081TIP3    H269659   6.481   3.129   0.548  2.1659  0.0525 -2.5521
16082TIP3   OH269660   4.502   0.263  14.267 -0.2170 -0.0249  0.2512
16082TIP3    H169661   4.482   0.188  14.322 -0.4430 -1.0150 -1.1281
16082TIP3    H269662   4.589   0.244  14.232 -0.8526 -0.3630 -1.2166
16083TIP3   OH269663   2.945   2.309  16.241  0.0947  0.2263  0.4076
16083TIP3    H169664   2.934   2.404  16.241 -0.8072  0.1822 -1.4661
16083TIP3    H269665   2.857   2.274  16.255 -0.0054 -0.2675 -1.1679
16084TIP3   OH269666   5.480   5.987  14.646  0.2196  0.0386  0.1367
16084TIP3    H169667   5.420   6.034  14.588  1.4901  0.4689 -0.8645
16084TIP3    H269668   5.440   5.995  14.733 -1.0006  0.5780 -0.4482
16085TIP3   OH269669   0.517   0.913  12.018  0.1419 -0.0385 -0.7553
16085TIP3    H169670   0.605   0.883  12.038 -0.5934 -0.8809  1.5892
16085TIP3    H269671   0.467   0.833  12.003 -0.5906  0.2961 -0.2188
16086TIP3   OH269672   3.688   4.765   0.928  1.1056  0.3629 -0.1003
16086TIP3    H169673   3.712   4.674   0.910 -1.1048  0.1793 -2.7233
16086TIP3    H269674   3.628   4.759   1.003  1.2770 -0.3101 -0.0078
16087TIP3   OH269675   1.850   4.070  11.140 -0.2360  0.1029  0.4025
16087TIP3    H169676   1.846   4.069  11.235  0.0492  1.4142  0.4551
16087TIP3    H269677   1.935   4.108  11.119 -0.9325  1.3399 -0.3327
16088TIP3   OH269678   0.168   6.101  10.786  0.8451 -0.4355 -0.2855
16088TIP3    H169679   0.132   6.024  10.831  0.7140 -0.4918 -0.4854
16088TIP3    H269680   0.104   6.120  10.717 -0.8589  1.7653  1.6854
16089TIP3   OH269681   4.327   4.124  16.280 -0.2900 -0.2093  0.2535
16089TIP3    H169682   4.285   4.166  16.355  1.0751  0.8889  0.4375
16089TIP3    H269683   4.254   4.094  16.225 -1.2980  0.3050  1.2777
16090TIP3   OH269684   3.002   6.216   3.232 -0.5297 -0.2669  0.5499
16090TIP3    H169685   3.070   6.153   3.257  0.6917  0.3014 -1.1108
16090TIP3    H269686   2.974   6.256   3.314  1.5488 -0.1506  1.2614
16091TIP3   OH269687   0.508   6.142   3.119  0.0217  0.0963  0.0450
16091TIP3    H169688   0.574   6.093   3.169  1.8141  2.1787 -0.1176
16091TIP3    H269689   0.506   6.100   3.033 -0.2110 -1.0972  0.6144
16092TIP3   OH269690   1.031   2.726   0.518 -0.8502  0.6891  0.2172
16092TIP3    H169691   1.007   2.726   0.610  0.6345  1.0624  0.6277
16092TIP3    H269692   1.013   2.815   0.488  1.7109  1.5619  1.0325
16093TIP3   OH269693   1.593   3.498  15.671  0.2797  0.4996 -0.4717
16093TIP3    H169694   1.590   3.594  15.680  1.1299  0.5519 -0.6591
16093TIP3    H269695   1.671   3.472  15.721 -0.7282 -0.2529  0.7590
16094TIP3   OH269696   2.559   4.736  14.170  0.0241  0.6141 -0.0914
16094TIP3    H169697   2.537   4.781  14.251 -1.3598 -1.8008  0.9578
16094TIP3    H269698   2.530   4.646  14.183  1.1761 -0.2358 -2.6984
16095TIP3   OH269699   3.327   1.786  12.679  0.3310  0.1292  0.4430
16095TIP3    H169700   3.308   1.826  12.595  2.3715 -1.4612 -0.8560
16095TIP3    H269701   3.290   1.698  12.673  2.0433 -0.6392  0.4331
16096TIP3   OH269702   5.368   3.121  11.796  0.2055 -0.2669 -0.7762
16096TIP3    H169703   5.326   3.035  11.791  1.0814 -0.9859  2.1344
16096TIP3    H269704   5.309   3.174  11.850  0.7166  0.2482 -0.7138
16097TIP3   OH269705   5.700   3.418  12.149  0.5297  0.1081 -0.1460
16097TIP3    H169706   5.699   3.455  12.060  0.0383  0.6715  0.0918
16097TIP3    H269707   5.632   3.350  12.147  1.2013 -0.5647 -0.4839
16098TIP3   OH269708   0.563   4.038  13.548  0.2865 -0.3130 -0.2074
16098TIP3    H169709   0.602   4.075  13.627 -0.5210  0.3665 -0.1192
16098TIP3    H269710   0.622   3.966  13.524  2.4689  1.5961 -0.9512
16099TIP3   OH269711   2.549   6.780   1.238  0.3202 -0.6029 -0.4690
16099TIP3    H169712   2.569   6.692   1.272  1.4482 -0.3238 -0.3640
16099TIP3    H269713   2.548   6.770   1.143  0.1861 -0.7751 -0.4505
16100TIP3   OH269714   4.051   1.677  13.551 -0.5417 -0.0495  0.0923
16100TIP3    H169715   3.958   1.694  13.536 -0.1734  0.4447 -1.8790
16100TIP3    H269716   4.095   1.760  13.529  0.1989  0.7191  3.7942
16101TIP3   OH269717   2.916   1.535  14.402 -0.4889  0.2196  0.3891
16101TIP3    H169718   2.854   1.463  14.416  0.8883 -0.9593  0.6340
16101TIP3    H269719   2.891   1.601  14.467  0.5451 -1.6387  2.7912
16102TIP3   OH269720   3.532   2.892   0.066  0.0899 -0.1617  0.0520
16102TIP3    H169721   3.528   2.897   0.162  1.7819 -0.0225  0.1550
16102TIP3    H269722   3.590   2.965   0.041  0.0789 -0.5124 -1.0365
16103TIP3   OH269723   1.189   4.746  17.000  0.0278 -0.4855  0.0608
16103TIP3    H169724   1.251   4.735  16.928 -0.2044 -0.0908 -0.2028
16103TIP3    H269725   1.242   4.737  17.079  0.5130  0.3277 -0.1600
16104TIP3   OH269726   0.008   2.666   1.682  0.4066 -0.5933 -0.0911
16104TIP3    H169727  -0.072   2.615   1.671 -0.2095  0.5571 -1.2604
16104TIP3    H269728  -0.020   2.757   1.678  1.7425 -0.1627 -0.3915
16105TIP3   OH269729   5.938   0.568   3.483  0.4102  0.4734  0.5213
16105TIP3    H169730   5.967   0.642   3.536  1.5925  0.0016  0.5617
16105TIP3    H269731   5.962   0.592   3.393 -0.9733  0.9745  0.2619
16106TIP3   OH269732   6.670   1.473   3.604  0.6284 -0.2484  0.7239
16106TIP3    H169733   6.656   1.565   3.628 -1.6580 -0.6097  0.9488
16106TIP3    H269734   6.762   1.469   3.578  0.9266  1.9793  1.2585
16107TIP3   OH269735   4.319   1.926   4.524  1.1819 -0.0529 -1.1717
16107TIP3    H169736   4.286   1.846   4.563 -0.5005  2.3732  3.0210
16107TIP3    H269737   4.241   1.977   4.502  1.9165  2.5298  1.4458
16108TIP3   OH269738   0.649   0.476   2.086  0.1933  0.5012  0.3505
16108TIP3    H169739   0.650   0.476   1.990 -4.1000 -1.3016  0.0582
16108TIP3    H269740   0.695   0.396   2.111 -0.3621 -0.0514 -0.3612
16109TIP3   OH269741   3.822   4.107   2.252 -0.0021 -0.3173  0.1442
16109TIP3    H169742   3.892   4.042   2.245 -0.5523 -0.8348 -0.7394
16109TIP3    H269743   3.742   4.055   2.256 -0.3104  0.2321  2.1123
16110TIP3   OH269744   3.764   5.006  11.791 -0.1947 -0.1671 -0.7849
16110TIP3    H169745   3.752   4.983  11.883 -0.1228 -0.6177 -0.8868
16110TIP3    H269746   3.707   5.082  11.778  2.0010  1.7863  0.3592
16111TIP3   OH269747   0.759   3.474  13.733 -0.1338 -0.1853  0.1522
16111TIP3    H169748   0.692   3.512  13.790  1.1957  0.1107  1.5988
16111TIP3    H269749   0.840   3.517  13.760  0.6955 -0.7183 -1.3673
16112TIP3   OH269750   1.605   3.823   0.707  0.2767 -0.4999  0.4058
16112TIP3    H169751   1.518   3.823   0.747 -1.2290 -0.9963 -2.6028
16112TIP3    H269752   1.606   3.744   0.652  1.9831  0.3657 -0.8873
16113TIP3   OH269753   5.371   1.068  12.222 -0.7412 -0.3410 -0.1209
16113TIP3    H169754   5.401   0.983  12.190  0.5600 -0.2661  0.8300
16113TIP3    H269755   5.404   1.130  12.157 -1.8909 -0.5598 -0.9403
16114TIP3   OH269756   4.492   6.494   0.968 -0.0501  0.3572 -0.1514
16114TIP3    H169757   4.546   6.563   0.932 -1.6409  1.5421 -0.3734
16114TIP3    H269758   4.403   6.529   0.967 -0.5243 -0.4552  2.7156
16115TIP3   OH269759   3.085   4.974   0.766  0.2782 -0.4978  0.4000
16115TIP3    H169760   3.066   4.979   0.672 -0.1249  0.3581  0.5131
16115TIP3    H269761   3.163   4.919   0.772  0.3684 -0.4804 -0.4424
16116TIP3   OH269762   3.936   0.238  11.601  0.5132  0.0085  0.1255
16116TIP3    H169763   3.979   0.196  11.526  0.0259 -1.5940  0.7050
16116TIP3    H269764   3.979   0.199  11.678  0.2200  0.7755  0.6938
16117TIP3   OH269765   5.087   2.997   0.448 -0.4395  0.2527 -0.7428
16117TIP3    H169766   5.093   2.972   0.356  2.0023 -0.6809 -0.3945
16117TIP3    H269767   5.164   3.051   0.463  0.7056 -1.8166  1.3561
16118TIP3   OH269768   3.678   3.544   2.415  0.6386 -0.2709  0.2278
16118TIP3    H169769   3.652   3.580   2.500  2.6984 -2.1619  1.7460
16118TIP3    H269770   3.726   3.616   2.373  0.8923  0.2127  1.3071
16119TIP3   OH269771   0.132   1.528  13.837  0.1216 -0.4149 -0.0473
16119TIP3    H169772   0.125   1.505  13.744 -1.8227 -1.1984  0.2454
16119TIP3    H269773   0.226   1.532  13.853  0.5150  0.5243 -2.2276
16120TIP3   OH269774   5.094   2.332   3.352  0.1015 -0.4486 -0.2238
16120TIP3    H169775   5.092   2.290   3.437  1.2055 -3.9148 -1.7515
16120TIP3    H269776   5.023   2.292   3.303 -0.4507  1.4037 -1.0307
16121TIP3   OH269777   4.998   2.029   5.259 -0.3311 -0.2152  0.0045
16121TIP3    H169778   5.079   2.080   5.264 -0.2505 -0.4292  1.9391
16121TIP3    H269779   5.023   1.947   5.217  0.5595 -0.4125  0.8752
16122TIP3   OH269780   0.173   6.047  16.462 -0.3295  0.0044 -0.0388
16122TIP3    H169781   0.162   6.013  16.374 -0.2379  0.2222 -0.1353
16122TIP3    H269782   0.191   5.970  16.516 -1.7512 -0.3123  0.0338
16123TIP3   OH269783   1.350   1.429   2.731  0.5259  0.0555  0.3393
16123TIP3    H169784   1.362   1.442   2.825 -0.8031  1.4937  0.3621
16123TIP3    H269785   1.265   1.386   2.724  1.0436 -0.9085 -0.1827
16124TIP3   OH269786   2.876   1.695   2.231  0.0563  0.4738  0.4217
16124TIP3    H169787   2.965   1.728   2.222  0.8134 -0.7678  2.6508
16124TIP3    H269788   2.868   1.629   2.163  0.9494  0.3654  0.4143
16125TIP3   OH269789   1.244   2.279   3.669 -0.1246 -0.4950 -0.0701
16125TIP3    H169790   1.259   2.357   3.616 -0.8117 -0.4527 -0.2185
16125TIP3    H269791   1.149   2.268   3.668 -0.3059  0.3026  2.2616
16126TIP3   OH269792   3.394   5.204   2.326 -0.3678  0.0019  0.4353
16126TIP3    H169793   3.445   5.157   2.393  0.1535 -1.2424 -0.7711
16126TIP3    H269794   3.402   5.149   2.248  1.6893  2.9214 -1.6066
16127TIP3   OH269795   5.768   4.476   1.652 -0.0612  0.5028 -0.3175
16127TIP3    H169796   5.749   4.387   1.682  0.2757  1.0504  1.6644
16127TIP3    H269797   5.729   4.533   1.719 -0.2908  1.8608 -1.5572
16128TIP3   OH269798   3.045   3.903  13.838 -0.0811 -0.3581  0.0512
16128TIP3    H169799   2.996   3.960  13.780  2.2983  1.8733  0.0396
16128TIP3    H269800   3.135   3.908  13.806  0.5818 -2.5494  1.3179
16129TIP3   OH269801   1.398   1.960  11.253 -0.1199  0.8746  0.6624
16129TIP3    H169802   1.350   1.879  11.236 -1.1306  1.7756 -1.1901
16129TIP3    H269803   1.490   1.934  11.252 -0.4314 -0.2777  0.1990
16130TIP3   OH269804   1.340   3.490   3.712  0.2521  0.1091 -0.3579
16130TIP3    H169805   1.252   3.480   3.677 -0.1050 -2.9863  1.0523
16130TIP3    H269806   1.393   3.519   3.638 -1.9929  2.9328 -1.0401
16131TIP3   OH269807   5.859   6.818   5.208  0.5909 -0.2977  0.7818
16131TIP3    H169808   5.884   6.817   5.301  0.7220 -1.6057  0.7435
16131TIP3    H269809   5.901   6.740   5.171  0.5756  0.2327 -0.3950
16132TIP3   OH269810   5.551   5.981   3.160 -0.3857  0.0559  0.2818
16132TIP3    H169811   5.623   6.031   3.122  2.6080 -1.1976  3.6468
16132TIP3    H269812   5.505   5.944   3.085  1.9479  1.6671 -2.1198
16133TIP3   OH269813   0.262   4.437   5.436 -0.2973  0.4384  0.3787
16133TIP3    H169814   0.269   4.481   5.520 -0.8992  0.6531  0.3190
16133TIP3    H269815   0.348   4.396   5.423 -1.0069 -1.8645  2.3313
16134TIP3   OH269816   3.237   1.241  15.063  0.4717  0.1578 -0.5562
16134TIP3    H169817   3.166   1.305  15.057  0.4160  0.1750  0.1815
16134TIP3    H269818   3.317   1.293  15.064  0.3668  0.4027  2.1360
16135TIP3   OH269819   5.794   4.969   3.539  0.1412 -0.1708 -0.2253
16135TIP3    H169820   5.878   5.012   3.522 -0.6987  1.9178  0.4780
16135TIP3    H269821   5.786   4.902   3.471  2.3727 -0.4536 -0.2680
16136TIP3   OH269822   6.095   1.195   1.911  0.1790  0.9262 -0.3137
16136TIP3    H169823   6.080   1.219   2.002  0.0330  3.5630 -0.9217
16136TIP3    H269824   6.110   1.279   1.867  1.5742 -0.3616 -2.4865
16137TIP3   OH269825   3.189   3.796   1.123 -0.4468  0.0516 -0.0941
16137TIP3    H169826   3.141   3.848   1.059  0.9753  0.2410 -1.0400
16137TIP3    H269827   3.179   3.843   1.206 -0.4374  0.9992 -0.6313
16138TIP3   OH269828   4.091   3.469  16.144 -0.3349 -0.0803 -0.0311
16138TIP3    H169829   4.052   3.554  16.166 -1.0226 -0.1481 -0.9083
16138TIP3    H269830   4.053   3.447  16.058  0.8022 -0.6851 -0.3984
16139TIP3   OH269831   5.709   0.032  12.898 -0.9452  0.3919 -0.0050
16139TIP3    H169832   5.719   0.013  12.804  2.0314 -1.3210  0.5054
16139TIP3    H269833   5.798   0.052  12.927 -1.7083  0.3966  2.5611
16140TIP3   OH269834   6.173   5.902  10.469  0.0667  0.4269 -0.6872
16140TIP3    H169835   6.183   5.973  10.405 -2.0550  0.3701 -1.1685
16140TIP3    H269836   6.136   5.945  10.546  0.9849  0.1963 -0.0952
16141TIP3   OH269837   2.026   5.845   4.916 -0.3688  0.6261 -0.4908
16141TIP3    H169838   2.100   5.896   4.885  1.8712 -1.8757  0.3282
16141TIP3    H269839   1.986   5.900   4.984  2.0011  1.2923  0.4680
16142TIP3   OH269840   1.196   6.704   1.007  0.5413 -0.5586 -0.2785
16142TIP3    H169841   1.172   6.710   1.099 -0.4867 -2.7455 -0.3437
16142TIP3    H269842   1.207   6.795   0.979  0.7114  0.1576  1.9347
16143TIP3   OH269843   0.139   1.271   2.995 -0.2860 -0.3992 -0.1289
16143TIP3    H169844   0.166   1.345   3.050  2.8720 -1.4874 -0.0143
16143TIP3    H269845   0.155   1.301   2.905  0.6646 -0.7789 -0.0981
16144TIP3   OH269846   0.838   1.847  13.969 -0.2105 -0.0911 -0.7121
16144TIP3    H169847   0.743   1.859  13.963 -0.4280 -1.8647 -1.2660
16144TIP3    H269848   0.874   1.923  13.923 -1.3563  0.4032 -0.8449
16145TIP3   OH269849   0.489   2.440   6.291 -0.2188 -0.9773  0.1635
16145TIP3    H169850   0.539   2.452   6.211 -1.0070 -3.0040 -0.7007
16145TIP3    H269851   0.548   2.468   6.361  0.7479  0.1391 -1.0543
16146TIP3   OH269852   4.557   5.331  12.587 -0.2268  0.0267 -0.0614
16146TIP3    H169853   4.528   5.254  12.636 -0.0141  1.0872  1.8130
16146TIP3    H269854   4.477   5.381  12.570 -0.1002  0.5310  0.7882
16147TIP3   OH269855   1.931   1.369  12.216  0.3543  0.4361  0.1048
16147TIP3    H169856   1.869   1.344  12.148  0.0506 -0.7013  0.7836
16147TIP3    H269857   1.996   1.299  12.216  1.0266  1.0531  0.1632
16148TIP3   OH269858   5.623   0.040  14.210  0.3340  0.4707 -0.2087
16148TIP3    H169859   5.650   0.126  14.179 -0.0900  0.9073  0.6148
16148TIP3    H269860   5.678   0.024  14.287 -0.0271  0.2757  0.0089
16149TIP3   OH269861   4.237   3.353  11.821  0.0265 -0.0590  0.7625
16149TIP3    H169862   4.157   3.307  11.847  0.2594 -1.2328 -0.5249
16149TIP3    H269863   4.262   3.314  11.737  2.8834 -0.9161  1.8791
16150TIP3   OH269864   1.862   0.765  14.110  0.1666 -0.8421 -0.5004
16150TIP3    H169865   1.806   0.738  14.183  1.9798 -0.5827  1.0447
16150TIP3    H269866   1.812   0.835  14.067 -1.5720 -1.9894 -0.4292
16151TIP3   OH269867   0.870   5.783  11.559 -0.1475  0.0845  0.3766
16151TIP3    H169868   0.902   5.720  11.494 -0.3636  0.8383 -0.4860
16151TIP3    H269869   0.871   5.867  11.513 -0.4137  0.6201  1.3235
16152TIP3   OH269870   2.974   4.775   1.404 -0.6879 -0.6812 -0.4762
16152TIP3    H169871   3.053   4.798   1.355  1.7149 -3.3035  1.7779
16152TIP3    H269872   2.961   4.848   1.464 -0.7610  0.3446 -1.7048
16153TIP3   OH269873   5.476   0.178   3.410  1.0221 -0.1185 -0.1427
16153TIP3    H169874   5.455   0.261   3.452  1.1591  0.2203 -0.7430
16153TIP3    H269875   5.403   0.161   3.351  0.3692 -1.0574  0.8767
16154TIP3   OH269876   4.151   2.948  13.449 -0.5113  0.1654  0.1570
16154TIP3    H169877   4.112   2.977  13.532  1.0481  1.0408  0.6384
16154TIP3    H269878   4.084   2.966  13.383 -1.1988  0.9273  1.0327
16155TIP3   OH269879   0.249   0.019   2.927  0.6058 -0.1015 -0.2242
16155TIP3    H169880   0.203   0.077   2.987 -0.1650 -0.5132 -0.3973
16155TIP3    H269881   0.329  -0.005   2.973  0.6688  0.6583  0.0709
16156TIP3   OH269882   1.210   1.573   0.224 -0.4722  0.3802  0.1199
16156TIP3    H169883   1.231   1.566   0.317 -0.3211 -2.5965 -0.0486
16156TIP3    H269884   1.240   1.660   0.199  1.1690  0.5690  2.4480
16157TIP3   OH269885   5.607   3.099   0.168  0.3825 -0.0395 -0.2011
16157TIP3    H169886   5.681   3.100   0.229  0.3590  0.8960 -0.1781
16157TIP3    H269887   5.640   3.143   0.090 -0.4072  1.1898  0.1292
16158TIP3   OH269888   5.190   4.074   2.673 -0.2786 -0.5999 -0.5188
16158TIP3    H169889   5.140   4.148   2.707  0.2645 -0.2840 -0.3922
16158TIP3    H269890   5.124   4.011   2.643 -0.7521 -0.4636  0.2250
16159TIP3   OH269891   3.120   4.070  14.965 -0.2092 -0.2403 -0.5218
16159TIP3    H169892   3.094   4.145  15.018  1.3876  2.5211 -3.2439
16159TIP3    H269893   3.073   3.996  15.002 -0.6940  1.7638  3.3577
16160TIP3   OH269894   3.663   4.736   5.511  0.1467  0.5507 -0.1645
16160TIP3    H169895   3.700   4.669   5.453  0.3680  0.8408 -0.3658
16160TIP3    H269896   3.604   4.688   5.569 -0.7902  0.3869 -1.2275
16161TIP3   OH269897   4.305   6.436   5.239  0.2147  0.5130  0.1063
16161TIP3    H169898   4.286   6.528   5.223 -1.6336  0.0702 -0.4753
16161TIP3    H269899   4.320   6.431   5.333 -2.2049  1.0527  0.5867
16162TIP3   OH269900   5.525   6.357   5.764 -0.6217  0.0371  1.0542
16162TIP3    H169901   5.600   6.377   5.819  0.7551 -0.3318 -0.6249
16162TIP3    H269902   5.478   6.440   5.756  0.4145  0.6246  0.9514
16163TIP3   OH269903   0.567   4.285  15.313  0.1803 -0.1922 -0.8508
16163TIP3    H169904   0.544   4.371  15.279 -1.3847  0.0066  0.5839
16163TIP3    H269905   0.581   4.299  15.407  0.3603 -1.4196 -0.6746
16164TIP3   OH269906   2.897   4.260  17.003  0.1625  0.0259  0.4737
16164TIP3    H169907   2.984   4.300  17.004 -0.2563  1.3371 -2.9720
16164TIP3    H269908   2.914   4.166  17.002  1.8443  0.1987 -3.2955
16165TIP3   OH269909   3.088   6.770   5.762 -0.1288  0.2888 -0.3233
16165TIP3    H169910   3.075   6.734   5.850 -0.8398 -1.2059 -1.0110
16165TIP3    H269911   3.001   6.797   5.734  0.3150  2.2133 -0.0157
16166TIP3   OH269912   5.999   2.036   5.624  0.1215 -0.5254 -0.4837
16166TIP3    H169913   5.919   2.042   5.675 -0.0864 -1.4210 -0.6797
16166TIP3    H269914   6.054   2.108   5.656 -0.1100 -0.9000  0.8187
16167TIP3   OH269915   4.214   2.522   1.963 -0.0665 -0.1436  0.3279
16167TIP3    H169916   4.280   2.588   1.942  1.1284 -1.6884 -1.0636
16167TIP3    H269917   4.131   2.571   1.964  0.7247  1.3215 -0.9247
16168TIP3   OH269918   1.435   2.075   3.395 -0.4660  0.2315 -0.7132
16168TIP3    H169919   1.343   2.066   3.421  0.0176  1.5301  1.7520
16168TIP3    H269920   1.479   2.000   3.436 -0.6490 -1.8418 -3.9087
16169TIP3   OH269921   1.278   1.802   3.170  0.1550 -0.0093  0.2902
16169TIP3    H169922   1.223   1.877   3.149  0.1483  0.0369  0.4701
16169TIP3    H269923   1.279   1.799   3.266  0.5880  0.0791  0.2884
16170TIP3   OH269924   6.744   4.838   2.744 -0.6147  0.2146  0.4957
16170TIP3    H169925   6.789   4.921   2.760 -0.8605  0.1736  1.4120
16170TIP3    H269926   6.668   4.840   2.802  0.2279 -1.3339  1.7144
16171TIP3   OH269927   1.016   1.473   2.355 -0.0819  0.2803  0.2562
16171TIP3    H169928   0.962   1.485   2.277  1.4934 -0.1164 -0.9489
16171TIP3    H269929   1.023   1.560   2.393  0.0873  0.6942 -0.7000
16172TIP3   OH269930   0.792   3.249  14.362 -0.4586  0.4382  0.6809
16172TIP3    H169931   0.860   3.288  14.418 -0.8326  1.0377  0.7252
16172TIP3    H269932   0.830   3.252  14.274 -0.2610  0.3821  0.7618
16173TIP3   OH269933   1.403   4.279   2.308 -0.0468 -0.4209 -0.0649
16173TIP3    H169934   1.387   4.268   2.402 -1.5776  0.0657 -0.2293
16173TIP3    H269935   1.470   4.347   2.303  0.2007 -0.5999  0.6743
16174TIP3   OH269936   6.120   0.599   6.052 -0.0278 -0.0686  0.1588
16174TIP3    H169937   6.142   0.507   6.040 -0.4969 -0.1834  0.1828
16174TIP3    H269938   6.078   0.603   6.138  0.9710  0.3400  0.6463
16175TIP3   OH269939   5.563   0.840  16.080 -0.6770 -0.2913  0.1593
16175TIP3    H169940   5.542   0.906  16.147 -2.4038 -2.2014  1.6231
16175TIP3    H269941   5.647   0.803  16.109 -0.4931  0.1570  0.2105
16176TIP3   OH269942   0.976   2.085  13.901  0.2303  0.1260 -0.1224
16176TIP3    H169943   0.902   2.126  13.945  0.1822  0.2846 -0.3507
16176TIP3    H269944   1.039   2.067  13.971  0.5965  1.3247 -0.1190
16177TIP3   OH269945   0.727   4.345   3.254 -0.3162  0.5598  0.4836
16177TIP3    H169946   0.672   4.292   3.196  1.0939 -0.4911  0.0464
16177TIP3    H269947   0.787   4.282   3.295  1.6080  1.8073 -0.2512
16178TIP3   OH269948   3.620   5.550   1.909  0.3869  0.4956 -0.2595
16178TIP3    H169949   3.594   5.589   1.993  1.3417 -0.3835  0.4656
16178TIP3    H269950   3.537   5.527   1.867 -0.1041  0.8617  0.4855
16179TIP3   OH269951   2.402   4.204   0.283  0.2073 -0.2833  0.0185
16179TIP3    H169952   2.324   4.255   0.258  1.7591  1.7460 -0.9618
16179TIP3    H269953   2.416   4.144   0.210  0.0606 -0.0534 -0.1984
16180TIP3   OH269954   4.469   4.557   3.862  0.0755 -0.2054  0.2139
16180TIP3    H169955   4.516   4.617   3.804  1.0086 -0.2628  0.8859
16180TIP3    H269956   4.532   4.536   3.931 -0.6389 -1.0134  0.6431
16181TIP3   OH269957   6.515   6.795  12.825 -0.3877  0.4496  0.0571
16181TIP3    H169958   6.437   6.851  12.827 -1.1814 -0.6204  0.1656
16181TIP3    H269959   6.482   6.711  12.793  0.8977  0.2221 -0.7233
16182TIP3   OH269960   3.580   1.855   2.642  0.3437 -0.3145  0.4080
16182TIP3    H169961   3.560   1.810   2.560  1.7213 -0.2745  0.0250
16182TIP3    H269962   3.568   1.948   2.622 -0.4180 -0.3588  0.5970
16183TIP3   OH269963   1.522   0.858  16.755 -0.0721 -0.3306 -0.2233
16183TIP3    H169964   1.473   0.940  16.755 -0.1029 -0.3506  0.2220
16183TIP3    H269965   1.547   0.846  16.663 -2.7476 -1.4231 -0.9061
16184TIP3   OH269966   5.957   3.881   3.786 -0.4972  0.1322  0.6638
16184TIP3    H169967   6.036   3.930   3.763 -0.4788  0.1529  0.7698
16184TIP3    H269968   5.964   3.868   3.881 -0.6876  0.2501  0.6924
16185TIP3   OH269969   2.304   1.567   1.530  0.2345 -0.7430  0.2630
16185TIP3    H169970   2.316   1.598   1.440 -0.2879  0.4289  0.5698
16185TIP3    H269971   2.323   1.644   1.584  2.2722 -1.8851  1.2732
16186TIP3   OH269972   2.960   1.696   3.472 -0.0106  0.1892 -0.6018
16186TIP3    H169973   2.892   1.632   3.493  1.0432 -1.0252 -0.7714
16186TIP3    H269974   3.004   1.661   3.395  0.7319  1.0261 -0.5822
16187TIP3   OH269975   3.825   1.950   4.799  0.4491 -0.5478  0.3199
16187TIP3    H169976   3.843   1.991   4.714  0.1703 -0.0002  0.5221
16187TIP3    H269977   3.757   1.885   4.781 -0.2479  0.1840  0.2788
16188TIP3   OH269978   2.698   1.793  14.450 -0.0373 -0.2293 -0.0249
16188TIP3    H169979   2.705   1.740  14.370  0.8409  0.1329 -0.2064
16188TIP3    H269980   2.731   1.879  14.424 -1.8171  0.5545  0.1565
16189TIP3   OH269981   2.020   6.722  15.301 -0.7342  0.2152  0.2633
16189TIP3    H169982   1.938   6.733  15.254  0.2256  2.0780 -1.0603
16189TIP3    H269983   2.024   6.628  15.320 -3.7860  0.2296  1.6275
16190TIP3   OH269984   3.661   5.412   2.525 -0.3966  0.3964 -0.2689
16190TIP3    H169985   3.662   5.507   2.516  1.1884  0.3162 -1.4471
16190TIP3    H269986   3.741   5.383   2.480 -0.3694 -1.4233  0.8517
16191TIP3   OH269987   4.480   1.580  16.562  1.1997 -1.1088 -0.5781
16191TIP3    H169988   4.513   1.666  16.590 -1.4118 -0.3738  0.5493
16191TIP3    H269989   4.431   1.598  16.483  0.2533 -1.4606 -0.0865
16192TIP3   OH269990   2.331   3.576   4.548  0.0797 -0.1484 -0.3617
16192TIP3    H169991   2.393   3.596   4.478  1.3421 -1.9766  0.1651
16192TIP3    H269992   2.347   3.484   4.568 -2.4928 -0.5451  0.1503
16193TIP3   OH269993   3.831   1.443   3.132  1.4279  0.2270  0.3051
16193TIP3    H169994   3.755   1.466   3.185  0.4164 -1.9900 -0.0458
16193TIP3    H269995   3.899   1.505   3.158 -0.3676  2.0512  0.8896
16194TIP3   OH269996   2.712   2.019  16.611  0.8081  0.4868  0.1143
16194TIP3    H169997   2.779   2.078  16.644  1.7161 -0.3264 -0.2475
16194TIP3    H269998   2.760   1.949  16.568 -0.2817  0.0955 -0.5172
16195TIP3   OH269999   5.852   3.975  12.190  0.0601 -0.4027 -0.0518
16195TIP3    H170000   5.870   3.918  12.116  1.4898 -2.3729  1.6996
16195TIP3    H270001   5.837   3.916  12.264  0.5813  1.4582  1.6636
16196TIP3   OH270002   4.938   4.453   1.893 -0.6420  0.0256 -0.0565
16196TIP3    H170003   4.871   4.513   1.927  0.1205  0.6017  0.4602
16196TIP3    H270004   4.917   4.369   1.933  0.1368  0.6496  1.7967
16197TIP3   OH270005   6.107   6.076  11.124  0.5615 -0.0538  0.1848
16197TIP3    H170006   6.121   6.030  11.041  1.1164 -0.3237  0.4255
16197TIP3    H270007   6.175   6.043  11.182  0.6774  0.7353  0.5095
16198TIP3   OH270008   1.948   2.197   6.546  0.5735 -0.2721  0.3728
16198TIP3    H170009   1.914   2.227   6.462  3.7035  0.6455 -0.7361
16198TIP3    H270010   1.885   2.228   6.611  0.8205  4.1565 -1.1627
16199TIP3   OH270011   5.871   3.034  12.355 -0.1483 -0.0954  0.0642
16199TIP3    H170012   5.834   3.046  12.267 -0.4721  1.7937  0.4054
16199TIP3    H270013   5.939   3.101  12.361 -0.7947  0.4539  1.5972
16200TIP3   OH270014   0.376   2.979   5.485 -0.0198 -0.2227  0.2383
16200TIP3    H170015   0.441   2.966   5.415 -1.2499  0.9952 -1.1892
16200TIP3    H270016   0.423   3.030   5.551  1.1828 -1.4382  0.3865
16201TIP3   OH270017   1.884   2.162   3.070  0.4070 -0.7427 -0.4053
16201TIP3    H170018   1.874   2.116   3.153  1.5360 -2.8639 -1.3816
16201TIP3    H270019   1.879   2.094   3.003 -0.0398  0.8485 -2.0875
16202TIP3   OH270020   1.310   1.791  12.915  0.0501 -0.2031  0.5668
16202TIP3    H170021   1.273   1.731  12.851  0.4747 -0.8168  0.8910
16202TIP3    H270022   1.247   1.793  12.986 -1.4029  1.9606 -0.6317
16203TIP3   OH270023   3.013   3.157  15.695 -0.0348 -0.1258  0.1721
16203TIP3    H170024   2.994   3.131  15.605 -0.0700  1.2419 -0.2367
16203TIP3    H270025   3.099   3.119  15.713 -0.1053 -0.5572 -0.3745
16204TIP3   OH270026   0.864   2.967  12.475  0.0773  0.3802 -0.6154
16204TIP3    H170027   0.772   2.965  12.449  0.0760 -2.1215 -0.6951
16204TIP3    H270028   0.909   3.012  12.404 -1.1921  2.9723  0.0901
16205TIP3   OH270029   6.640   3.007   0.376  0.2080  0.9784 -0.0121
16205TIP3    H170030   6.715   3.061   0.349  0.3125  0.7500 -0.1792
16205TIP3    H270031   6.563   3.059   0.352  0.2781  2.4074  2.4799
16206TIP3   OH270032   2.904   2.982   4.024  0.0589  0.3134  0.0627
16206TIP3    H170033   2.871   3.072   4.014 -2.4196 -0.6330 -1.0612
16206TIP3    H270034   2.987   2.993   4.071 -0.1331  3.1793 -0.0411
16207TIP3   OH270035   3.884   5.793  12.228 -0.4064  0.5559  0.3348
16207TIP3    H170036   3.866   5.805  12.135 -0.9667  1.1835  0.5113
16207TIP3    H270037   3.949   5.860  12.248  0.1165  0.0694  0.2855
16208TIP3   OH270038   3.697   1.370  16.586 -0.5650  0.5008  0.0594
16208TIP3    H170039   3.763   1.406  16.527 -0.3583  0.2290  0.1223
16208TIP3    H270040   3.616   1.371  16.536 -0.8553  2.2709  0.4817
16209TIP3   OH270041   3.734   5.546  10.980  0.2106 -0.4174  0.8419
16209TIP3    H170042   3.654   5.515  11.022 -0.2827 -0.7331 -0.2887
16209TIP3    H270043   3.804   5.527  11.043 -0.8192  1.8347  2.8002
16210TIP3   OH270044   3.525   1.532   5.235  0.0739 -0.0379  0.0272
16210TIP3    H170045   3.494   1.454   5.191 -0.9969  0.5236 -0.2595
16210TIP3    H270046   3.520   1.601   5.169  0.3609  0.4065  0.4586
16211TIP3   OH270047   2.197   3.147  14.576  0.2756 -0.6350 -0.5834
16211TIP3    H170048   2.156   3.174  14.494 -0.6008 -4.2353 -1.5254
16211TIP3    H270049   2.183   3.221  14.636 -3.0645  0.3701 -2.3632
16212TIP3   OH270050   2.075   5.973   1.852  0.5259  0.0567 -0.3268
16212TIP3    H170051   2.073   5.907   1.922 -0.0027  0.2756 -0.1307
16212TIP3    H270052   1.998   5.953   1.798  1.3421 -0.5798 -1.2904
16213TIP3   OH270053   2.116   1.097   5.153  0.6635  0.2888 -0.6710
16213TIP3    H170054   2.108   1.105   5.248  2.4749 -1.4511 -0.2871
16213TIP3    H270055   2.137   1.186   5.123 -0.1798  0.9079  0.5027
16214TIP3   OH270056   1.125   1.404   1.095  0.1304  0.1749  0.3718
16214TIP3    H170057   1.057   1.340   1.115 -1.6551  1.6595 -0.5923
16214TIP3    H270058   1.113   1.473   1.160 -1.6766  2.0867 -1.7980
16215TIP3   OH270059   2.682   1.174   1.362 -0.0623 -0.0675  0.3401
16215TIP3    H170060   2.656   1.223   1.440 -1.4560  0.7750 -0.6164
16215TIP3    H270061   2.612   1.109   1.350 -0.1490  0.1713 -0.5095
16216TIP3   OH270062   6.265   0.113  12.311 -0.5343 -0.5857  0.4092
16216TIP3    H170063   6.325   0.050  12.351  0.4100  0.3603  0.5188
16216TIP3    H270064   6.316   0.194  12.304 -1.9248  0.3621  0.8740
16217TIP3   OH270065   1.319   1.758   2.290  0.3161 -0.3575  0.7113
16217TIP3    H170066   1.269   1.817   2.345 -0.0113 -0.4389  0.5046
16217TIP3    H270067   1.348   1.689   2.349  2.0136  0.7891  1.2881
16218TIP3   OH270068   2.591   2.006  12.753  0.3371 -0.6413 -0.2965
16218TIP3    H170069   2.550   2.030  12.671  0.2200  0.2251  0.0103
16218TIP3    H270070   2.673   2.055  12.754  1.7140 -2.7668 -1.1701
16219TIP3   OH270071   0.207   1.660  11.489  0.6091 -0.1006  0.0746
16219TIP3    H170072   0.157   1.678  11.569  2.9841 -0.3041  1.6843
16219TIP3    H270073   0.143   1.618  11.430 -1.4143  0.7912  1.5094
16220TIP3   OH270074   2.452   0.060  12.872  0.2991 -0.1506  0.3574
16220TIP3    H170075   2.375   0.102  12.833  0.5548 -0.0416 -0.0387
16220TIP3    H270076   2.425  -0.030  12.888 -0.0562  0.0030  0.6408
16221TIP3   OH270077   4.714   0.076  11.991 -0.6862  0.3209 -0.2359
16221TIP3    H170078   4.706   0.081  12.086  0.8238  2.6827 -0.1530
16221TIP3    H270079   4.766  -0.003  11.975 -2.8929 -1.4206  0.6655
16222TIP3   OH270080   1.762   0.327  15.400  0.6242  0.2627  0.5597
16222TIP3    H170081   1.807   0.412  15.397  1.6793 -0.2954 -0.7962
16222TIP3    H270082   1.831   0.265  15.422  0.1112 -0.3747  0.3778
16223TIP3   OH270083   5.755   6.044   5.616 -0.5168  0.0354 -0.5293
16223TIP3    H170084   5.800   5.962   5.637  0.0678  0.2445 -0.9565
16223TIP3    H270085   5.818   6.112   5.637 -1.4218  0.4704  0.9975
16224TIP3   OH270086   3.191   4.820  12.837  0.5933 -0.4517  0.2045
16224TIP3    H170087   3.138   4.744  12.811  0.4942 -0.5876  0.7991
16224TIP3    H270088   3.268   4.783  12.880  1.4923 -0.2754 -1.1988
16225TIP3   OH270089   0.393   3.047   4.683  0.0033 -0.5893 -0.2276
16225TIP3    H170090   0.413   3.124   4.630  1.1542 -0.6920  0.0428
16225TIP3    H270091   0.419   3.071   4.772  0.0575 -1.1662 -0.0808
16226TIP3   OH270092   1.259   2.626  15.510 -0.0482 -0.3180  0.0338
16226TIP3    H170093   1.176   2.591  15.543  0.9275 -0.8864  2.0311
16226TIP3    H270094   1.273   2.578  15.428 -2.3533  0.8388 -1.1434
16227TIP3   OH270095   3.136   4.275   4.977 -0.0589 -0.0602 -0.9956
16227TIP3    H170096   3.192   4.352   4.969  0.1478  0.1069  1.4400
16227TIP3    H270097   3.090   4.270   4.893  0.3283  2.3667 -1.4247
16228TIP3   OH270098   2.006   0.878  14.899 -0.1114 -0.1186  0.0037
16228TIP3    H170099   2.084   0.840  14.858  0.2294 -1.1985  1.5652
16228TIP3    H270100   1.943   0.806  14.900 -0.2558  0.0080  0.9483
16229TIP3   OH270101   4.330   3.224   1.185 -0.2766 -0.3837 -0.1379
16229TIP3    H170102   4.368   3.304   1.222 -0.2820  0.2755 -1.5009
16229TIP3    H270103   4.382   3.153   1.222  1.6676  0.4354 -1.1884
16230TIP3   OH270104   4.017   4.451   1.415  0.1303 -0.2615  0.0131
16230TIP3    H170105   4.032   4.465   1.508  3.1152 -0.4248 -0.3482
16230TIP3    H270106   4.030   4.538   1.376 -0.2521 -0.3587 -0.3293
16231TIP3   OH270107   0.967   0.343  12.391  0.3357 -0.1067  0.7847
16231TIP3    H170108   0.955   0.438  12.388 -0.8300 -0.2476  0.0921
16231TIP3    H270109   1.018   0.327  12.470  0.3268  1.0771  1.0447
16232TIP3   OH270110   3.138   4.995   5.816 -0.1115  0.3819  0.7446
16232TIP3    H170111   3.206   5.060   5.801 -0.2597  0.1975 -0.9652
16232TIP3    H270112   3.166   4.919   5.764 -0.6320 -0.4272  1.6044
16233TIP3   OH270113   3.947   2.019   5.805  0.4867 -0.1569 -0.2810
16233TIP3    H170114   4.007   2.056   5.870 -0.3449  1.4176 -0.3597
16233TIP3    H270115   3.961   1.924   5.811  1.0639 -0.0027  1.5679
16234TIP3   OH270116   4.428   5.451   4.211  0.3800  0.8939  0.8694
16234TIP3    H170117   4.387   5.524   4.164 -0.7321 -0.2959 -0.0787
16234TIP3    H270118   4.478   5.405   4.145 -1.3373 -0.9079  0.7278
16235TIP3   OH270119   1.108   4.272  16.372 -0.1608 -0.2531 -0.4090
16235TIP3    H170120   1.093   4.291  16.464  2.2805  0.5855 -0.1307
16235TIP3    H270121   1.191   4.315  16.351 -0.8694 -0.0339 -3.1268
16236TIP3   OH270122   2.122   3.569   0.307  0.3261 -0.4530  0.1409
16236TIP3    H170123   2.209   3.603   0.327  0.5764 -1.1700  0.3345
16236TIP3    H270124   2.069   3.589   0.385  0.1988  0.3629 -0.1528
16237TIP3   OH270125   0.546   1.360   3.487  0.2162  0.0908 -0.1113
16237TIP3    H170126   0.495   1.436   3.463  0.8062  1.2991  2.1609
16237TIP3    H270127   0.626   1.396   3.527  1.3629 -1.7233 -0.6300
16238TIP3   OH270128   4.371   4.848   2.452  0.3364 -0.5451 -0.3030
16238TIP3    H170129   4.323   4.922   2.489  0.7703 -0.2292 -0.3556
16238TIP3    H270130   4.419   4.811   2.527  1.7655  0.5218 -0.6268
16239TIP3   OH270131   0.877   5.248  16.344  0.4821 -0.4037 -0.1437
16239TIP3    H170132   0.884   5.259  16.439  2.0303 -1.8733 -0.0330
16239TIP3    H270133   0.964   5.270  16.311  0.2975 -1.0379 -1.0904
16240TIP3   OH270134   1.250   4.868   1.376 -0.2550  0.0745  0.0420
16240TIP3    H170135   1.254   4.957   1.342 -1.7164 -0.1445 -0.7751
16240TIP3    H270136   1.229   4.814   1.299  1.4284 -1.0960  0.3576
16241TIP3   OH270137   5.927   4.527   5.833  0.3226 -0.0465  0.3318
16241TIP3    H170138   5.925   4.434   5.858  0.1845 -0.0019  0.4908
16241TIP3    H270139   5.971   4.570   5.906 -0.7314  0.1856  0.8451
16242TIP3   OH270140   5.908   2.935   2.977  0.4917  0.3396 -0.1618
16242TIP3    H170141   5.833   2.876   2.974 -0.4307  1.1512  3.1711
16242TIP3    H270142   5.877   3.017   2.938  0.6107 -0.1755 -1.3897
16243TIP3   OH270143   4.609   1.387  15.816 -0.2797  0.2398 -0.2369
16243TIP3    H170144   4.646   1.455  15.873  1.7985 -1.0244  0.0108
16243TIP3    H270145   4.685   1.344  15.777 -1.5774 -1.1322 -1.3731
16244TIP3   OH270146   4.154   4.882   5.476 -0.3522  0.0495 -0.2126
16244TIP3    H170147   4.190   4.918   5.557  0.1099  1.1891 -0.9035
16244TIP3    H270148   4.059   4.890   5.486 -0.2947  0.2158  0.2076
16245TIP3   OH270149   6.582   6.261  15.326  0.2522  0.0672  0.2386
16245TIP3    H170150   6.637   6.316  15.270  0.8815 -1.2433 -0.4627
16245TIP3    H270151   6.549   6.321  15.393 -1.5618  1.9942 -2.2067
16246TIP3   OH270152   6.018   5.552  16.175 -0.0726  0.2949 -0.0234
16246TIP3    H170153   5.988   5.484  16.114 -1.3439  1.0929 -0.3353
16246TIP3    H270154   6.082   5.508  16.231  0.7797 -0.5937 -1.6103
16247TIP3   OH270155   6.787   3.621  14.257  0.4881 -0.3976 -0.3816
16247TIP3    H170156   6.762   3.674  14.181  0.5004 -0.2225 -0.2635
16247TIP3    H270157   6.739   3.659  14.330 -0.3745 -1.2546 -0.4915
16248TIP3   OH270158   6.298   4.594  13.747 -0.2175 -1.0220  0.2759
16248TIP3    H170159   6.336   4.509  13.771  1.0053 -0.1558  1.5707
16248TIP3    H270160   6.213   4.595  13.791  0.4997 -0.9210  1.7485
16249TIP3   OH270161   4.026   4.253  13.731  0.0601 -0.2359  0.2355
16249TIP3    H170162   4.083   4.176  13.727 -0.5035 -0.6268 -0.8773
16249TIP3    H270163   4.072   4.320  13.680  0.1142 -0.1452  0.4049
16250TIP3   OH270164   1.941   1.701   3.837 -0.6565  0.0606 -0.6475
16250TIP3    H170165   1.860   1.649   3.836  0.4061 -1.6963 -1.9958
16250TIP3    H270166   2.004   1.646   3.883 -0.2699  1.5595  0.6897
16251TIP3   OH270167   0.165   2.786  11.095 -0.2903  0.1074  0.0186
16251TIP3    H170168   0.242   2.748  11.052 -0.8276  0.3055 -1.1393
16251TIP3    H270169   0.126   2.843  11.029 -1.9036 -0.6168  0.3107
16252TIP3   OH270170   4.987   6.267  16.394  0.2356  0.3804  0.0463
16252TIP3    H170171   4.940   6.305  16.320  0.7671  1.5969  0.3035
16252TIP3    H270172   5.074   6.247  16.359 -0.1008 -0.8215 -0.1376
16253TIP3   OH270173   6.095   5.835  12.753  0.1133  0.2457 -0.4162
16253TIP3    H170174   6.016   5.830  12.698  1.3340 -1.5509 -2.1408
16253TIP3    H270175   6.114   5.929  12.759 -1.1177  0.6006 -1.5069
16254TIP3   OH270176   3.013   5.958  15.933  0.3185  0.2197 -0.2747
16254TIP3    H170177   3.014   6.031  15.995 -0.0778  1.3302 -1.5306
16254TIP3    H270178   3.104   5.947  15.907  0.3114  0.6328 -0.4832
16255TIP3   OH270179   3.879   5.506   3.435  0.0620 -0.0723 -0.2882
16255TIP3    H170180   3.961   5.536   3.395  0.2056 -0.8629 -0.5924
16255TIP3    H270181   3.836   5.587   3.464  1.3552  0.3048  0.6883
16256TIP3   OH270182   5.583   3.035   3.684 -0.7373  0.1438  0.5002
16256TIP3    H170183   5.671   3.055   3.715 -0.3773  1.1025 -1.0394
16256TIP3    H270184   5.528   3.042   3.762  0.3707  0.7539  1.2499
16257TIP3   OH270185   4.550   4.548  12.453 -0.5238 -0.0681 -0.0027
16257TIP3    H170186   4.558   4.597  12.371  0.2404  0.1509  0.1950
16257TIP3    H270187   4.636   4.508  12.466 -0.6357 -0.1075  0.6835
16258TIP3   OH270188   5.669   4.463   5.651  0.0791  0.1107  0.0670
16258TIP3    H170189   5.643   4.412   5.728 -2.7107 -0.7809 -1.3005
16258TIP3    H270190   5.723   4.403   5.600  0.7000  0.1928  0.6129
16259TIP3   OH270191   5.791   4.276   5.483  0.2015 -0.2559  0.2264
16259TIP3    H170192   5.772   4.227   5.562 -0.0536 -0.0816  0.2735
16259TIP3    H270193   5.883   4.258   5.465  0.0887 -0.8202  0.1954
16260TIP3   OH270194   5.006   4.394   5.935  0.6703  0.1346 -0.1671
16260TIP3    H170195   4.999   4.385   5.840  2.1068  0.0017 -0.2794
16260TIP3    H270196   4.988   4.306   5.969  2.2235 -0.3248 -0.4679
16261TIP3   OH270197   6.090   2.344  12.053  0.5235 -0.2007 -0.0022
16261TIP3    H170198   6.000   2.315  12.063  1.2625 -2.6977  0.1081
16261TIP3    H270199   6.084   2.429  12.009 -1.8218 -0.8336 -1.0111
16262TIP3   OH270200   4.204   2.199   3.964 -0.3831 -0.0376 -0.1844
16262TIP3    H170201   4.236   2.270   3.907 -0.3674  0.2822  0.2222
16262TIP3    H270202   4.151   2.145   3.906 -0.1670  0.1492 -0.5661
16263TIP3   OH270203   2.559   4.026  11.389  0.0454 -0.6981  0.2061
16263TIP3    H170204   2.549   3.941  11.431  0.2516 -0.7535  0.1408
16263TIP3    H270205   2.530   4.012  11.299 -0.3853 -0.5826  0.3237
16264TIP3   OH270206   3.402   2.727  12.969 -0.7067  0.8169  0.0445
16264TIP3    H170207   3.410   2.774  12.886 -0.3261 -0.4651 -0.6701
16264TIP3    H270208   3.491   2.727  13.005 -0.8555  1.2995  0.4147
16265TIP3   OH270209   6.479   4.798   5.973 -0.1211  0.0772 -0.1433
16265TIP3    H170210   6.388   4.777   5.950 -0.6556  1.8432  0.2557
16265TIP3    H270211   6.472   4.853   6.051  1.1567  2.1293 -1.4076
16266TIP3   OH270212   2.824   4.767   0.411 -0.8014  0.7690 -0.0670
16266TIP3    H170213   2.737   4.730   0.396  0.2711 -1.8267 -0.3731
16266TIP3    H270214   2.846   4.741   0.500  0.4220 -0.3804 -0.6678
16267TIP3   OH270215   3.698   3.422   1.254  0.1430  0.3094  0.1663
16267TIP3    H170216   3.626   3.359   1.260  0.9974 -0.7522 -0.4398
16267TIP3    H270217   3.657   3.501   1.218 -0.6373 -0.4418 -0.6653
16268TIP3   OH270218   5.848   4.702  11.122  0.1204 -0.3746  0.1538
16268TIP3    H170219   5.811   4.620  11.088 -0.1468  0.1247 -0.8175
16268TIP3    H270220   5.896   4.677  11.200  0.3306 -1.5109 -0.3274
16269TIP3   OH270221   1.204   4.781  15.811 -0.5826 -0.0559  0.2316
16269TIP3    H170222   1.284   4.746  15.773  0.3719  0.4934  1.6556
16269TIP3    H270223   1.179   4.854  15.755 -0.0554 -0.2049 -0.1947
16270TIP3   OH270224   6.078   0.290   5.627 -0.5505 -0.1258  0.5817
16270TIP3    H170225   6.013   0.334   5.682 -0.9473 -0.2159  0.2003
16270TIP3    H270226   6.159   0.292   5.677  0.0500  3.0332 -0.3155
16271TIP3   OH270227   2.834   5.137  15.277  0.3416 -0.1641  0.8261
16271TIP3    H170228   2.870   5.151  15.189  1.0897 -0.9322  1.0032
16271TIP3    H270229   2.782   5.216  15.294  0.6921  0.2706 -0.0595
16272TIP3   OH270230   4.593   1.178  11.768 -1.0065 -0.4993  0.0648
16272TIP3    H170231   4.526   1.167  11.700 -0.5916  0.3223 -0.4906
16272TIP3    H270232   4.585   1.269  11.796 -0.6053 -0.5999  0.5167
16273TIP3   OH270233   5.490   6.422   0.499 -0.2360 -0.1489 -0.0269
16273TIP3    H170234   5.513   6.331   0.517  1.8686  0.1008 -1.2215
16273TIP3    H270235   5.549   6.473   0.553 -0.6268  0.5259 -0.2270
16274TIP3   OH270236   2.824   0.527  16.936 -0.5091  0.3944  0.2075
16274TIP3    H170237   2.730   0.532  16.921 -0.6474 -0.1681  0.8669
16274TIP3    H270238   2.841   0.594  17.003 -0.3693  0.7723 -0.1958
16275TIP3   OH270239   6.736   6.764  16.259 -0.5967 -0.9689 -0.3856
16275TIP3    H170240   6.819   6.717  16.271 -0.5956 -1.1717 -1.1531
16275TIP3    H270241   6.668   6.698  16.273 -0.5859 -1.4812 -2.4520
16276TIP3   OH270242   2.970   1.114   3.209  0.1789  0.4903 -0.5001
16276TIP3    H170243   2.961   1.071   3.124  1.6524 -0.3156 -0.2726
16276TIP3    H270244   3.005   1.046   3.267 -1.0107  0.9600  0.8246
16277TIP3   OH270245   5.291   1.419  16.312  0.2098  0.3721 -0.4400
16277TIP3    H170246   5.196   1.414  16.304  0.3233 -0.0061 -1.6655
16277TIP3    H270247   5.317   1.331  16.339  0.1517  0.7139  0.8076
16278TIP3   OH270248   5.916   5.606   0.143 -0.3487 -0.2714  0.2030
16278TIP3    H170249   6.011   5.599   0.149 -0.3647  0.0710  0.9026
16278TIP3    H270250   5.891   5.660   0.217 -1.2456 -1.7834  1.0555
16279TIP3   OH270251   0.400   0.738  14.435  0.2350  0.0551  0.8402
16279TIP3    H170252   0.492   0.735  14.459  0.1379 -0.9180  1.1163
16279TIP3    H270253   0.399   0.728  14.340  0.3721 -0.8296  0.9274
16280TIP3   OH270254   4.087   3.790  14.752 -0.5864  0.5084  0.8324
16280TIP3    H170255   4.035   3.757  14.679 -0.2882  2.0359 -0.0937
16280TIP3    H270256   4.082   3.720  14.818 -1.8373 -0.3800 -0.1617
16281TIP3   OH270257   0.007   4.687   6.229 -0.3756 -0.3246 -0.4887
16281TIP3    H170258   0.031   4.628   6.300 -0.2889 -0.8733 -0.9727
16281TIP3    H270259  -0.072   4.731   6.260 -0.9180 -1.2973 -0.4675
16282TIP3   OH270260   0.412   2.579   5.274  0.1040 -0.0370 -0.5055
16282TIP3    H170261   0.425   2.607   5.364 -0.3275  0.9975 -0.7467
16282TIP3    H270262   0.318   2.594   5.258 -0.2926 -2.1937 -0.4800
16283TIP3   OH270263   4.983   3.742  16.768  0.0486 -0.1786 -0.7520
16283TIP3    H170264   4.891   3.741  16.740  0.4575 -0.9490 -2.1555
16283TIP3    H270265   5.033   3.745  16.686  1.2924 -0.1372 -0.0191
16284TIP3   OH270266   5.945   3.660  14.087  0.4849 -0.1975 -0.7285
16284TIP3    H170267   5.885   3.629  14.155 -0.3638 -0.5172 -1.6048
16284TIP3    H270268   5.923   3.752  14.075  1.2686  0.1088  0.0660
16285TIP3   OH270269   6.756   5.125  15.909 -0.6799  0.9368 -0.4449
16285TIP3    H170270   6.751   5.206  15.959 -0.6726  0.1944  0.8205
16285TIP3    H270271   6.789   5.151  15.823  0.0429  2.1600  0.1819
16286TIP3   OH270272   3.460   3.810  16.953 -0.2739  0.3504 -0.3926
16286TIP3    H170273   3.553   3.791  16.964 -0.3973 -1.1617 -1.7015
16286TIP3    H270274   3.416   3.751  17.015 -0.3756  1.4461  0.6217
16287TIP3   OH270275   4.327   5.351  15.960  0.2114 -0.5797  0.1447
16287TIP3    H170276   4.372   5.267  15.969  0.4150 -0.2996  2.0481
16287TIP3    H270277   4.242   5.337  16.001  0.3614  0.2175  0.7425
16288TIP3   OH270278   3.509   4.633  16.258  0.1031 -0.3580 -0.3739
16288TIP3    H170279   3.491   4.723  16.285  1.4747 -0.0221 -0.5341
16288TIP3    H270280   3.422   4.594  16.246 -0.5422  1.4137 -1.9092
16289TIP3   OH270281   5.980   1.398   4.183  0.4408 -0.4358  0.3373
16289TIP3    H170282   5.915   1.335   4.212  0.3609 -0.6335 -0.2610
16289TIP3    H270283   6.012   1.364   4.100  1.2301 -0.2814  0.5673
16290TIP3   OH270284   5.861   5.509  10.788 -0.3446  0.4316 -0.3203
16290TIP3    H170285   5.862   5.425  10.833 -0.7821  0.4736 -0.2242
16290TIP3    H270286   5.930   5.503  10.723 -1.5893 -0.7390 -1.6069
16291TIP3   OH270287   1.628   1.824   4.903 -0.1026  0.1597 -0.8833
16291TIP3    H170288   1.651   1.915   4.919  0.5515 -0.1496  0.0375
16291TIP3    H270289   1.712   1.779   4.894 -0.3668 -0.5868  0.1474
16292TIP3   OH270290   3.465   4.552  15.440  0.5863 -0.3974  0.3316
16292TIP3    H170291   3.555   4.573  15.466  0.0963  2.4602  0.0541
16292TIP3    H270292   3.441   4.476  15.493  1.9093  1.0581  3.2417
16293TIP3   OH270293   1.544   5.440   4.608 -0.3278 -0.0098  0.3107
16293TIP3    H170294   1.469   5.390   4.641 -0.3467  0.3127  0.7634
16293TIP3    H270295   1.621   5.396   4.646 -0.2676 -0.4820 -0.3401
16294TIP3   OH270296   4.352   5.507  11.151 -0.1272 -0.2724 -0.0345
16294TIP3    H170297   4.301   5.532  11.228 -2.2956  0.3124 -1.5822
16294TIP3    H270298   4.290   5.462  11.094  1.1663  0.1628 -1.8747
16295TIP3   OH270299   2.886   1.235   2.875 -0.0225 -0.6629  0.3740
16295TIP3    H170300   2.962   1.179   2.891 -1.2455 -2.4260  0.3116
16295TIP3    H270301   2.841   1.194   2.801 -0.6409  0.7686 -0.0688
16296TIP3   OH270302   0.129   0.784   0.483  0.9663  0.4024  0.2063
16296TIP3    H170303   0.059   0.826   0.532 -0.0573  2.3530 -2.6890
16296TIP3    H270304   0.085   0.717   0.430  1.8376 -0.6848  0.8016
16297TIP3   OH270305   2.996   0.135  13.280  0.0721 -0.5001 -0.0227
16297TIP3    H170306   2.975   0.068  13.346  1.0557 -1.2037 -0.4160
16297TIP3    H270307   3.089   0.124  13.263 -0.2963 -0.8380 -2.0904
16298TIP3   OH270308   4.887   5.045  13.332  0.0234  0.4502  0.2464
16298TIP3    H170309   4.926   4.976  13.385  1.6462  1.1581  0.0413
16298TIP3    H270310   4.794   5.044  13.356  0.2703 -0.8296  1.2945
16299TIP3   OH270311   0.736   5.679  16.036  0.0879 -0.3191 -0.5461
16299TIP3    H170312   0.701   5.754  16.085  0.2699 -0.1099 -0.7348
16299TIP3    H270313   0.752   5.714  15.948 -1.2546 -0.9547 -1.0757
16300TIP3   OH270314   0.582   1.722   0.782  0.2092  1.2708  0.5905
16300TIP3    H170315   0.573   1.639   0.828  0.6595 -0.9917 -3.0427
16300TIP3    H270316   0.673   1.749   0.799 -0.1120  1.4196  2.2694
16301TIP3   OH270317   6.451   5.373   2.111 -0.0982 -0.1431  0.1030
16301TIP3    H170318   6.414   5.440   2.169  1.7298  0.4399  0.6679
16301TIP3    H270319   6.390   5.300   2.117 -1.6484  1.0986  0.2211
16302TIP3   OH270320   3.095   0.328   0.990  0.4065 -0.3408 -0.0047
16302TIP3    H170321   3.184   0.353   1.019  0.3733 -1.6032  1.3136
16302TIP3    H270322   3.037   0.371   1.054  0.1072 -0.1493 -0.4047
16303TIP3   OH270323   4.088   3.931  13.296 -0.3683 -0.0761 -0.1237
16303TIP3    H170324   4.103   4.017  13.335  1.3975 -0.0949 -0.6534
16303TIP3    H270325   4.115   3.869  13.363 -0.1757 -0.1783 -0.2943
16304TIP3   OH270326   1.258   0.839  14.109 -0.1200  0.0189 -0.3500
16304TIP3    H170327   1.228   0.765  14.055  0.4412  0.3117 -1.0779
16304TIP3    H270328   1.255   0.914  14.050  2.4789 -0.0025 -0.6453
16305TIP3   OH270329   4.511   2.749  15.371  0.6092 -0.8585  0.1734
16305TIP3    H170330   4.586   2.750  15.313  0.1125 -0.7996 -0.4824
16305TIP3    H270331   4.435   2.741  15.313 -0.2332  3.1135  0.4306
16306TIP3   OH270332   6.002   5.172  11.571  0.4304 -0.1324 -0.5498
16306TIP3    H170333   5.979   5.248  11.518 -0.4680  1.1906  1.5553
16306TIP3    H270334   6.097   5.178  11.583  0.1423  2.2971  1.6729
16307TIP3   OH270335   5.418   3.475  14.739 -0.1010  0.3599  0.2017
16307TIP3    H170336   5.384   3.434  14.818  2.7543 -1.0902  0.7959
16307TIP3    H270337   5.384   3.565  14.742 -1.3341 -0.1129  2.1996
16308TIP3   OH270338   1.469   0.633   1.050  0.3932  0.1420  0.2587
16308TIP3    H170339   1.450   0.715   1.096  0.6871  1.7933 -2.3965
16308TIP3    H270340   1.561   0.615   1.069  0.6568  1.0931 -0.0959
16309TIP3   OH270341   4.222   3.589  11.377  0.1602 -0.0822  0.1245
16309TIP3    H170342   4.248   3.498  11.392 -1.1518 -1.0553 -2.7252
16309TIP3    H270343   4.199   3.592  11.284 -1.1294  2.8548  0.4335
16310TIP3   OH270344   3.815   2.622  14.642  0.4973  0.3844 -0.8049
16310TIP3    H170345   3.775   2.653  14.723 -0.0854 -0.9398 -0.5781
16310TIP3    H270346   3.873   2.551  14.669 -0.9285 -1.1875 -1.6902
16311TIP3   OH270347   2.991   2.068   2.705 -0.1870 -0.1568 -0.5010
16311TIP3    H170348   2.994   2.163   2.720 -0.4445 -0.3101  0.6283
16311TIP3    H270349   2.898   2.049   2.691 -0.8125 -0.7477  3.3052
16312TIP3   OH270350   0.353   1.437   1.411 -0.1126 -0.0829 -0.9597
16312TIP3    H170351   0.375   1.346   1.392 -0.4829 -0.4090  0.1147
16312TIP3    H270352   0.262   1.447   1.383 -0.1392 -0.1016 -0.8796
16313TIP3   OH270353   4.262   6.076   6.010 -0.4725 -0.2551 -0.0637
16313TIP3    H170354   4.355   6.057   6.014 -0.9619 -3.0158  0.6346
16313TIP3    H270355   4.221   5.991   5.993 -2.9687  0.5563  1.3210
16314TIP3   OH270356   6.806   0.141   4.731 -0.2603  0.3137 -0.2663
16314TIP3    H170357   6.863   0.107   4.662 -0.9403  0.5608 -0.9559
16314TIP3    H270358   6.803   0.235   4.717 -1.4050  0.2320 -0.6853
16315TIP3   OH270359   3.351   4.156  15.196 -0.1647 -0.0334 -0.0370
16315TIP3    H170360   3.394   4.232  15.157  0.4807 -0.3372  0.0674
16315TIP3    H270361   3.297   4.193  15.266 -2.4812  0.6788 -2.0540
16316TIP3   OH270362   0.519   6.718   5.430  0.3680 -0.0864  0.6730
16316TIP3    H170363   0.466   6.791   5.460 -0.6799 -1.3810  2.0724
16316TIP3    H270364   0.572   6.755   5.359 -3.1465  1.0149 -1.5995
16317TIP3   OH270365   0.396   2.597   3.112 -0.3695  0.0415  0.2097
16317TIP3    H170366   0.476   2.606   3.061 -0.7302  0.5467 -0.2955
16317TIP3    H270367   0.363   2.510   3.090 -0.4278  0.1871 -0.2963
16318TIP3   OH270368   6.753   2.540  11.599 -0.1169 -0.0142  0.1086
16318TIP3    H170369   6.848   2.542  11.592 -0.0875 -1.0871  0.0211
16318TIP3    H270370   6.724   2.622  11.560  0.8089  0.7759  1.0140
16319TIP3   OH270371   0.414   0.005   5.117  0.7236 -0.3792 -0.2264
16319TIP3    H170372   0.384  -0.062   5.054 -2.0839  0.1050  0.4483
16319TIP3    H270373   0.417   0.086   5.066  0.2103 -0.3188 -0.1703
16320TIP3   OH270374   3.911   5.143   1.046  0.5499 -0.0722 -0.0750
16320TIP3    H170375   3.830   5.115   1.087  0.0756 -0.0401 -0.9640
16320TIP3    H270376   3.967   5.171   1.119 -0.1358 -0.3402  0.5606
16321TIP3   OH270377   3.814   3.465   4.157  0.0054 -0.0052  0.2955
16321TIP3    H170378   3.789   3.548   4.199  0.6684  0.5541 -0.3687
16321TIP3    H270379   3.836   3.407   4.230 -1.6233 -0.0072  0.8206
16322TIP3   OH270380   1.290   1.819  16.839 -0.0023 -0.0654  0.2321
16322TIP3    H170381   1.385   1.830  16.840  0.0645 -0.2462 -1.7146
16322TIP3    H270382   1.260   1.870  16.765 -1.4976  0.3263  1.0609
16323TIP3   OH270383   5.410   0.782  14.993  0.4934  0.4160 -0.3542
16323TIP3    H170384   5.424   0.688  14.976  0.1233  0.6275 -1.9914
16323TIP3    H270385   5.320   0.798  14.963  0.0461  1.0229  1.2386
16324TIP3   OH270386   1.576   5.941   6.222  0.0932  0.2446 -0.2981
16324TIP3    H170387   1.624   5.861   6.242 -0.4135  0.0004 -0.0147
16324TIP3    H270388   1.484   5.916   6.233 -0.0449  1.0113  0.3433
16325TIP3   OH270389   3.556   3.558   0.702 -0.4910 -0.1542 -0.2352
16325TIP3    H170390   3.516   3.481   0.744 -0.8844 -0.1124 -0.5334
16325TIP3    H270391   3.535   3.631   0.761 -0.6282 -0.1760 -0.2569
16326TIP3   OH270392   4.440   0.694  13.701 -0.0148  0.0569 -0.0844
16326TIP3    H170393   4.390   0.725  13.775 -0.8418 -0.6542 -0.3320
16326TIP3    H270394   4.378   0.645  13.648  1.2784 -2.3434  0.4726
16327TIP3   OH270395   0.696   1.083   3.794  0.8091 -0.7399  0.1188
16327TIP3    H170396   0.771   1.085   3.854  1.4035 -0.9891 -0.5973
16327TIP3    H270397   0.644   1.008   3.823  0.0362  0.3088  1.5410
16328TIP3   OH270398   1.294   3.313  16.528 -0.2688 -0.3930 -0.2829
16328TIP3    H170399   1.359   3.295  16.460 -0.3635  0.2184 -0.5396
16328TIP3    H270400   1.346   3.337  16.605 -0.1612 -1.0881 -0.1314
16329TIP3   OH270401   3.685   1.042  15.938  0.1327 -0.3561 -0.4801
16329TIP3    H170402   3.715   0.980  16.005  0.5467 -0.0809 -0.4039
16329TIP3    H270403   3.593   1.059  15.960 -0.1702 -1.4285 -0.8870
16330TIP3   OH270404   0.395   1.091   2.792 -0.1235  0.2833  0.3003
16330TIP3    H170405   0.426   1.119   2.878  0.5829 -2.5523  1.0543
16330TIP3    H270406   0.415   0.998   2.788 -1.7881 -0.0643 -2.2383
16331TIP3   OH270407   4.194   0.840  13.383 -0.0044 -0.9489  0.0726
16331TIP3    H170408   4.104   0.868  13.362  1.2086  2.8274 -0.8716
16331TIP3    H270409   4.210   0.768  13.322 -1.9154 -0.7121 -0.8088
16332TIP3   OH270410   4.279   2.396  12.453  0.0706  0.0465 -0.1157
16332TIP3    H170411   4.327   2.476  12.431 -0.3423  0.7301  1.3483
16332TIP3    H270412   4.270   2.350  12.369 -2.7153  3.1381 -1.7480
16333TIP3   OH270413   5.850   4.800   2.508 -0.5737  0.2007 -0.2414
16333TIP3    H170414   5.906   4.768   2.578 -0.0789  1.1360 -0.1886
16333TIP3    H270415   5.762   4.800   2.545 -0.3189  0.6467  0.3723
16334TIP3   OH270416   6.691   0.305  10.073  0.1685  0.2779 -0.1934
16334TIP3    H170417   6.744   0.317   9.994  0.7083  0.0609  0.1279
16334TIP3    H270418   6.754   0.305  10.145  0.1866 -3.0109 -0.0174
16335TIP3   OH270419   3.141   2.943   4.166  0.2382  0.4420  0.2414
16335TIP3    H170420   3.117   2.973   4.254 -0.8098 -1.9459  0.8430
16335TIP3    H270421   3.233   2.920   4.172 -0.1192 -0.8546  1.0971
16336TIP3   OH270422   6.614   0.952  15.266  0.0904 -0.3030 -0.0652
16336TIP3    H170423   6.578   1.037  15.291 -2.2051 -1.5727  1.3852
16336TIP3    H270424   6.708   0.961  15.275 -0.0916  2.0848 -0.0484
16337TIP3   OH270425   0.975   0.067  12.985  0.1545  0.3663 -0.3018
16337TIP3    H170426   0.977   0.096  12.894  3.7890 -1.3932 -0.9622
16337TIP3    H270427   1.027   0.132  13.032 -0.4134  0.4328  0.2521
16338TIP3   OH270428   0.885   4.263  15.693  0.5515 -0.1644  0.0129
16338TIP3    H170429   0.852   4.195  15.752 -0.9618  0.4987  0.0058
16338TIP3    H270430   0.979   4.249  15.689  0.7364 -0.2567  2.6066
16339TIP3   OH270431   2.901   3.071  15.469  0.3544 -0.3481  0.6757
16339TIP3    H170432   2.943   2.994  15.431  1.1172  0.6693 -0.6517
16339TIP3    H270433   2.882   3.127  15.394  0.1702  0.9343  1.6399
16340TIP3   OH270434   0.151   5.558   5.439 -0.0663 -0.1755 -0.0634
16340TIP3    H170435   0.085   5.493   5.464 -0.6172  0.5583  0.4211
16340TIP3    H270436   0.101   5.637   5.420  0.6869  0.4687  0.5545
16341TIP3   OH270437   5.905   4.065   0.247 -0.3930  0.2097 -0.0150
16341TIP3    H170438   5.861   4.142   0.208  1.1767  0.1372 -2.0781
16341TIP3    H270439   5.920   4.006   0.173 -2.3573 -2.5984  1.6346
16342TIP3   OH270440   0.786   4.190  16.450 -0.3891  0.0359  0.2767
16342TIP3    H170441   0.817   4.114  16.402 -0.0527  0.0044  0.5387
16342TIP3    H270442   0.857   4.211  16.511 -0.5489  0.4514  0.3280
16343TIP3   OH270443   0.164   4.639   2.438  0.2933 -0.2699 -0.1903
16343TIP3    H170444   0.247   4.620   2.481  0.4332 -1.1146 -0.7933
16343TIP3    H270445   0.123   4.706   2.492  1.1884 -0.1281  0.3337
16344TIP3   OH270446   5.583   5.051  11.020  0.2268 -0.1541 -0.1892
16344TIP3    H170447   5.505   5.107  11.020 -0.6042 -1.2381 -1.8761
16344TIP3    H270448   5.626   5.069  10.937  0.2957 -1.5100 -0.4739
16345TIP3   OH270449   2.190   0.173  11.781 -0.0462  0.4398 -0.1617
16345TIP3    H170450   2.155   0.091  11.816 -0.5535  0.3480 -0.8655
16345TIP3    H270451   2.283   0.157  11.769 -0.1288 -0.0049 -0.2078
16346TIP3   OH270452   2.998   2.602   1.791  0.3532 -0.4105 -0.2800
16346TIP3    H170453   3.042   2.595   1.706  0.5160 -0.0722 -0.2243
16346TIP3    H270454   3.002   2.695   1.813  0.9325 -0.5941  0.4261
16347TIP3   OH270455   6.129   0.501   4.618 -0.5440 -0.0122  0.2125
16347TIP3    H170456   6.171   0.503   4.704  0.6760 -0.0373 -0.3518
16347TIP3    H270457   6.052   0.557   4.627 -0.9217 -0.7206  1.5505
16348TIP3   OH270458   5.221   0.580   5.791 -0.4643 -0.6687  0.4850
16348TIP3    H170459   5.297   0.604   5.737 -1.2245 -1.3114 -0.9161
16348TIP3    H270460   5.250   0.503   5.839  0.8393  0.9305  2.4577
16349TIP3   OH270461   2.049   2.536   5.482  0.6602 -0.1587  0.1842
16349TIP3    H170462   2.074   2.608   5.423  0.1679  1.0207  1.3567
16349TIP3    H270463   2.115   2.537   5.551 -0.6817  0.8618  1.5489
16350TIP3   OH270464   1.305   4.127   1.260  0.7675  0.1026  0.8141
16350TIP3    H170465   1.363   4.125   1.184 -0.9173 -1.3583 -0.5140
16350TIP3    H270466   1.265   4.214   1.258  2.4118  0.9085  1.4080
16351TIP3   OH270467   5.445   4.074  10.158  0.1116  0.2567  0.1080
16351TIP3    H170468   5.503   4.049  10.230  1.9282  0.2504 -1.2980
16351TIP3    H270469   5.469   4.164  10.138 -0.6587  0.3946 -0.2409
16352TIP3   OH270470   3.417   2.090  12.152  0.0820  0.3756 -0.5146
16352TIP3    H170471   3.475   2.082  12.229 -0.8808  2.8461  0.5601
16352TIP3    H270472   3.471   2.060  12.079  1.5036 -0.7425  0.9018
16353TIP3   OH270473   1.947   0.530   5.827 -0.3291  0.5105  0.2031
16353TIP3    H170474   1.861   0.572   5.820 -2.4687 -3.1086  2.0352
16353TIP3    H270475   1.959   0.517   5.921 -0.0300 -3.0525 -0.2196
16354TIP3   OH270476   5.000   1.789   2.906 -0.5398 -0.0011  0.1208
16354TIP3    H170477   4.908   1.786   2.931 -0.6295 -1.3287 -0.3041
16354TIP3    H270478   5.000   1.817   2.815 -0.5045  0.2605  0.2009
16355TIP3   OH270479   3.082   6.259  15.012 -0.0902 -0.3556 -0.6107
16355TIP3    H170480   3.127   6.207  14.946  0.1215  0.0240 -0.7635
16355TIP3    H270481   3.014   6.306  14.964  1.6317  1.8540 -1.0169
16356TIP3   OH270482   4.659   2.249  12.077 -0.3317 -0.0670 -0.6115
16356TIP3    H170483   4.695   2.243  12.166 -0.8399 -0.5881 -0.4402
16356TIP3    H270484   4.736   2.247  12.021 -0.0401 -0.3613 -0.2092
16357TIP3   OH270485   5.065   1.205   0.243 -0.0198 -0.5685  0.0284
16357TIP3    H170486   5.131   1.274   0.232 -1.1033  0.5660  0.5343
16357TIP3    H270487   4.998   1.224   0.177 -0.5452 -0.8943  0.4586
16358TIP3   OH270488   1.355   3.552   5.940  0.7884  0.3662 -0.0187
16358TIP3    H170489   1.382   3.619   6.003 -0.8940  1.0579  0.0193
16358TIP3    H270490   1.307   3.488   5.993  2.4081 -0.9381 -0.0503
16359TIP3   OH270491   2.057   2.669  11.368  0.2371  0.1833  0.4818
16359TIP3    H170492   2.115   2.639  11.438 -0.4471 -0.6772  0.6976
16359TIP3    H270493   2.065   2.602  11.300  2.0699  1.7511 -0.9861
16360TIP3   OH270494   6.724   5.406   5.411  0.0424 -0.3118  0.1448
16360TIP3    H170495   6.650   5.347   5.401 -0.3410  0.2839 -0.6724
16360TIP3    H270496   6.795   5.365   5.361  0.0068 -0.4537  0.2104
16361TIP3   OH270497   1.222   2.661   4.984  0.1846  0.0208 -0.4290
16361TIP3    H170498   1.265   2.744   5.004  0.8368 -0.2415 -0.6823
16361TIP3    H270499   1.258   2.636   4.899 -1.4725  0.4282 -1.2771
16362TIP3   OH270500   5.665   3.497   4.974  0.7459 -0.4771 -0.4907
16362TIP3    H170501   5.755   3.478   4.947  0.7933 -0.3460 -0.4225
16362TIP3    H270502   5.671   3.578   5.025  0.4681  0.0316 -1.2434
16363TIP3   OH270503   1.821   4.907   6.160 -0.0534 -0.0973 -0.5272
16363TIP3    H170504   1.886   4.906   6.090 -0.1764 -1.0256 -0.6420
16363TIP3    H270505   1.833   4.823   6.205  1.1840  1.1645  1.6660
16364TIP3   OH270506   4.665   3.893  16.349 -0.1903 -0.2762 -0.5909
16364TIP3    H170507   4.707   3.830  16.290 -1.2376  0.2215 -1.9198
16364TIP3    H270508   4.640   3.966  16.292 -1.3173  0.1959  0.4567
16365TIP3   OH270509   2.431   0.238   5.606 -0.2254  0.2309 -0.2952
16365TIP3    H170510   2.487   0.186   5.663 -0.2955  0.5495  0.0691
16365TIP3    H270511   2.342   0.208   5.627 -0.1260 -1.7628 -2.3332
16366TIP3   OH270512   2.650   5.844   2.005  0.0720 -0.0172 -0.1396
16366TIP3    H170513   2.611   5.774   1.953  1.8951  0.9429 -3.0715
16366TIP3    H270514   2.719   5.801   2.055 -0.4606 -0.6756  0.0509
16367TIP3   OH270515   5.284   4.525  16.242 -0.2382 -0.2672 -0.0959
16367TIP3    H170516   5.371   4.545  16.206 -0.1148  0.9721  0.7973
16367TIP3    H270517   5.223   4.565  16.180 -0.1974 -1.2557 -0.7971
16368TIP3   OH270518   6.187   2.355   5.516  0.4077  0.8892 -0.1909
16368TIP3    H170519   6.135   2.320   5.588 -1.2163 -0.2703 -1.8246
16368TIP3    H270520   6.277   2.330   5.536 -0.1270 -0.1935  0.9840
16369TIP3   OH270521   0.336   0.258   4.895 -0.1737  0.7067 -0.2924
16369TIP3    H170522   0.304   0.302   4.974  2.0674  1.9772 -0.0038
16369TIP3    H270523   0.342   0.328   4.829 -0.5058 -0.0213 -1.1147
16370TIP3   OH270524   4.543   2.924   5.241  0.0160  0.2545  0.1214
16370TIP3    H170525   4.595   2.953   5.166  1.6776 -0.0300  1.1122
16370TIP3    H270526   4.606   2.883   5.299 -1.6171 -1.6763  0.6317
16371TIP3   OH270527   4.040   0.460  15.716 -0.3779  0.0621  0.1475
16371TIP3    H170528   4.004   0.527  15.774 -0.0083  1.0438 -0.7151
16371TIP3    H270529   4.135   0.473  15.720 -0.3521  0.2639 -0.7853
16372TIP3   OH270530   0.811   4.549   2.639  0.3118  0.8355 -0.1840
16372TIP3    H170531   0.781   4.476   2.693 -0.9817  1.4096 -0.0823
16372TIP3    H270532   0.829   4.509   2.554  1.4707  0.0849  0.3861
16373TIP3   OH270533   5.851   4.501   2.531 -0.1379 -0.2564  0.5273
16373TIP3    H170534   5.818   4.430   2.475  0.3331 -0.0877  0.0305
16373TIP3    H270535   5.783   4.568   2.527  0.7731  0.6242 -1.5033
16374TIP3   OH270536   4.926   3.357  16.563 -0.0254  0.2716 -0.0756
16374TIP3    H170537   4.896   3.287  16.620  0.8421  0.1159  0.1973
16374TIP3    H270538   4.869   3.431  16.583 -0.9298 -0.3368 -0.3445
16375TIP3   OH270539   2.139   3.242   1.798  0.1673  0.5723 -0.0859
16375TIP3    H170540   2.135   3.329   1.759  2.7169  1.1015  0.6446
16375TIP3    H270541   2.137   3.182   1.724 -0.5212  1.2814 -0.6617
16376TIP3   OH270542   1.028   0.130   1.484 -0.4701  0.3671 -0.5060
16376TIP3    H170543   1.017   0.215   1.526 -1.4711 -0.3352  0.7326
16376TIP3    H270544   1.115   0.101   1.512 -1.0058  0.0333  0.9422
16377TIP3   OH270545   4.121   0.176  14.767  0.8668 -0.0342 -0.2244
16377TIP3    H170546   4.180   0.244  14.735  1.8351 -1.2574 -1.1676
16377TIP3    H270547   4.052   0.170  14.701 -0.3110  1.3179  0.8227
16378TIP3   OH270548   5.103   1.210   1.765  0.4230  0.0624 -0.1570
16378TIP3    H170549   5.126   1.215   1.858 -1.8338 -1.9365  0.6166
16378TIP3    H270550   5.156   1.138   1.731 -2.0677 -2.4023  0.8453
16379TIP3   OH270551   3.934   4.440   1.813 -0.0893 -0.1343  0.7771
16379TIP3    H170552   3.856   4.390   1.788 -1.3558  1.7911  0.6957
16379TIP3    H270553   4.005   4.376   1.811 -1.5166 -1.7725  0.0642
16380TIP3   OH270554   3.659   5.880   5.956 -0.1721  0.2372  0.1797
16380TIP3    H170555   3.652   5.910   6.047 -1.3990  1.4131 -0.2715
16380TIP3    H270556   3.646   5.786   5.961 -0.0870  0.2665  1.2367
16381TIP3   OH270557   5.074   2.447   1.321 -0.6328 -0.1307 -0.1725
16381TIP3    H170558   5.055   2.417   1.232 -0.7648 -0.0581 -0.1697
16381TIP3    H270559   5.081   2.542   1.313 -1.2641 -0.0639  0.0018
16382TIP3   OH270560   1.141   4.080  12.268 -0.3897 -0.1292 -0.1239
16382TIP3    H170561   1.065   4.059  12.323  0.7337  1.7878  2.4070
16382TIP3    H270562   1.200   4.005  12.278  0.0470  0.4250  1.9158
16383TIP3   OH270563   5.135   4.241   0.400  0.1237 -0.7538  0.1817
16383TIP3    H170564   5.147   4.211   0.490  0.7979 -1.5481 -0.1527
16383TIP3    H270565   5.217   4.217   0.357  0.5845  1.3163 -0.1991
16384TIP3   OH270566   0.174   1.524   2.420  0.3536 -0.1677  0.3566
16384TIP3    H170567   0.207   1.545   2.333 -2.0403  0.6060 -0.4338
16384TIP3    H270568   0.208   1.593   2.476  1.1231 -0.1418 -0.1146
16385TIP3   OH270569   1.250   3.958   4.886  0.2597  0.1913 -0.5990
16385TIP3    H170570   1.191   3.896   4.930  0.8569 -0.1705 -0.3030
16385TIP3    H270571   1.193   4.005   4.825 -0.2771 -0.3689 -0.5423
16386TIP3   OH270572   5.177   6.702   2.605  0.0311  0.6437 -0.5287
16386TIP3    H170573   5.136   6.771   2.658 -0.2598  0.0670  0.0166
16386TIP3    H270574   5.114   6.684   2.536  0.5015  1.5446 -1.2032
16387TIP3   OH270575   5.781   1.532   5.798  0.2151 -0.3798 -0.0621
16387TIP3    H170576   5.715   1.600   5.785 -1.3617 -1.5255  1.4717
16387TIP3    H270577   5.805   1.504   5.710  1.5054  2.6017 -0.8056
16388TIP3   OH270578   0.898   4.457   0.890  0.1765 -0.3525 -0.8943
16388TIP3    H170579   0.890   4.532   0.949  0.0709 -0.7659 -0.3763
16388TIP3    H270580   0.828   4.398   0.917 -0.2344 -0.2926 -1.8179
16389TIP3   OH270581   2.450   4.678  11.643  0.1209 -0.1095  0.2611
16389TIP3    H170582   2.505   4.637  11.709  1.4456  1.1347 -0.0172
16389TIP3    H270583   2.429   4.607  11.582  1.3252 -0.6423  0.4450
16390TIP3   OH270584   0.525   3.200   5.318  0.1649  0.0902  0.1838
16390TIP3    H170585   0.493   3.239   5.236 -0.6085  1.5218  1.1085
16390TIP3    H270586   0.562   3.116   5.292 -0.5234  0.2767 -1.5586
16391TIP3   OH270587   4.996   3.045  15.595  0.3123 -0.0693  0.3850
16391TIP3    H170588   4.907   3.039  15.559 -0.4038 -2.4981  2.3059
16391TIP3    H270589   4.988   3.110  15.666  0.7345  1.5822 -1.0156
16392TIP3   OH270590   5.638   2.132  12.341 -0.0300 -0.2547 -0.3606
16392TIP3    H170591   5.595   2.146  12.426  2.3937  0.9923  0.7594
16392TIP3    H270592   5.570   2.152  12.277 -1.7349 -0.5202  1.2666
16393TIP3   OH270593   0.848   5.652  16.944 -0.0282  0.8980  0.0420
16393TIP3    H170594   0.929   5.643  16.995  0.7905  1.5032 -1.1018
16393TIP3    H270595   0.848   5.576  16.885  0.1443  1.3343 -0.5318
16394TIP3   OH270596   0.586   1.188   0.626  0.1836 -0.7545 -0.0549
16394TIP3    H170597   0.597   1.209   0.534  0.6059 -1.3735 -0.1548
16394TIP3    H270598   0.609   1.095   0.632  1.0050 -0.5093  0.8192
16395TIP3   OH270599   0.369   4.333   0.723 -0.5209  0.2728  0.1943
16395TIP3    H170600   0.438   4.273   0.750 -1.1629 -0.4731  0.2318
16395TIP3    H270601   0.288   4.282   0.733 -0.9880  0.7873 -0.7917
16396TIP3   OH270602   2.835   1.827   1.240  0.1714  0.1901 -0.4158
16396TIP3    H170603   2.867   1.916   1.259  0.6319 -0.2315  0.8359
16396TIP3    H270604   2.771   1.809   1.309 -0.1077 -0.3600 -0.8113
16397TIP3   OH270605   3.850   0.265   4.756  0.3033 -0.0928 -1.0867
16397TIP3    H170606   3.772   0.210   4.767  1.7890 -1.9882  0.8408
16397TIP3    H270607   3.909   0.213   4.702  1.7825 -0.5583  0.8598
16398TIP3   OH270608   3.633   1.607   2.783 -0.0516 -0.4254  0.9244
16398TIP3    H170609   3.655   1.665   2.856 -0.2239  0.3581  0.3737
16398TIP3    H270610   3.605   1.667   2.713 -2.8140 -1.2440  1.1794
16399TIP3   OH270611   1.784   5.910   3.736 -0.5073 -0.0181 -0.2335
16399TIP3    H170612   1.826   5.910   3.822 -0.3667 -0.2936 -0.3013
16399TIP3    H270613   1.697   5.872   3.752 -0.6307  0.2969 -0.1438
16400TIP3   OH270614   5.672   5.701   2.890  0.4906  0.8473  0.4943
16400TIP3    H170615   5.699   5.626   2.837 -0.3832 -0.7213  2.1771
16400TIP3    H270616   5.655   5.665   2.977 -1.8616  2.6495  0.8948
16401TIP3   OH270617   6.074   1.911   4.180  0.6313  0.8652 -0.0865
16401TIP3    H170618   5.988   1.901   4.141  0.9904 -0.7680 -0.5563
16401TIP3    H270619   6.119   1.828   4.161  1.4872  0.7382  2.1549
16402TIP3   OH270620   3.537   4.174  16.341 -0.3984 -0.5945 -0.2609
16402TIP3    H170621   3.538   4.186  16.436  1.9217 -1.0067 -0.1852
16402TIP3    H270622   3.449   4.143  16.322 -1.0136 -0.1961  1.7097
16403TIP3   OH270623   1.477   6.249  13.424  0.1426 -0.4584  0.0460
16403TIP3    H170624   1.515   6.161  13.431 -0.6059 -0.7384  0.8392
16403TIP3    H270625   1.548   6.307  13.452  0.8739 -0.7332 -1.1614
16404TIP3   OH270626   2.710   2.838   3.754 -0.1717  0.2564  0.4036
16404TIP3    H170627   2.689   2.786   3.831 -0.4796 -0.3027 -0.0480
16404TIP3    H270628   2.721   2.773   3.684 -1.7705  0.8553 -0.4463
16405TIP3   OH270629   4.313   2.181  16.171  0.1720 -0.0827  0.0691
16405TIP3    H170630   4.258   2.134  16.108  0.1488 -0.4027  0.3262
16405TIP3    H270631   4.280   2.155  16.257  1.1482 -0.8146  0.2448
16406TIP3   OH270632   0.491   2.174   5.822 -0.0222 -0.4019  0.2387
16406TIP3    H170633   0.479   2.260   5.863  0.1315 -0.6234  0.7580
16406TIP3    H270634   0.511   2.116   5.895  0.1122 -0.8342 -0.1415
16407TIP3   OH270635   5.864   1.263  16.672 -0.4594 -0.2167  0.1726
16407TIP3    H170636   5.854   1.354  16.699  1.3337  0.2527 -0.5988
16407TIP3    H270637   5.787   1.246  16.617 -0.5127  1.0199 -0.1689
16408TIP3   OH270638   1.235   2.217   2.897  0.5135  0.0515 -0.3748
16408TIP3    H170639   1.300   2.157   2.934  0.8693  1.7630  2.0705
16408TIP3    H270640   1.271   2.244   2.813  0.8954 -2.1869 -0.9929
16409TIP3   OH270641   1.398   4.164  13.399  0.0322 -0.0343  0.2387
16409TIP3    H170642   1.420   4.080  13.438  1.6797 -0.6106 -1.7260
16409TIP3    H270643   1.483   4.201  13.373 -0.7971  1.3992 -0.5743
16410TIP3   OH270644   5.436   6.708   0.962  0.0713 -0.3088 -0.1132
16410TIP3    H170645   5.495   6.782   0.947 -0.0155  0.0703  1.2684
16410TIP3    H270646   5.493   6.634   0.979  0.1632 -0.1245  0.4015
16411TIP3   OH270647   4.297   4.305   5.146  0.0351  0.0521 -0.4004
16411TIP3    H170648   4.368   4.280   5.205 -1.8775 -2.8085  0.9072
16411TIP3    H270649   4.331   4.286   5.058  1.0227 -0.8821  0.1576
16412TIP3   OH270650   4.257   4.330   5.897  0.0641 -0.1504  0.0177
16412TIP3    H170651   4.193   4.281   5.948 -0.8369  1.8806  0.9600
16412TIP3    H270652   4.325   4.353   5.960 -0.8688  2.0597  0.3192
16413TIP3   OH270653   2.171   0.267  11.519  0.4037  0.1195 -0.0859
16413TIP3    H170654   2.169   0.362  11.530 -0.7017  0.1186 -0.1644
16413TIP3    H270655   2.167   0.232  11.608  4.5740  0.1049  0.2524
16414TIP3   OH270656   6.779   3.566   0.736 -0.6993  0.0045  0.0662
16414TIP3    H170657   6.865   3.599   0.764 -0.1955 -0.2281 -1.1286
16414TIP3    H270658   6.716   3.616   0.788  0.1040  1.5907 -0.4148
16415TIP3   OH270659   2.327   5.069  11.584  0.5508 -0.2245  0.1101
16415TIP3    H170660   2.340   5.069  11.489 -0.5657 -0.4253 -0.0565
16415TIP3    H270661   2.273   5.146  11.600  1.1645  0.1059  0.6617
16416TIP3   OH270662   1.665   6.463   5.593  0.4668  0.6480 -0.4893
16416TIP3    H170663   1.725   6.457   5.519  1.9775 -0.9347  0.7690
16416TIP3    H270664   1.721   6.454   5.670 -1.0472  2.2243  0.8725
16417TIP3   OH270665   5.432   3.292   0.249  0.0387  0.3909  0.5432
16417TIP3    H170666   5.381   3.232   0.304  1.2361 -0.5880  0.6239
16417TIP3    H270667   5.503   3.238   0.213  0.7005  1.5803 -0.0072
16418TIP3   OH270668   2.344   5.936   2.446 -0.4931  0.1186  0.0900
16418TIP3    H170669   2.377   5.921   2.358 -0.8307  1.6866 -0.3311
16418TIP3    H270670   2.422   5.950   2.500 -0.3484  1.3625 -0.4144
16419TIP3   OH270671   5.793   2.098   2.695 -0.4611  0.0408  0.5504
16419TIP3    H170672   5.735   2.165   2.731 -0.8121  0.6654 -1.0738
16419TIP3    H270673   5.871   2.146   2.667  0.0482 -0.5136  0.9937
16420TIP3   OH270674   5.979   2.928   6.048  0.1692  0.0682 -0.3784
16420TIP3    H170675   5.981   3.016   6.084  0.2104  2.0657 -4.6571
16420TIP3    H270676   5.892   2.919   6.010  0.6781 -1.0900 -1.3680
16421TIP3   OH270677   6.048   5.617  13.153 -0.0959 -0.0014 -0.5321
16421TIP3    H170678   5.968   5.595  13.201  0.7080 -0.8984  0.4658
16421TIP3    H270679   6.056   5.712  13.162  1.7285 -0.3283  4.1456
16422TIP3   OH270680   2.915   5.691  14.701  0.1601 -0.0705 -0.1458
16422TIP3    H170681   2.929   5.749  14.626  0.7262 -0.2340 -0.1700
16422TIP3    H270682   2.869   5.615  14.664  1.2279 -0.5535 -0.5044
16423TIP3   OH270683   3.033   3.099   0.986  0.0070  0.2140  0.5821
16423TIP3    H170684   2.960   3.058   0.941  0.4571  0.1749 -0.1251
16423TIP3    H270685   3.086   3.025   1.018  0.4700  0.2334 -0.1211
16424TIP3   OH270686   5.542   1.264  16.135  0.6098  0.2090  0.5090
16424TIP3    H170687   5.536   1.322  16.212  0.1952  3.1769 -1.5776
16424TIP3    H270688   5.509   1.180  16.166  0.6959  1.1905  3.6256
16425TIP3   OH270689   3.750   3.418   0.053 -0.0496 -0.2327  0.7621
16425TIP3    H170690   3.843   3.397   0.067 -0.4279 -2.0506  0.8967
16425TIP3    H270691   3.728   3.377  -0.030 -0.5116  1.0549  0.2266
16426TIP3   OH270692   6.570   6.008  12.799 -0.5284  0.0770  0.3407
16426TIP3    H170693   6.512   6.028  12.872 -0.6229 -1.7635  0.8172
16426TIP3    H270694   6.632   5.944  12.834  0.5891  0.5338 -0.6960
16427TIP3   OH270695   3.782   3.752   2.926 -0.5287 -0.0755  0.1166
16427TIP3    H170696   3.702   3.720   2.967  0.4066 -2.1946  0.3932
16427TIP3    H270697   3.833   3.789   2.998 -0.3946 -0.5763  0.2795
16428TIP3   OH270698   1.943   5.851   6.062  0.7230  0.9108  0.5888
16428TIP3    H170699   1.870   5.815   6.111  0.6960 -0.0269 -0.1046
16428TIP3    H270700   2.020   5.829   6.114  0.6209  0.6879  0.6462
16429TIP3   OH270701   4.231   2.064  12.454  0.3323 -0.1639  0.2413
16429TIP3    H170702   4.172   2.112  12.396 -0.3402 -0.4874  0.6369
16429TIP3    H270703   4.309   2.048  12.402  0.0801  0.2958 -0.2890
16430TIP3   OH270704   6.622   4.646   0.825  0.2309  0.5841 -0.2268
16430TIP3    H170705   6.672   4.714   0.871  0.9864 -0.1489  0.0659
16430TIP3    H270706   6.590   4.689   0.746  0.7800  1.2493 -0.0991
16431TIP3   OH270707   5.120   4.693  13.552 -0.4859 -0.5047 -0.2258
16431TIP3    H170708   5.195   4.752  13.553 -0.6831 -0.1441 -2.2934
16431TIP3    H270709   5.152   4.613  13.594 -0.1168  0.8680  2.3420
16432TIP3   OH270710   2.279   3.595   2.291 -0.1411  0.0391  0.0647
16432TIP3    H170711   2.278   3.552   2.206 -0.0173 -0.2960  0.2313
16432TIP3    H270712   2.310   3.528   2.352 -1.5063 -0.1424  0.5958
16433TIP3   OH270713   3.972   0.905  16.751 -0.0897  0.2912 -0.5541
16433TIP3    H170714   4.017   0.892  16.668 -0.4992 -0.1486 -0.7123
16433TIP3    H270715   3.977   0.999  16.767 -0.2710  0.4193 -1.2266
16434TIP3   OH270716   5.557   0.015  10.615  0.1815 -0.0474 -0.2094
16434TIP3    H170717   5.516  -0.045  10.552 -1.3076  0.6563  0.0384
16434TIP3    H270718   5.646   0.027  10.583  0.3474 -1.9771 -0.5444
16435TIP3   OH270719   0.234   5.617  11.593 -0.1690  0.3940 -0.3974
16435TIP3    H170720   0.167   5.606  11.526  1.5402 -1.0221 -1.9767
16435TIP3    H270721   0.247   5.530  11.629 -0.4593  0.9878  1.2650
16436TIP3   OH270722   6.115   2.341   1.295 -0.5296 -0.2124 -0.0835
16436TIP3    H170723   6.019   2.339   1.285 -0.7454  0.0223  1.6330
16436TIP3    H270724   6.137   2.253   1.325 -0.4939  0.2991  1.4962
16437TIP3   OH270725   0.108   0.255   0.755  0.0524 -0.1548 -0.3233
16437TIP3    H170726   0.042   0.187   0.746 -0.5726  0.6184 -1.9650
16437TIP3    H270727   0.187   0.217   0.716  0.0714 -0.4007 -0.0497
16438TIP3   OH270728   6.176   4.900  11.500  0.2252  0.4341  0.0493
16438TIP3    H170729   6.204   4.988  11.526  1.9477  0.2093 -0.8418
16438TIP3    H270730   6.135   4.913  11.415  0.1010  0.4340  0.1102
16439TIP3   OH270731   0.052   0.917   6.143 -0.1674  0.4387  0.6186
16439TIP3    H170732  -0.019   0.853   6.138 -1.1908  1.5101  0.8768
16439TIP3    H270733   0.095   0.898   6.226 -1.5559  1.1409  1.5492
16440TIP3   OH270734   5.074   2.652   4.857 -0.2495 -0.0469  0.4112
16440TIP3    H170735   5.153   2.599   4.871  0.0909  0.3023 -0.1300
16440TIP3    H270736   5.085   2.687   4.769 -0.5636  0.7648  0.6901
16441TIP3   OH270737   6.326   4.874   4.650  0.5282  0.3470  0.3389
16441TIP3    H170738   6.413   4.912   4.642  1.1530 -1.2838 -1.6579
16441TIP3    H270739   6.342   4.783   4.675 -0.5626 -0.0286 -0.2412
16442TIP3   OH270740   2.207   4.433  12.445  0.1665 -0.2656  0.4571
16442TIP3    H170741   2.186   4.341  12.460  2.2492 -0.8728 -0.1147
16442TIP3    H270742   2.227   4.467  12.532  0.4508 -0.6500  0.5465
16443TIP3   OH270743   2.631   6.560   5.891  0.1500 -0.2001 -0.1919
16443TIP3    H170744   2.541   6.578   5.920  0.1430 -0.0319 -0.3158
16443TIP3    H270745   2.639   6.465   5.896 -1.2968 -0.6727 -3.8384
16444TIP3   OH270746   6.600   4.213  12.536  0.4919 -0.4180 -0.9237
16444TIP3    H170747   6.674   4.240  12.481  0.2453 -0.3472 -1.2256
16444TIP3    H270748   6.524   4.221  12.479  0.2108 -0.1905 -0.5228
16445TIP3   OH270749   6.615   0.955   4.959 -0.2723  0.6113  0.0138
16445TIP3    H170750   6.556   1.002   4.901  0.5899  2.9395  0.9128
16445TIP3    H270751   6.703   0.973   4.925  0.1052 -0.0823  0.5850
16446TIP3   OH270752   5.715   4.749   5.809  0.6255  0.0718 -0.0557
16446TIP3    H170753   5.638   4.789   5.850  1.5393  0.6798  1.1022
16446TIP3    H270754   5.781   4.747   5.877  2.6982  2.3917 -1.8286
16447TIP3   OH270755   5.550   5.667   1.086 -0.1632 -0.1964 -0.0134
16447TIP3    H170756   5.485   5.735   1.105 -0.8214 -1.1105  1.1225
16447TIP3    H270757   5.524   5.594   1.141  0.7729 -1.2340 -0.9179
16448TIP3   OH270758   6.387   6.553   4.897 -0.1389 -0.1773 -0.1911
16448TIP3    H170759   6.355   6.493   4.828  2.6209 -1.2387 -0.6627
16448TIP3    H270760   6.481   6.560   4.881 -0.0427  2.8621  1.0311
16449TIP3   OH270761   5.965   6.738   0.586  0.2238 -0.0910  0.6476
16449TIP3    H170762   5.949   6.808   0.523 -1.2102  2.1978  3.3487
16449TIP3    H270763   6.059   6.719   0.577  0.4425  1.4572 -0.8553
16450TIP3   OH270764   5.779   2.637   0.520 -0.3091  0.2192 -0.5223
16450TIP3    H170765   5.727   2.716   0.510 -0.7146  0.0153 -0.0733
16450TIP3    H270766   5.860   2.655   0.472 -0.1336  1.1458  0.0920
16451TIP3   OH270767   1.717   1.621   1.733  0.4098 -0.2675 -0.2927
16451TIP3    H170768   1.728   1.684   1.662 -0.0458  0.6058  0.3833
16451TIP3    H270769   1.657   1.555   1.698 -1.4421  1.2278 -0.0868
16452TIP3   OH270770   5.536   3.718   4.169  0.4881  0.5770 -0.1801
16452TIP3    H170771   5.512   3.778   4.239  1.8050  0.4297  0.4326
16452TIP3    H270772   5.489   3.637   4.190 -0.2955  0.9928 -0.3081
16453TIP3   OH270773   2.220   5.464  13.548 -0.1037  0.3125 -0.1883
16453TIP3    H170774   2.201   5.372  13.570 -1.6320  0.1326 -2.0587
16453TIP3    H270775   2.310   5.462  13.515 -0.2747 -0.6040 -0.6296
16454TIP3   OH270776   6.801   5.508   3.952  0.0267  0.1144  0.8251
16454TIP3    H170777   6.783   5.560   3.873 -0.9309 -0.8970  0.3427
16454TIP3    H270778   6.819   5.572   4.020 -4.0030  1.3256  1.0173
16455TIP3   OH270779   3.672   4.461  16.615  0.3986 -0.2458  0.2520
16455TIP3    H170780   3.606   4.530  16.607  1.0155  0.3289  0.0270
16455TIP3    H270781   3.714   4.458  16.529  1.2303 -0.0153  0.6398
16456TIP3   OH270782   1.543   5.378  15.291 -0.6499 -0.4145  0.0232
16456TIP3    H170783   1.518   5.355  15.201 -0.2702 -0.7941  0.0098
16456TIP3    H270784   1.509   5.307  15.345 -1.5015  0.1653  0.2810
16457TIP3   OH270785   4.057   4.785  15.475 -0.0548  0.3576  0.2945
16457TIP3    H170786   4.052   4.695  15.506 -1.3620  0.9715  2.0549
16457TIP3    H270787   3.999   4.834  15.534  1.3803  2.5287  0.0400
16458TIP3   OH270788   1.450   3.523  12.880 -0.1729  0.1952 -0.0475
16458TIP3    H170789   1.470   3.526  12.786  2.0617  1.9619  0.3838
16458TIP3    H270790   1.361   3.558  12.887 -0.3172  0.1693 -1.4798
16459TIP3   OH270791   1.289   6.362  16.213  0.0468  0.1612 -0.4436
16459TIP3    H170792   1.236   6.296  16.169  0.5803  0.5197 -1.6805
16459TIP3    H270793   1.295   6.434  16.150  0.6710  0.7790  0.3015
16460TIP3   OH270794   3.656   6.220   4.207  0.3147 -0.1322 -0.1130
16460TIP3    H170795   3.643   6.132   4.244 -1.7765  0.4290  0.5768
16460TIP3    H270796   3.648   6.279   4.282 -0.0817  0.7614 -0.8464
16461TIP3   OH270797   5.024   1.856   5.590 -0.1382 -0.2526 -0.5413
16461TIP3    H170798   5.071   1.797   5.531  2.1616  1.5272 -0.6521
16461TIP3    H270799   4.996   1.929   5.534  0.4523  0.5855  0.2216
16462TIP3   OH270800   2.320   2.028  14.024  0.1558  0.5487  0.0506
16462TIP3    H170801   2.290   2.086  13.954  1.0697  0.2422 -0.6215
16462TIP3    H270802   2.387   1.973  13.982  0.7498  0.3888  1.1743
16463TIP3   OH270803   5.808   5.949   4.185  0.3713  0.4583 -0.4212
16463TIP3    H170804   5.879   5.908   4.234  1.8305  0.7660 -2.1698
16463TIP3    H270805   5.730   5.935   4.239  1.4717 -1.2567  0.8181
16464TIP3   OH270806   4.198   1.325  12.545  0.2367  0.1772 -0.4755
16464TIP3    H170807   4.242   1.373  12.475  0.0842 -2.4031 -2.4923
16464TIP3    H270808   4.269   1.284  12.595  0.3200  1.6032  0.6466
16465TIP3   OH270809   5.197   2.015  12.009 -0.4566  0.2014  0.1182
16465TIP3    H170810   5.188   1.920  12.019 -0.1150  0.2303  0.7531
16465TIP3    H270811   5.245   2.026  11.927 -1.9854 -0.1088 -0.8464
16466TIP3   OH270812   5.987   5.248  13.245  0.1892  0.0224 -0.5525
16466TIP3    H170813   5.939   5.319  13.286 -1.2630 -0.6296 -1.0683
16466TIP3    H270814   5.938   5.169  13.268  0.6270 -0.5899 -1.6610
16467TIP3   OH270815   4.848   4.506   1.235 -0.2235  0.2066  0.6171
16467TIP3    H170816   4.889   4.500   1.322 -2.3732 -1.1089  1.6043
16467TIP3    H270817   4.921   4.495   1.174  1.0338 -1.1607  2.2674
16468TIP3   OH270818   0.325   3.636  13.479 -0.3397  0.3045 -0.1929
16468TIP3    H170819   0.386   3.706  13.501 -0.4449  0.3753 -0.1233
16468TIP3    H270820   0.330   3.576  13.554 -0.1366  0.1582 -0.3217
16469TIP3   OH270821   5.404   0.375   1.859  0.0480  0.3355  0.3835
16469TIP3    H170822   5.327   0.423   1.827  0.4301  0.9849  0.4060
16469TIP3    H270823   5.476   0.437   1.848  0.7136 -0.5368 -0.3828
16470TIP3   OH270824   0.279   6.793  11.164 -0.6952  0.3831 -0.2313
16470TIP3    H170825   0.306   6.884  11.172  1.1230 -0.2850  2.2510
16470TIP3    H270826   0.225   6.777  11.242  3.0507 -1.8330  2.1915
16471TIP3   OH270827   0.151   1.248   2.451 -0.6115  0.0787  0.5523
16471TIP3    H170828   0.130   1.340   2.437  1.0751  0.3999 -0.2109
16471TIP3    H270829   0.167   1.214   2.362  2.0962 -0.0214  0.9747
16472TIP3   OH270830   2.487   4.180  12.071  0.5754  0.4747 -0.1690
16472TIP3    H170831   2.548   4.178  11.997  0.9283  3.0474 -0.0261
16472TIP3    H270832   2.516   4.254  12.124 -1.1401  0.1633  1.2792
16473TIP3   OH270833   4.899   1.218  15.834  0.1128  0.7398  0.4102
16473TIP3    H170834   4.824   1.159  15.827  1.0990 -0.6013  0.6932
16473TIP3    H270835   4.934   1.204  15.922  1.0930  0.8353  0.0541
16474TIP3   OH270836   3.659   2.330   5.672  0.1344  0.5814  0.7051
16474TIP3    H170837   3.670   2.259   5.735 -0.3013 -0.5827 -0.4883
16474TIP3    H270838   3.568   2.356   5.680 -0.2322 -0.3628 -0.2317
16475TIP3   OH270839   3.196   4.185  13.990 -0.2260  0.7225 -0.5325
16475TIP3    H170840   3.182   4.277  14.009 -1.1455  0.7731 -1.3325
16475TIP3    H270841   3.178   4.140  14.072 -0.0804  1.2330 -0.2192
16476TIP3   OH270842   3.743   4.590   1.294 -0.4685  1.0580 -0.1813
16476TIP3    H170843   3.749   4.503   1.333 -1.0240  0.8655 -0.5282
16476TIP3    H270844   3.748   4.650   1.369 -1.5674  0.6923  0.1972
16477TIP3   OH270845   4.350   2.632  13.542 -0.4710  0.7983 -0.1678
16477TIP3    H170846   4.342   2.721  13.509 -2.3183  0.1591 -1.6286
16477TIP3    H270847   4.432   2.600  13.504 -1.4541  0.8153 -2.5118
16478TIP3   OH270848   0.678   4.048   4.536  0.1964 -0.1814  0.1190
16478TIP3    H170849   0.623   4.124   4.558  1.4608 -0.0427  3.3979
16478TIP3    H270850   0.728   4.075   4.460 -3.5728 -0.0368 -2.5831
16479TIP3   OH270851   5.876   5.304   0.682  0.0180 -0.3123 -0.1794
16479TIP3    H170852   5.928   5.378   0.650  1.1064 -1.5563 -1.4273
16479TIP3    H270853   5.787   5.322   0.650  0.0718  0.8681  0.2809
16480TIP3   OH270854   2.858   4.713   5.135  0.2872  0.2373 -1.0379
16480TIP3    H170855   2.891   4.751   5.054  1.5596 -0.2052 -0.7496
16480TIP3    H270856   2.875   4.781   5.201 -0.3749  0.4347 -1.0648
16481TIP3   OH270857   2.234   1.564  13.921 -0.3437  0.1094  0.4506
16481TIP3    H170858   2.207   1.545  14.011  1.5610 -0.1025  1.0267
16481TIP3    H270859   2.156   1.548  13.868 -1.3441 -0.3157  1.9982
16482TIP3   OH270860   1.414   3.760  12.072 -0.3633 -0.6402 -0.2304
16482TIP3    H170861   1.466   3.679  12.077 -0.9780 -1.1847 -1.9782
16482TIP3    H270862   1.426   3.790  11.982 -3.1725 -0.8924 -0.7865
16483TIP3   OH270863   3.098   0.876  11.040 -0.1837 -0.7403 -0.1281
16483TIP3    H170864   3.029   0.940  11.024 -0.1971  0.3344  3.2712
16483TIP3    H270865   3.151   0.876  10.961 -1.6633  1.5831 -1.2063
16484TIP3   OH270866   5.962   3.269   0.240  0.1326  0.2904  0.2138
16484TIP3    H170867   5.882   3.307   0.276 -0.3257 -2.3629  2.3792
16484TIP3    H270868   6.032   3.303   0.295  0.7744  3.1596 -2.1021
16485TIP3   OH270869   0.572   5.226  12.772  0.3959 -0.1643  0.0487
16485TIP3    H170870   0.518   5.251  12.697 -0.5134  0.1610  0.7975
16485TIP3    H270871   0.555   5.132  12.784  1.2979 -0.4535 -0.7318
16486TIP3   OH270872   3.297   4.427  14.503 -0.4943 -0.2330 -0.1056
16486TIP3    H170873   3.234   4.487  14.544 -1.5354 -1.6160  0.3707
16486TIP3    H270874   3.283   4.343  14.547 -0.0537 -1.2000 -1.7411
16487TIP3   OH270875   1.463   5.090   2.892  0.4956 -0.1376  0.4448
16487TIP3    H170876   1.532   5.150   2.922  1.1901 -0.4929 -0.4156
16487TIP3    H270877   1.510   5.011   2.865 -0.3883 -0.9865  1.2964
16488TIP3   OH270878   4.938   2.761  15.400 -0.1014 -0.1059  0.3502
16488TIP3    H170879   4.928   2.843  15.447 -0.2774  0.2693 -0.3322
16488TIP3    H270880   5.032   2.741  15.406  0.1674  0.8177 -0.5879
16489TIP3   OH270881   6.787   2.812  11.513  0.3820 -0.0043  0.4908
16489TIP3    H170882   6.742   2.858  11.584 -1.5794 -1.5993  0.3729
16489TIP3    H270883   6.848   2.877  11.477 -1.3162  2.0619  1.1480
16490TIP3   OH270884   1.910   5.112   6.331  0.3325 -0.4025  0.1889
16490TIP3    H170885   1.847   5.069   6.272  0.0179 -0.8428  0.8416
16490TIP3    H270886   1.985   5.053   6.334  1.1197  0.4506 -1.1519
16491TIP3   OH270887   0.760   6.480   3.155  0.7659  0.6763 -0.2770
16491TIP3    H170888   0.753   6.547   3.088 -0.3909 -0.9466 -1.8701
16491TIP3    H270889   0.671   6.470   3.189  0.6246 -0.9474 -1.0311
16492TIP3   OH270890   3.507   2.342  11.806  0.4145  0.0250  0.7491
16492TIP3    H170891   3.567   2.313  11.874  0.6900 -0.8827  0.1416
16492TIP3    H270892   3.457   2.413  11.846  2.2180  1.1509  1.1217
16493TIP3   OH270893   1.367   3.674   0.243  0.5284 -0.1794  0.0827
16493TIP3    H170894   1.448   3.622   0.244 -0.7720 -2.4233 -1.3067
16493TIP3    H270895   1.343   3.678   0.150 -0.5962  1.0684  0.4003
16494TIP3   OH270896   6.336   5.609  14.043 -0.0139  0.2075 -0.6067
16494TIP3    H170897   6.409   5.555  14.073 -0.5257  0.4411  1.1583
16494TIP3    H270898   6.297   5.645  14.123 -1.5021  0.8304 -1.5535
16495TIP3   OH270899   6.737   0.487   4.440 -0.0281  0.0085 -0.2531
16495TIP3    H170900   6.673   0.424   4.473  0.4879  0.0573  0.9048
16495TIP3    H270901   6.715   0.569   4.485  1.3657 -0.1931  0.8767
16496TIP3   OH270902   5.610   1.734   2.020  0.0007  0.2163 -0.3153
16496TIP3    H170903   5.639   1.706   1.933  1.6142 -0.2178  0.3299
16496TIP3    H270904   5.549   1.666   2.048  0.4811 -0.3240 -0.5719
16497TIP3   OH270905   2.960   3.378   2.138 -0.3257 -0.5436 -0.4308
16497TIP3    H170906   2.966   3.283   2.127 -0.1137 -0.7044  0.9524
16497TIP3    H270907   2.878   3.392   2.186 -0.0602 -0.0698 -0.1090
16498TIP3   OH270908   5.421   2.564   0.045 -0.2159 -0.0363  0.2711
16498TIP3    H170909   5.419   2.477   0.086 -1.5282 -0.5913 -0.9243
16498TIP3    H270910   5.472   2.617   0.107 -2.3427 -0.7390  2.8502
16499TIP3   OH270911   6.585   1.891   5.715  0.2471  0.0167 -0.9861
16499TIP3    H170912   6.513   1.845   5.670  0.2116 -0.4535 -0.4535
16499TIP3    H270913   6.564   1.883   5.808  0.5648  0.5893 -0.8637
16500TIP3   OH270914   1.136   6.700  15.552 -0.3042  0.0607 -0.5206
16500TIP3    H170915   1.212   6.642  15.555 -1.4867 -1.7674 -2.7502
16500TIP3    H270916   1.100   6.696  15.640  0.8673 -0.8929 -0.0516
16501TIP3   OH270917   0.419   5.083   3.133 -0.3683  0.3597  0.1127
16501TIP3    H170918   0.486   5.032   3.179 -3.2335 -2.9908  1.0056
16501TIP3    H270919   0.432   5.061   3.040 -0.0466  0.0484  0.2290
16502TIP3   OH270920   0.239   5.935  16.221  0.0434 -0.3870 -0.0209
16502TIP3    H170921   0.317   5.976  16.258 -0.0077  0.8759 -1.2221
16502TIP3    H270922   0.269   5.850  16.190  0.7017 -0.3319  0.4422
16503TIP3   OH270923   0.626   4.946  15.231 -0.4025 -0.0063 -0.0760
16503TIP3    H170924   0.544   4.983  15.266 -0.7795 -0.6266 -0.2850
16503TIP3    H270925   0.598   4.896  15.155  0.3695  1.0141 -1.0562
16504TIP3   OH270926   1.461   3.201  13.146  0.0264  0.0789  0.5047
16504TIP3    H170927   1.504   3.250  13.076 -0.4297  2.2034  1.6054
16504TIP3    H270928   1.453   3.112  13.113  1.9540  0.4723 -1.1659
16505TIP3   OH270929   3.844   5.770  13.137  0.1398  0.6085  0.3693
16505TIP3    H170930   3.936   5.745  13.129  0.4492  1.1258  1.8722
16505TIP3    H270931   3.844   5.865  13.130 -0.2579  0.6220  0.4944
16506TIP3   OH270932   2.754   2.740  10.945  0.0622 -0.4575  0.0674
16506TIP3    H170933   2.833   2.731  10.998 -0.6261 -0.0351  1.1957
16506TIP3    H270934   2.766   2.678  10.873  2.0957  0.6806 -0.6457
16507TIP3   OH270935   2.031   0.958   3.571  0.0968  0.2031  0.3774
16507TIP3    H170936   1.969   0.948   3.499 -1.0251 -0.3201  1.3858
16507TIP3    H270937   2.007   1.041   3.612 -1.9696 -1.3276  2.5717
16508TIP3   OH270938   5.744   1.355   4.747  0.1937  0.1076  0.3387
16508TIP3    H170939   5.809   1.418   4.777 -0.7758  0.9871  0.6500
16508TIP3    H270940   5.751   1.357   4.652 -1.7234  2.8459  0.1527
16509TIP3   OH270941   1.757   6.040   5.414  0.1977 -0.2605 -0.3474
16509TIP3    H170942   1.663   6.059   5.411  0.2317 -0.1954 -1.2014
16509TIP3    H270943   1.798   6.117   5.375  0.6085 -0.2987  0.0059
16510TIP3   OH270944   5.898   2.676   5.332 -0.1639 -0.2440  0.1248
16510TIP3    H170945   5.821   2.724   5.362  0.0023 -0.8305  1.5607
16510TIP3    H270946   5.961   2.684   5.404  0.6851 -0.7404 -0.5491
16511TIP3   OH270947   1.854   5.922  13.480 -0.7681  0.6007  0.2353
16511TIP3    H170948   1.880   5.864  13.551 -3.9861 -1.3215  0.0335
16511TIP3    H270949   1.913   5.901  13.408  0.3351  0.1216  1.2603
16512TIP3   OH270950   1.862   6.790  14.355  0.2912  0.2308 -0.3138
16512TIP3    H170951   1.793   6.731  14.388 -1.0295  1.1154 -1.3630
16512TIP3    H270952   1.943   6.740  14.364 -0.4644 -0.8253  1.0392
16513TIP3   OH270953   1.100   0.918  11.461  0.2240 -0.6415 -0.1924
16513TIP3    H170954   1.057   0.870  11.532 -0.5805 -2.2545 -1.6883
16513TIP3    H270955   1.190   0.932  11.492 -1.1223  2.6632  2.9501
16514TIP3   OH270956   1.899   1.784  11.097 -0.3415 -0.1723 -0.0874
16514TIP3    H170957   1.953   1.761  11.021  1.1665 -2.1089  1.4624
16514TIP3    H270958   1.834   1.713  11.103  0.3620 -0.7412  1.1308
16515TIP3   OH270959   0.703   2.148   3.302  0.0401 -0.4518  0.0488
16515TIP3    H170960   0.623   2.125   3.350  0.1579  0.6298  0.7996
16515TIP3    H270961   0.774   2.136   3.365  0.0349  2.7208  0.8652
16516TIP3   OH270962   5.500   2.749   4.360  0.2430 -0.5552  0.6027
16516TIP3    H170963   5.582   2.708   4.330  1.4521  1.3107  1.1831
16516TIP3    H270964   5.469   2.798   4.284  0.7024  0.2577  0.9276
16517TIP3   OH270965   1.568   3.181   0.875 -0.2953  0.2552  0.0126
16517TIP3    H170966   1.573   3.108   0.937  2.0171  1.3687  1.2541
16517TIP3    H270967   1.506   3.242   0.915 -1.4200 -0.5041 -0.5082
16518TIP3   OH270968   4.689   5.603  15.608  0.3166  1.1744 -0.7584
16518TIP3    H170969   4.729   5.518  15.624  1.2088  1.6464 -0.4560
16518TIP3    H270970   4.698   5.616  15.514 -2.2363 -0.2445 -1.2951
16519TIP3   OH270971   0.511   0.825  15.483  0.5284  0.1027 -0.2940
16519TIP3    H170972   0.515   0.869  15.398  1.3758 -0.2953 -0.4784
16519TIP3    H270973   0.446   0.873  15.533  2.0147  2.1062 -0.1912
16520TIP3   OH270974   0.639   1.199   4.885  0.1851  0.2213 -0.5342
16520TIP3    H170975   0.581   1.275   4.879 -1.3624 -0.6010  2.5410
16520TIP3    H270976   0.726   1.237   4.900 -0.2982  1.3920 -0.6087
16521TIP3   OH270977   2.753   5.433  14.930 -0.5061 -0.0373 -0.1769
16521TIP3    H170978   2.660   5.456  14.927 -0.0868  1.6954 -1.4075
16521TIP3    H270979   2.798   5.516  14.949  0.7061 -1.2202  2.6759
16522TIP3   OH270980   5.674   3.627   5.479  0.5376 -0.2987  0.5591
16522TIP3    H170981   5.652   3.538   5.449  1.2234 -0.2239 -0.2077
16522TIP3    H270982   5.601   3.652   5.535 -0.1003 -1.0127  0.0769
16523TIP3   OH270983   2.461   2.275  14.735  0.3765  1.0662 -0.4975
16523TIP3    H170984   2.455   2.340  14.805  0.2767  0.8308 -0.2834
16523TIP3    H270985   2.543   2.294  14.690 -0.6447  2.6715 -1.7847
16524TIP3   OH270986   4.957   2.355   4.300  0.0102 -0.3925  0.5269
16524TIP3    H170987   4.939   2.352   4.207  1.0424 -0.4540  0.3121
16524TIP3    H270988   4.910   2.280   4.337 -2.7092  1.1909  0.5261
16525TIP3   OH270989   0.861   4.122   3.323  0.7857 -0.4203  0.4914
16525TIP3    H170990   0.855   4.093   3.232  0.3537  0.1761  0.3215
16525TIP3    H270991   0.897   4.047   3.370  0.4829 -0.9311 -0.0745
16526TIP3   OH270992   4.023   2.795  14.472 -0.5028 -0.0702  0.7107
16526TIP3    H170993   4.051   2.711  14.435 -0.5652 -0.7246  2.0816
16526TIP3    H270994   3.927   2.791  14.471 -0.6454  1.3214 -2.0814
16527TIP3   OH270995   6.170   2.482  16.645  0.1307 -0.3370 -0.1001
16527TIP3    H170996   6.222   2.500  16.723 -1.1312 -0.1533  0.7243
16527TIP3    H270997   6.219   2.522  16.573 -0.6417  3.1683  1.1102
16528TIP3   OH270998   2.628   0.462  15.587 -0.9826 -0.3247  0.0839
16528TIP3    H170999   2.660   0.467  15.677  0.1096 -2.0118 -0.1637
16528TIP3    H271000   2.549   0.408  15.593  0.0568 -1.9390 -0.1455
16529TIP3   OH271001   5.739   3.608  11.864  0.0019  0.2448 -0.4425
16529TIP3    H171002   5.790   3.658  11.928 -1.5071  0.7946  0.3665
16529TIP3    H271003   5.805   3.561  11.814  1.6146  3.5814 -1.7877
16530TIP3   OH271004   0.607   5.517  13.659 -0.7117  0.4475 -0.2032
16530TIP3    H171005   0.547   5.553  13.725  1.5080  1.8607  1.1943
16530TIP3    H271006   0.655   5.448  13.706  0.0549  0.6410 -0.6885
16531TIP3   OH271007   5.877   1.936   4.391 -0.1054  0.8374  0.4824
16531TIP3    H171008   5.942   1.944   4.322  0.8087 -1.2958  0.9995
16531TIP3    H271009   5.800   1.898   4.349 -0.3422  1.5798  0.2370
16532TIP3   OH271010   0.310   4.932  15.435 -0.5172 -0.4902  0.4475
16532TIP3    H171011   0.340   4.841  15.438  1.1825  0.0295  0.3532
16532TIP3    H271012   0.363   4.977  15.502 -0.4421  0.6566 -0.3439
16533TIP3   OH271013   3.379   0.779   5.569 -0.2697 -0.0464 -0.5821
16533TIP3    H171014   3.459   0.821   5.538 -0.6057  0.6745 -0.4816
16533TIP3    H271015   3.308   0.822   5.521 -0.5943 -0.7970 -0.8000
16534TIP3   OH271016   6.073   6.503   3.449 -0.1627  0.4399  0.5677
16534TIP3    H171017   6.070   6.436   3.381 -0.5782 -0.2462  1.2528
16534TIP3    H271018   6.120   6.462   3.521  0.8790  1.3960  0.4640
16535TIP3   OH271019   0.718   1.627   2.877 -0.6249 -0.5222 -0.2741
16535TIP3    H171020   0.727   1.632   2.782 -0.8559  2.1538 -0.2429
16535TIP3    H271021   0.629   1.658   2.894 -0.7291 -1.3543  0.8165
16536TIP3   OH271022   4.635   1.461   2.825  0.0192  0.1764  0.2315
16536TIP3    H171023   4.658   1.457   2.918  1.3036 -1.7156 -0.1119
16536TIP3    H271024   4.560   1.520   2.822  0.6364  1.1824  2.3164
16537TIP3   OH271025   4.020   6.512   0.546 -0.1676 -0.1215  0.1753
16537TIP3    H171026   3.997   6.527   0.638 -0.5302  1.2899 -0.1224
16537TIP3    H271027   4.115   6.525   0.543 -0.2481  0.5478  0.2395
16538TIP3   OH271028   3.125   5.548  15.159  0.9088 -0.3076 -0.3781
16538TIP3    H171029   3.076   5.466  15.156  1.9271 -1.1112  1.9960
16538TIP3    H271030   3.215   5.524  15.137  1.0306  0.3513 -0.6400
16539TIP3   OH271031   4.075   3.104   4.166  0.7573  0.1969 -0.1621
16539TIP3    H171032   4.028   3.035   4.119 -1.2421  0.1940  1.6870
16539TIP3    H271033   4.078   3.177   4.105 -0.6628 -0.1943 -0.7334
16540TIP3   OH271034   5.791   4.944   5.047  0.5738  0.8245  0.0089
16540TIP3    H171035   5.797   4.956   4.953  1.8053 -0.2021 -0.0730
16540TIP3    H271036   5.853   5.008   5.084  0.2947  1.0422  0.0977
16541TIP3   OH271037   5.516   0.830  11.236  0.2195  0.3639 -0.2648
16541TIP3    H171038   5.591   0.792  11.280 -1.2172  0.5726  2.5557
16541TIP3    H271039   5.460   0.755  11.214 -0.3602  0.4381  0.8878
16542TIP3   OH271040   0.510   3.163  16.317 -0.1503 -0.0277  0.7469
16542TIP3    H171041   0.500   3.170  16.412  0.7649 -1.4497  0.9742
16542TIP3    H271042   0.465   3.081  16.294 -2.0451  1.2388 -0.3491
16543TIP3   OH271043   5.326   5.523   1.505 -0.6092 -0.0219  0.2566
16543TIP3    H171044   5.404   5.476   1.534 -1.1730 -0.3001  1.3548
16543TIP3    H271045   5.281   5.547   1.585  0.4203  3.7683 -0.1101
16544TIP3   OH271046   4.357   5.546   2.914  0.6967 -0.1988  0.1070
16544TIP3    H171047   4.386   5.575   3.000 -1.1224  0.8749  0.4158
16544TIP3    H271048   4.381   5.617   2.855  1.0084 -0.4632 -0.0845
16545TIP3   OH271049   4.186   1.767  15.891  0.1888 -0.1400 -0.6556
16545TIP3    H171050   4.150   1.683  15.863  0.8472 -0.5977 -0.1515
16545TIP3    H271051   4.184   1.764  15.986  0.3902  0.3385 -0.6328
16546TIP3   OH271052   4.422   4.678  14.477  0.6104 -0.4953  0.1200
16546TIP3    H171053   4.470   4.726  14.409 -0.0353  0.1282  0.1021
16546TIP3    H271054   4.332   4.709  14.470  0.0054 -2.2466 -0.3829
16547TIP3   OH271055   4.687   2.741   5.415 -1.1125  0.6217 -0.6925
16547TIP3    H171056   4.765   2.718   5.365 -1.0634  0.6394 -0.6247
16547TIP3    H271057   4.660   2.660   5.457 -1.3057  0.5490 -0.9578
16548TIP3   OH271058   6.065   1.165   2.408 -0.7813 -0.3645  0.0277
16548TIP3    H171059   6.085   1.255   2.435  0.9295 -1.2245  1.9583
16548TIP3    H271060   5.973   1.154   2.429 -0.7459  0.6299  0.7869
16549TIP3   OH271061   2.487   1.840  13.896 -0.4959 -0.2707  0.8032
16549TIP3    H171062   2.545   1.852  13.971 -0.0212 -0.3466  0.4510
16549TIP3    H271063   2.541   1.795  13.831 -1.5613 -2.3866  1.2919
16550TIP3   OH271064   0.949   4.844   1.414 -0.7476 -0.2048  0.2489
16550TIP3    H171065   0.989   4.886   1.490 -1.4018  1.8695 -0.4708
16550TIP3    H271066   0.958   4.750   1.430 -0.3756  0.1778  2.6007
16551TIP3   OH271067   1.323   5.926   4.964  0.1004  0.0302  0.2511
16551TIP3    H171068   1.245   5.978   4.944 -0.0121 -0.3703 -0.3606
16551TIP3    H271069   1.324   5.922   5.060 -0.3490  0.4559  0.2839
16552TIP3   OH271070   2.697   4.790   6.384  0.8755 -0.2875  0.5619
16552TIP3    H171071   2.710   4.874   6.340 -0.5154 -0.2608  0.1515
16552TIP3    H271072   2.603   4.786   6.401  0.5718 -2.5352 -1.0776
16553TIP3   OH271073   3.439   3.803   2.499 -0.4193  0.0954 -0.4481
16553TIP3    H171074   3.442   3.898   2.490  1.1898  0.0485 -0.6884
16553TIP3    H271075   3.431   3.771   2.409  2.8857 -0.0414 -0.8117
16554TIP3   OH271076   0.326   3.389   4.333 -0.2867  0.1903 -0.1313
16554TIP3    H171077   0.281   3.345   4.261  0.5301  1.0979 -1.2427
16554TIP3    H271078   0.412   3.347   4.337 -0.8352 -0.8761  1.3399
16555TIP3   OH271079   3.193   4.892   5.150  0.2077 -0.1924  0.0981
16555TIP3    H171080   3.283   4.900   5.119  1.1724  0.0290  2.7007
16555TIP3    H271081   3.196   4.921   5.241 -2.4495 -0.5157  0.3799
16556TIP3   OH271082   5.111   4.697   0.429 -0.1397 -0.4949  0.2148
16556TIP3    H171083   5.131   4.744   0.509  0.4904 -1.3278  0.5598
16556TIP3    H271084   5.101   4.606   0.456 -1.5068 -0.5671 -0.4073
16557TIP3   OH271085   5.844   5.402   4.548  0.8121 -0.1794 -0.4137
16557TIP3    H171086   5.815   5.436   4.633  0.4803 -0.1431 -0.5423
16557TIP3    H271087   5.770   5.417   4.489  0.8380 -0.7123 -0.5811
16558TIP3   OH271088   4.327   1.937   1.718  0.3194  0.1171 -0.3798
16558TIP3    H171089   4.274   1.947   1.639 -0.1531  0.7461  0.0105
16558TIP3    H271090   4.355   1.846   1.717 -2.7407 -0.9409  0.6353
16559TIP3   OH271091   6.436   0.981  15.873  0.5396 -0.4218  0.2012
16559TIP3    H171092   6.358   0.935  15.840 -1.1110  2.6270 -0.5731
16559TIP3    H271093   6.471   1.026  15.796  1.1233  0.8251  1.1652
16560TIP3   OH271094   3.199   0.955  15.785  0.0672 -0.0779  0.3727
16560TIP3    H171095   3.188   1.026  15.847  0.9531  1.1127 -0.7814
16560TIP3    H271096   3.124   0.963  15.726  0.3980  0.1924 -0.0195
16561TIP3   OH271097   5.468   2.619  16.856  0.3208 -0.1423  0.0024
16561TIP3    H171098   5.454   2.588  16.946  2.1019  0.6359  0.5881
16561TIP3    H271099   5.494   2.711  16.866  2.1085 -0.4732 -1.1585
16562TIP3   OH271100   3.029   0.529  12.232 -0.2636 -0.5025 -0.4027
16562TIP3    H171101   3.069   0.600  12.182 -1.5925 -0.2372 -1.1151
16562TIP3    H271102   2.935   0.545  12.228 -0.5395 -1.7835  0.2239
16563TIP3   OH271103   3.437   1.963  15.902 -0.1368 -0.6465  0.6743
16563TIP3    H171104   3.342   1.954  15.890  0.0657  0.0270 -2.1748
16563TIP3    H271105   3.464   2.023  15.832  1.8708  2.5436  3.8834
16564TIP3   OH271106   4.548   6.383   3.673 -0.4502 -0.2969 -0.3459
16564TIP3    H171107   4.613   6.382   3.744  0.3206 -0.6471 -1.0338
16564TIP3    H271108   4.466   6.408   3.715  0.4925  2.0959  0.2297
16565TIP3   OH271109   4.815   4.273   4.409  0.3897  0.4231  0.1475
16565TIP3    H171110   4.829   4.356   4.455  2.2721 -0.1670  0.7453
16565TIP3    H271111   4.856   4.207   4.465 -1.2439 -0.9702 -0.2155
16566TIP3   OH271112   5.091   0.893   0.646 -0.1038 -0.5110  0.3100
16566TIP3    H171113   5.062   0.802   0.643 -0.1686 -0.4885  0.2604
16566TIP3    H271114   5.100   0.919   0.554 -1.1405 -0.1320  0.3024
16567TIP3   OH271115   4.246   0.574  15.950 -0.0981 -0.0447  0.1686
16567TIP3    H171116   4.158   0.553  15.981 -0.6777  3.0107  0.8850
16567TIP3    H271117   4.232   0.635  15.878  1.4271 -0.1827 -0.2736
16568TIP3   OH271118   1.979   4.276  14.702  0.0012 -0.3737 -0.3050
16568TIP3    H171119   2.064   4.232  14.692  0.6949  0.6108  0.9540
16568TIP3    H271120   1.965   4.279  14.797 -0.6255  0.9858 -0.4189
16569TIP3   OH271121   0.954   5.725  14.555  0.2501 -0.1803  0.0702
16569TIP3    H171122   1.022   5.779  14.516 -0.2343 -0.3441 -1.0287
16569TIP3    H271123   0.872   5.759  14.520 -0.0770 -1.4950 -0.5100
16570TIP3   OH271124   4.803   3.138  12.530  0.1533  0.2475  0.3086
16570TIP3    H171125   4.756   3.100  12.603 -0.6311  1.1063  0.2688
16570TIP3    H271126   4.889   3.095  12.531 -0.3453 -0.7687  0.8555
16571TIP3   OH271127   5.148   4.124   0.656 -0.2073  0.3574  0.0488
16571TIP3    H171128   5.076   4.073   0.621  0.0230  0.8706 -1.2458
16571TIP3    H271129   5.195   4.064   0.714 -1.3578 -0.1290  0.5032
16572TIP3   OH271130   4.611   2.714   2.893  0.3457 -0.2136 -0.1365
16572TIP3    H171131   4.571   2.708   2.980 -0.5542 -0.9266 -0.5748
16572TIP3    H271132   4.674   2.786   2.900  1.5064 -1.2926  1.5807
16573TIP3   OH271133   0.353   3.675   4.333  0.7173  0.3252  0.0018
16573TIP3    H171134   0.362   3.591   4.288 -0.8529  0.1326 -0.0120
16573TIP3    H271135   0.428   3.726   4.304  1.0204 -0.6395 -0.9661
16574TIP3   OH271136   0.568   1.735  14.827  0.1855  0.0543 -0.8822
16574TIP3    H171137   0.587   1.828  14.840  0.7432 -0.2546  0.7388
16574TIP3    H271138   0.642   1.689  14.868 -1.5899 -1.1202  1.2089
16575TIP3   OH271139   5.687   4.268  15.573 -0.3033 -0.0961 -0.0400
16575TIP3    H171140   5.616   4.212  15.602 -0.0617 -1.5684 -2.0648
16575TIP3    H271141   5.684   4.263  15.477  1.7109  0.8305 -0.2077
16576TIP3   OH271142   5.084   3.276  15.289  0.0987 -0.1227 -0.5696
16576TIP3    H171143   5.033   3.282  15.370  2.8141  0.2740  1.2726
16576TIP3    H271144   5.051   3.198  15.245 -0.7668 -0.9637  1.4598
16577TIP3   OH271145   5.321   3.735  15.209  0.1722  0.4316  0.2671
16577TIP3    H171146   5.281   3.659  15.251  1.8593  0.0184  1.2376
16577TIP3    H271147   5.299   3.725  15.116 -1.0895 -0.2923  0.6169
16578TIP3   OH271148   3.322   2.250   4.033  0.0336 -0.2140 -0.3628
16578TIP3    H171149   3.246   2.200   4.062 -0.5621  1.2847  0.8024
16578TIP3    H271150   3.357   2.291   4.113  2.5536 -1.4423 -0.7255
16579TIP3   OH271151   5.244   1.931   2.326  0.3128  0.2595  0.4744
16579TIP3    H171152   5.278   1.988   2.257  0.4858  0.0442  0.3786
16579TIP3    H271153   5.159   1.902   2.293  1.8281 -2.6537 -1.3169
16580TIP3   OH271154   1.413   1.391  13.455  0.1749 -0.1470  0.1916
16580TIP3    H171155   1.393   1.464  13.396 -1.9443  1.1857  2.3642
16580TIP3    H271156   1.508   1.383  13.453  0.3224  1.4158 -1.5414
16581TIP3   OH271157   4.406   0.978  16.938  0.2383 -0.1917  0.5365
16581TIP3    H171158   4.321   0.975  16.982 -0.0283  1.4682  0.2014
16581TIP3    H271159   4.420   1.071  16.921  1.3382 -0.6097 -0.9529
16582TIP3   OH271160   1.737   3.354   2.741 -0.1553 -0.2714  0.0866
16582TIP3    H171161   1.691   3.430   2.775  1.0638  0.3601  0.3708
16582TIP3    H271162   1.668   3.300   2.702 -1.0889  0.7683  0.2454
16583TIP3   OH271163   4.692   5.472  16.560  0.5211  0.2751 -0.7347
16583TIP3    H171164   4.665   5.386  16.528  1.1516 -0.6022  0.9428
16583TIP3    H271165   4.783   5.481  16.531  0.9898 -0.3797  0.4736
16584TIP3   OH271166   2.741   3.888  16.445  0.2457 -0.0819  0.1650
16584TIP3    H171167   2.835   3.869  16.440  0.3955  0.7378 -0.4068
16584TIP3    H271168   2.712   3.845  16.526  1.3183  0.4911  0.8803
16585TIP3   OH271169   1.716   5.978  11.572 -0.1077 -0.4028 -0.1767
16585TIP3    H171170   1.626   5.947  11.567 -0.9371  1.7666  0.0283
16585TIP3    H271171   1.715   6.061  11.524  1.1538  0.8954  1.8817
16586TIP3   OH271172   0.421   4.379  16.018 -0.0150 -0.4031  0.2404
16586TIP3    H171173   0.498   4.412  16.064 -0.9211 -0.7217  2.0694
16586TIP3    H271174   0.410   4.439  15.944  1.8116 -0.2088  0.0912
16587TIP3   OH271175   0.656   6.484   1.762 -0.2251  0.2855 -0.2206
16587TIP3    H171176   0.647   6.431   1.683 -0.2636  1.6903 -1.1987
16587TIP3    H271177   0.567   6.509   1.785 -0.4267 -1.8867  1.5671
16588TIP3   OH271178   1.502   3.380   1.110  0.3511  0.2091  0.3091
16588TIP3    H171179   1.591   3.414   1.122  0.1797  0.4520  0.9704
16588TIP3    H271180   1.506   3.291   1.144  0.4192  0.1151  0.0514
16589TIP3   OH271181   5.976   0.688  13.966 -0.0432 -0.1791  0.3524
16589TIP3    H171182   6.062   0.645  13.969 -0.6126 -1.5457 -1.5376
16589TIP3    H271183   5.962   0.706  13.873 -1.4052  0.9182  0.7431
16590TIP3   OH271184   5.503   2.138   2.518 -0.6398 -0.3380 -0.3573
16590TIP3    H171185   5.413   2.172   2.517 -0.6425  0.0409  2.7349
16590TIP3    H271186   5.551   2.200   2.573  1.6671 -0.3417 -2.1930
16591TIP3   OH271187   5.801   1.935  12.254  0.0126 -0.0085  0.3294
16591TIP3    H171188   5.732   2.001  12.263 -0.5125 -0.5874  0.5944
16591TIP3    H271189   5.818   1.932  12.160  0.5049  0.9630  0.3690
16592TIP3   OH271190   2.576   6.182   0.280 -0.6596  0.5072 -0.2683
16592TIP3    H171191   2.486   6.204   0.256 -0.0027  3.1960 -0.5535
16592TIP3    H271192   2.618   6.159   0.198 -0.6168  1.1053 -0.4160
16593TIP3   OH271193   5.227   6.386   1.106 -0.3722 -0.6551  0.4421
16593TIP3    H171194   5.144   6.432   1.097  0.0401  0.0899  0.3076
16593TIP3    H271195   5.234   6.365   1.199 -0.1134  0.4624  0.6939
16594TIP3   OH271196   0.913   1.462   0.507 -0.6147 -0.1458 -0.4897
16594TIP3    H171197   0.975   1.534   0.519 -0.7689 -0.0929 -0.0058
16594TIP3    H271198   0.966   1.383   0.519  0.2168 -0.2542 -3.7913
16595TIP3   OH271199   0.633   1.452   2.557  0.4006 -0.0050  0.4276
16595TIP3    H171200   0.559   1.473   2.613  0.3895  1.7477 -0.1899
16595TIP3    H271201   0.618   1.361   2.530 -1.9192  0.5132 -0.2419
16596TIP3   OH271202   0.408   3.783  12.961 -0.2696 -0.0821 -0.3961
16596TIP3    H171203   0.503   3.771  12.969 -0.0987  0.7176 -1.1703
16596TIP3    H271204   0.371   3.703  12.999  0.6946 -0.1331  0.4824
16597TIP3   OH271205   5.211   2.732   2.195 -0.2139  0.0312 -0.0887
16597TIP3    H171206   5.272   2.659   2.205 -1.4659 -0.8875  1.0329
16597TIP3    H271207   5.207   2.746   2.100  1.1604 -0.3643 -0.2325
16598TIP3   OH271208   3.432   5.620   3.886  0.8592 -0.2486 -0.3044
16598TIP3    H171209   3.349   5.618   3.838 -0.2366  1.0302  1.4492
16598TIP3    H271210   3.481   5.546   3.849 -1.9239 -2.5211  0.1139
16599TIP3   OH271211   0.028   0.380  15.401 -0.7245  0.2825  0.0770
16599TIP3    H171212  -0.039   0.322  15.364 -0.6637  1.7392 -2.5542
16599TIP3    H271213   0.102   0.373  15.341  0.6686  0.4077  1.7166
16600TIP3   OH271214   0.926   3.298   2.743  0.2210 -0.3287 -0.1650
16600TIP3    H171215   0.867   3.258   2.806 -1.2536 -1.0877 -1.9355
16600TIP3    H271216   1.011   3.259   2.761 -0.6518 -2.3251 -0.1300
16601TIP3   OH271217   1.074   5.731   1.962 -0.0870  0.3871 -0.1551
16601TIP3    H171218   0.989   5.767   1.936  1.1822  0.7802 -4.3721
16601TIP3    H271219   1.059   5.637   1.966 -0.6579  0.4253 -1.1357
16602TIP3   OH271220   6.412   1.791   3.142  0.1630  0.5829  0.0399
16602TIP3    H171221   6.369   1.760   3.222  0.1669 -0.5519 -0.3768
16602TIP3    H271222   6.502   1.758   3.149  0.0426  0.0772 -0.6227
16603TIP3   OH271223   6.113   4.987  11.261  0.6375 -0.3193  0.3995
16603TIP3    H171224   6.049   5.058  11.267  0.8061 -0.2314  1.2218
16603TIP3    H271225   6.115   4.965  11.167  0.5354  0.7068  0.1424
16604TIP3   OH271226   3.645   3.554  14.990  0.0077 -0.3152 -0.5649
16604TIP3    H171227   3.680   3.496  15.057 -0.7486 -0.5200 -0.3310
16604TIP3    H271228   3.639   3.639  15.032 -0.3952 -0.4272 -0.3877
16605TIP3   OH271229   1.499   2.896  11.300  0.4414  0.2433 -0.5032
16605TIP3    H171230   1.448   2.935  11.229 -1.0681  0.0180  0.4193
16605TIP3    H271231   1.526   2.970  11.355 -0.5807  0.2100  0.0665
16606TIP3   OH271232   5.485   0.956  15.850 -0.6251 -0.3538  0.1575
16606TIP3    H171233   5.518   0.906  15.775  0.9333 -0.5950  0.9575
16606TIP3    H271234   5.540   0.928  15.923 -0.3985  1.7316  0.8638
16607TIP3   OH271235   5.252   2.241   2.512  0.9384 -0.2132 -0.3605
16607TIP3    H171236   5.234   2.299   2.438 -1.7504  0.0490  0.3910
16607TIP3    H271237   5.190   2.268   2.579  3.1622 -0.5575  1.9802
16608TIP3   OH271238   2.894   4.703  16.006 -0.0477 -0.3674  0.8592
16608TIP3    H171239   2.844   4.748  16.074  1.1886 -0.5311  1.8949
16608TIP3    H271240   2.978   4.749  16.003 -0.1269 -0.2701 -0.6742
16609TIP3   OH271241   2.180   0.366  13.801  0.2389 -0.0373 -0.3466
16609TIP3    H171242   2.141   0.429  13.739  0.5733  1.8161  1.2511
16609TIP3    H271243   2.105   0.334  13.851  0.2289  0.0994 -0.2741
16610TIP3   OH271244   0.429   5.896   1.141 -0.0931 -0.0333  0.4205
16610TIP3    H171245   0.469   5.813   1.116  1.7451  0.5277  1.3235
16610TIP3    H271246   0.427   5.895   1.237 -0.8796  0.6089  0.4308
16611TIP3   OH271247   5.725   5.385  15.265 -0.7831 -0.6467 -0.3485
16611TIP3    H171248   5.653   5.323  15.257 -0.6275 -1.3505  2.6666
16611TIP3    H271249   5.803   5.336  15.239 -0.8001 -1.4459  1.0322
16612TIP3   OH271250   1.158   3.943  14.664 -0.2868  0.0492 -0.0443
16612TIP3    H171251   1.081   3.911  14.617  0.1649  0.5243 -1.1252
16612TIP3    H271252   1.207   3.865  14.687  0.2168 -0.1198 -1.6354
16613TIP3   OH271253   6.512   3.782  14.093 -0.1613 -0.0612  0.6994
16613TIP3    H171254   6.418   3.796  14.104 -0.0771  0.0914  1.2706
16613TIP3    H271255   6.549   3.870  14.096  0.0134 -0.1347  0.6513
16614TIP3   OH271256   6.706   4.862  15.248  0.2232 -0.0220  0.3403
16614TIP3    H171257   6.765   4.880  15.321  0.3936 -0.5697  0.3396
16614TIP3    H271258   6.763   4.865  15.170  0.5874 -2.0637  0.4647
16615TIP3   OH271259   6.748   3.863   5.134  0.1496  0.0023  0.1064
16615TIP3    H171260   6.673   3.808   5.156 -0.2709  0.8960  0.9339
16615TIP3    H271261   6.753   3.928   5.204  1.6433  0.0250  0.0197
16616TIP3   OH271262   6.246   4.976  15.018  0.3780 -0.2147  0.2781
16616TIP3    H171263   6.336   4.963  15.047  0.3682 -1.8279 -0.2918
16616TIP3    H271264   6.253   5.027  14.938  0.9017 -1.2547 -0.3629
16617TIP3   OH271265   3.398   1.915   0.764 -0.5422  0.1641 -0.1023
16617TIP3    H171266   3.342   1.838   0.774  0.2053 -0.2860  0.8825
16617TIP3    H271267   3.345   1.988   0.795 -1.1286  0.0055 -0.6942
16618TIP3   OH271268   0.413   1.689  15.219  0.2359  0.6055  0.2425
16618TIP3    H171269   0.450   1.621  15.163 -0.1389  0.0719  0.6316
16618TIP3    H271270   0.381   1.756  15.159 -0.6124 -0.1857 -0.2094
16619TIP3   OH271271   0.365   3.480   6.024 -0.6728 -0.7445 -0.4630
16619TIP3    H171272   0.380   3.403   5.969 -1.9092 -0.3091 -1.4707
16619TIP3    H271273   0.452   3.505   6.054 -0.0343 -1.4447 -1.6145
16620TIP3   OH271274   2.698   0.521  15.847 -0.4151  0.1425 -0.0829
16620TIP3    H171275   2.606   0.549  15.849 -0.4579  0.0568 -0.8074
16620TIP3    H271276   2.705   0.457  15.919 -0.2797  2.0618  1.7006
16621TIP3   OH271277   5.396   1.699  16.978  0.2318 -0.0910 -0.0427
16621TIP3    H171278   5.363   1.734  17.061 -0.6030  0.6297 -0.6615
16621TIP3    H271279   5.468   1.756  16.954 -0.5511  0.6813 -0.6004
16622TIP3   OH271280   2.114   4.968  11.946 -0.0810 -0.5185  0.3631
16622TIP3    H171281   2.187   5.018  11.982 -1.6775  1.8015  0.5730
16622TIP3    H271282   2.154   4.912  11.879  1.6645  2.0538 -0.8915
16623TIP3   OH271283   5.091   2.438   0.088  0.7632 -0.5192  0.1838
16623TIP3    H171284   5.154   2.369   0.067  0.7409 -0.5116  0.0907
16623TIP3    H271285   5.011   2.413   0.041  1.0600  0.0889 -0.6719
16624TIP3   OH271286   3.580   5.184   4.692 -0.0391 -0.2545 -0.8003
16624TIP3    H171287   3.543   5.251   4.750  0.6504  1.0801 -1.8334
16624TIP3    H271288   3.554   5.212   4.604  0.3285 -1.3204 -1.2577
16625TIP3   OH271289   5.589   5.145   1.753  0.0262 -0.1551  0.1784
16625TIP3    H171290   5.681   5.134   1.728  0.3934 -0.1875  1.4531
16625TIP3    H271291   5.568   5.065   1.801  0.1260  0.9463  2.1385
16626TIP3   OH271292   1.172   4.980   3.781 -0.0839  0.3614  0.8257
16626TIP3    H171293   1.225   4.911   3.820 -1.9401 -1.0870  0.8997
16626TIP3    H271294   1.157   5.043   3.852 -0.2224 -0.2798  1.3679
16627TIP3   OH271295   1.005   3.193   4.934  0.0065  0.1776  0.4080
16627TIP3    H171296   1.014   3.100   4.911  2.6420  0.4066  0.2891
16627TIP3    H271297   1.026   3.197   5.027  0.4503  0.7381  0.2837
16628TIP3   OH271298   5.870   3.301  10.873 -0.0860  0.5254  0.2197
16628TIP3    H171299   5.842   3.217  10.840  0.3601  0.2331  0.5645
16628TIP3    H271300   5.955   3.284  10.914  0.3331  1.2743 -0.3151
16629TIP3   OH271301   1.303   4.683   5.538  0.4535  0.4001  0.2349
16629TIP3    H171302   1.336   4.593   5.533 -0.6987 -0.0323 -0.1264
16629TIP3    H271303   1.353   4.730   5.472 -0.2520 -0.4619 -0.9781
16630TIP3   OH271304   4.758   2.631   6.166  0.2601 -0.5368  0.9508
16630TIP3    H171305   4.695   2.559   6.174 -0.0508 -0.7153 -1.8841
16630TIP3    H271306   4.712   2.707   6.201 -0.8230 -1.0583  0.7190
16631TIP3   OH271307   6.286   0.077  11.862 -0.0724  0.3083  0.0441
16631TIP3    H171308   6.234   0.078  11.782  1.9208  1.9692 -1.3312
16631TIP3    H271309   6.353   0.011  11.846 -0.6891 -0.5932  1.0893
16632TIP3   OH271310   6.335   4.332  16.219  0.5332 -0.5298  0.0905
16632TIP3    H171311   6.408   4.366  16.168  0.6417 -1.7866 -0.6301
16632TIP3    H271312   6.371   4.320  16.307  0.7052  0.4609  0.1573
16633TIP3   OH271313   3.837   0.789  12.021 -0.3779 -0.3534 -0.4971
16633TIP3    H171314   3.747   0.764  12.000 -1.1717  0.3381  1.7850
16633TIP3    H271315   3.863   0.730  12.092 -0.2475  1.5307  1.0909
16634TIP3   OH271316   2.777   0.606  12.202  0.0890  0.4146  0.1071
16634TIP3    H171317   2.769   0.701  12.213 -0.2038  0.2784  1.2128
16634TIP3    H271318   2.716   0.570  12.266  0.7421 -0.5366  0.2088
16635TIP3   OH271319   1.865   3.084   1.425  0.3073 -0.1550 -0.0504
16635TIP3    H171320   1.772   3.080   1.447  0.1511 -0.7997 -0.8102
16635TIP3    H271321   1.874   3.166   1.376 -0.3857 -1.3460 -2.2827
16636TIP3   OH271322   4.799   6.586   1.777  0.4240  0.1636  0.0170
16636TIP3    H171323   4.755   6.568   1.694 -0.1309  0.6546  0.1996
16636TIP3    H271324   4.844   6.504   1.798 -2.1707 -1.1855  0.9000
16637TIP3   OH271325   5.908   1.549  16.707  0.2534  0.0063 -0.9326
16637TIP3    H171326   5.877   1.570  16.795  0.0208  0.5542 -1.1422
16637TIP3    H271327   5.994   1.591  16.701 -0.8316  2.2373 -1.8693
16638TIP3   OH271328   4.887   5.801   1.293  0.0418  0.0532  0.8331
16638TIP3    H171329   4.827   5.791   1.367 -1.1282  0.6923  0.0027
16638TIP3    H271330   4.879   5.719   1.244  0.6074 -0.2593  1.2588
16639TIP3   OH271331   1.681   5.157  14.555  0.0018  0.1154 -0.5199
16639TIP3    H171332   1.589   5.129  14.552 -0.2034  0.3312  1.8983
16639TIP3    H271333   1.729   5.087  14.511 -0.9638 -2.0215  1.5866
16640TIP3   OH271334   0.778   6.637  12.524 -0.2165 -0.7479  0.9535
16640TIP3    H171335   0.692   6.677  12.540  0.5074  0.7719  1.2693
16640TIP3    H271336   0.832   6.710  12.492  0.6873 -1.9030 -0.2259
16641TIP3   OH271337   1.617   3.531   4.483 -0.8490 -0.0157 -0.1257
16641TIP3    H171338   1.525   3.510   4.500 -1.0360  0.2127 -0.8293
16641TIP3    H271339   1.631   3.508   4.392  0.3999 -2.1414  0.5297
16642TIP3   OH271340   5.730   0.599   0.998 -0.1564  0.2001 -0.3008
16642TIP3    H171341   5.782   0.519   1.007  0.3407  0.5385 -0.1226
16642TIP3    H271342   5.694   0.614   1.086  0.1086  0.4053 -0.2230
16643TIP3   OH271343   5.093   4.638  11.543  0.5477  0.0136  0.2124
16643TIP3    H171344   5.130   4.652  11.630  1.3270 -0.8370  0.0293
16643TIP3    H271345   5.052   4.551  11.548 -0.8858  0.6536  0.2140
16644TIP3   OH271346   1.181   3.279   4.467  0.0550  0.2864 -0.1618
16644TIP3    H171347   1.121   3.210   4.497 -0.0775  0.2831 -0.4290
16644TIP3    H271348   1.191   3.263   4.373 -0.2565  0.8399 -0.2947
16645TIP3   OH271349   2.889   3.151   1.584  0.3437 -0.4217  0.1134
16645TIP3    H171350   2.867   3.066   1.621  1.0803  0.0866  1.8295
16645TIP3    H271351   2.963   3.182   1.637  0.6634  0.9053 -1.0361
16646TIP3   OH271352   4.868   1.771   3.329  0.5691  0.4642  0.3099
16646TIP3    H171353   4.907   1.689   3.358  1.7167  1.0088  0.3484
16646TIP3    H271354   4.786   1.777   3.377  1.4104  0.3045  1.8173
16647TIP3   OH271355   0.968   3.090  14.816 -0.2820 -0.5680  0.3310
16647TIP3    H171356   0.944   3.170  14.769 -0.2630 -0.3701  0.6609
16647TIP3    H271357   1.038   3.051  14.763  0.8937  0.5100  1.0548
16648TIP3   OH271358   4.629   3.861   6.130  0.5038 -0.1077 -0.6578
16648TIP3    H171359   4.602   3.918   6.202  1.4453 -1.6677  0.9915
16648TIP3    H271360   4.709   3.902   6.097  0.8368 -0.1182  0.1144
16649TIP3   OH271361   2.031   5.090  16.380 -0.0498 -0.0237  0.0299
16649TIP3    H171362   1.958   5.105  16.321 -1.3778 -1.5307  1.2046
16649TIP3    H271363   1.994   5.038  16.452  2.0565 -0.3889  0.9279
16650TIP3   OH271364   2.321   0.135  16.142  0.3437  0.5727 -0.1140
16650TIP3    H171365   2.227   0.121  16.131  0.2751 -0.1190  1.1210
16650TIP3    H271366   2.351   0.166  16.057 -0.6417 -1.2537 -1.1922
16651TIP3   OH271367   2.224   1.972  12.670  0.1100  0.5780 -0.3905
16651TIP3    H171368   2.153   2.036  12.677 -0.2084  0.2978 -0.9863
16651TIP3    H271369   2.290   2.015  12.615  1.1406  1.4716  1.4351
16652TIP3   OH271370   1.480   2.110   3.980  0.0793  0.4941  0.5464
16652TIP3    H171371   1.513   2.143   3.896  2.7687  1.1141  1.7463
16652TIP3    H271372   1.521   2.024   3.989 -0.7482  0.1336  0.9174
16653TIP3   OH271373   1.984   4.908  11.647 -0.1379  0.6092  0.9260
16653TIP3    H171374   2.077   4.901  11.627 -0.6246  2.7700 -3.1807
16653TIP3    H271375   1.979   4.963  11.725  1.9824 -0.5779  1.9583
16654TIP3   OH271376   4.871   5.861   4.247 -0.2754 -0.1143 -0.1612
16654TIP3    H171377   4.918   5.927   4.297 -0.8438  0.8635 -0.8913
16654TIP3    H271378   4.854   5.791   4.310 -1.4701  1.3158  1.1844
16655TIP3   OH271379   0.120   1.170   0.769  0.4526 -0.5191 -0.1586
16655TIP3    H171380   0.045   1.154   0.712 -1.6025  0.2540  2.1283
16655TIP3    H271381   0.148   1.259   0.746 -0.0015 -0.4182 -0.3455
16656TIP3   OH271382   4.374   5.980  16.418  0.5097 -0.4115 -0.7747
16656TIP3    H171383   4.406   6.054  16.470  1.1041 -1.0281 -0.2519
16656TIP3    H271384   4.448   5.919  16.415  0.2062 -0.7427 -1.6658
16657TIP3   OH271385   5.955   3.178   4.961 -0.4427 -0.3265  0.0504
16657TIP3    H171386   5.935   3.098   5.011 -1.4765 -0.5768 -0.7260
16657TIP3    H271387   6.042   3.162   4.925  0.0431 -0.4179  1.2005
16658TIP3   OH271388   6.084   5.866  15.805  0.1778  0.9577  0.1110
16658TIP3    H171389   6.083   5.890  15.898  0.4262  0.6716  0.1898
16658TIP3    H271390   5.996   5.832  15.788  0.3673  0.2875  0.4377
16659TIP3   OH271391   3.669   3.295   0.851 -0.9254  0.3179  0.1656
16659TIP3    H171392   3.600   3.229   0.848 -1.4144  0.8431 -0.8084
16659TIP3    H271393   3.751   3.245   0.848 -1.2459 -0.3082  1.3718
16660TIP3   OH271394   3.671   0.353  11.709 -0.6838 -0.3055  0.2074
16660TIP3    H171395   3.760   0.318  11.715 -0.7374 -0.6407 -0.8588
16660TIP3    H271396   3.674   0.415  11.636 -1.7393 -1.6448 -1.0347
16661TIP3   OH271397   6.235   6.725  16.563 -0.0253 -0.1711 -0.6815
16661TIP3    H171398   6.225   6.797  16.501 -2.4242 -1.2565 -1.6748
16661TIP3    H271399   6.146   6.710  16.597  0.5661 -2.0747  0.1531
16662TIP3   OH271400   2.860   5.206  14.997  0.6744  0.3176  0.5156
16662TIP3    H171401   2.955   5.209  15.012  1.0673 -0.1647 -1.5313
16662TIP3    H271402   2.833   5.297  14.990  0.7910  0.4904  2.0349
16663TIP3   OH271403   1.456   5.090   3.977 -0.2810  0.0610 -1.1850
16663TIP3    H171404   1.480   5.025   4.044  0.8836  0.5583 -1.0811
16663TIP3    H271405   1.361   5.095   3.981 -0.3661 -1.3676 -0.9423
16664TIP3   OH271406   3.582   0.951  12.019  0.7595 -0.1335 -0.1080
16664TIP3    H171407   3.661   0.981  12.064  0.2418 -0.2518  0.9280
16664TIP3    H271408   3.597   0.858  12.002  2.0339  0.4346 -2.5957
16665TIP3   OH271409   5.222   5.745   6.296  0.6067 -0.1512  0.0839
16665TIP3    H171410   5.136   5.767   6.332  0.8048 -0.7499  0.9505
16665TIP3    H271411   5.239   5.657   6.327  2.0165  0.3633  0.8552
16666TIP3   OH271412   0.449   5.738  11.459  0.2658  0.5830  0.2750
16666TIP3    H171413   0.363   5.705  11.484  0.7551 -0.5746  0.5088
16666TIP3    H271414   0.479   5.788  11.534 -0.6806  2.0115 -0.2566
16667TIP3   OH271415   5.537   2.690  11.112 -0.3226  0.1803 -0.3513
16667TIP3    H171416   5.565   2.710  11.201  0.8340 -0.5706 -0.5287
16667TIP3    H271417   5.525   2.775  11.071 -3.8100  0.6793  1.3297
16668TIP3   OH271418   3.439   0.248  14.111  0.3479  0.1028  0.0163
16668TIP3    H171419   3.502   0.242  14.183  0.3817  0.2028 -0.0049
16668TIP3    H271420   3.431   0.341  14.093  0.2829  0.0832 -0.0601
16669TIP3   OH271421   1.455   0.897  13.359  0.2199  0.0807 -0.3789
16669TIP3    H171422   1.396   0.972  13.357 -1.0036 -0.6948  2.4670
16669TIP3    H271423   1.413   0.834  13.418  2.1171 -2.0867 -1.1693
16670TIP3   OH271424   2.246   4.120  16.144  0.6247 -0.1311 -0.0333
16670TIP3    H171425   2.320   4.161  16.187  1.3000 -0.4667 -0.8464
16670TIP3    H271426   2.200   4.193  16.101 -0.6028  0.3489  1.9750
16671TIP3   OH271427   5.886   5.349   0.037 -0.2508 -0.6446  0.0872
16671TIP3    H171428   5.881   5.363  -0.058 -0.0847  0.2969  0.2045
16671TIP3    H271429   5.853   5.431   0.075  0.0213 -0.8779  0.8446
16672TIP3   OH271430   0.914   4.576   4.331  0.2409 -0.3777 -0.0978
16672TIP3    H171431   0.998   4.621   4.336 -0.0610  0.2473 -0.5625
16672TIP3    H271432   0.923   4.503   4.393  0.5567  0.6207  1.0904
16673TIP3   OH271433   1.148   0.122   0.854 -0.4554  0.3112 -0.1869
16673TIP3    H171434   1.137   0.216   0.867  2.2518  0.5519  0.9049
16673TIP3    H271435   1.066   0.083   0.886 -1.5428  2.2503 -0.4916
16674TIP3   OH271436   2.095   5.677  16.026 -0.1513 -0.4279  0.1313
16674TIP3    H171437   2.064   5.587  16.017 -0.4430 -0.2156 -1.2873
16674TIP3    H271438   2.185   5.674  15.995 -0.5534 -0.0300 -1.1651
16675TIP3   OH271439   5.710   0.122   3.252  0.1688 -0.1195 -0.0435
16675TIP3    H171440   5.650   0.133   3.327  0.9076  0.5237  0.4635
16675TIP3    H271441   5.655   0.140   3.176 -0.5520 -0.5981  0.3452
16676TIP3   OH271442   0.190   3.395  14.267 -0.0013  0.1886 -0.1902
16676TIP3    H171443   0.106   3.439  14.272  0.2317  0.6476 -0.2802
16676TIP3    H271444   0.239   3.443  14.200  0.6313  0.4537  0.4406
16677TIP3   OH271445   2.561   5.589  15.465  0.0190  0.5163 -0.3149
16677TIP3    H171446   2.526   5.613  15.379  1.5324  2.4710 -0.4490
16677TIP3    H271447   2.610   5.509  15.450  0.5718  1.0342 -1.3721
16678TIP3   OH271448   3.142   2.201  12.930 -0.0789 -0.0001  0.0106
16678TIP3    H171449   3.151   2.296  12.934  1.0958 -0.1245  1.5260
16678TIP3    H271450   3.055   2.183  12.965 -1.7082  0.6348 -3.3912
16679TIP3   OH271451   5.617   1.244  11.657  0.4445 -0.1640 -0.0873
16679TIP3    H171452   5.596   1.171  11.599  0.9381  1.1950 -2.0581
16679TIP3    H271453   5.687   1.210  11.714  0.6794 -1.2073 -0.9705
16680TIP3   OH271454   2.277   1.554   2.400  0.0542  0.2854 -0.5270
16680TIP3    H171455   2.216   1.604   2.455  0.4795 -0.8772  1.0936
16680TIP3    H271456   2.364   1.575   2.435  0.2263 -1.8204  0.4903
16681TIP3   OH271457   4.125   6.240  11.371 -0.0238 -0.6176  0.7334
16681TIP3    H171458   4.057   6.247  11.304  0.9078  0.1383 -0.1790
16681TIP3    H271459   4.178   6.165  11.343  0.1892 -0.4869  0.7858
16682TIP3   OH271460   4.135   2.247   1.405 -0.2596 -0.1748 -0.2457
16682TIP3    H171461   4.112   2.204   1.487  0.3514  0.6754  0.4010
16682TIP3    H271462   4.195   2.186   1.362  3.0740  1.1376  2.0648
16683TIP3   OH271463   2.214   2.248  15.314 -0.3393  0.1693  0.3464
16683TIP3    H171464   2.259   2.328  15.341 -0.0447  0.5744 -1.2198
16683TIP3    H271465   2.138   2.279  15.265 -0.5938 -0.5131  0.3029
16684TIP3   OH271466   6.356   1.930  16.070 -0.0251  0.0532  0.0197
16684TIP3    H171467   6.326   1.873  15.999 -2.4373  0.7600  0.3597
16684TIP3    H271468   6.330   1.886  16.150 -1.4968  1.3107  0.2980
16685TIP3   OH271469   2.555   1.832  10.991  0.4283  0.8580 -0.2794
16685TIP3    H171470   2.643   1.809  10.962 -0.1521 -2.5909  0.2669
16685TIP3    H271471   2.508   1.855  10.911  1.0282 -0.2638 -0.9719
16686TIP3   OH271472   3.930   4.595  12.161  0.0146  0.1561 -0.2925
16686TIP3    H171473   3.949   4.515  12.210  1.9518 -0.9279 -2.5867
16686TIP3    H271474   4.017   4.632  12.143 -0.7752  1.8981 -0.6780
16687TIP3   OH271475   4.552   5.571   2.558  0.0495  0.5286 -0.1157
16687TIP3    H171476   4.512   5.570   2.645  2.4434  0.9623  1.0773
16687TIP3    H271477   4.633   5.522   2.569  0.5895  0.9114 -2.0424
16688TIP3   OH271478   5.429   2.506  13.662  0.3266 -0.1244 -0.1067
16688TIP3    H171479   5.384   2.436  13.616  1.2073 -1.4632  1.0009
16688TIP3    H271480   5.521   2.479  13.665  0.4747  0.4106  1.4768
16689TIP3   OH271481   4.127   2.805   0.314  0.0495 -0.5954 -0.2378
16689TIP3    H171482   4.049   2.816   0.369  0.7969  1.1446  0.5665
16689TIP3    H271483   4.172   2.728   0.350 -0.5294 -0.7025  0.2648
16690TIP3   OH271484   1.910   6.184   3.772 -0.1665  0.0931 -0.6551
16690TIP3    H171485   1.838   6.231   3.815 -0.0640 -0.1122 -0.2519
16690TIP3    H271486   1.872   6.100   3.747 -0.4092  0.4657 -1.5679
16691TIP3   OH271487   0.239   1.678   4.587 -0.4224  0.5721  0.1101
16691TIP3    H171488   0.159   1.626   4.580  0.6767 -0.9587 -1.8261
16691TIP3    H271489   0.235   1.739   4.513 -1.1372  2.5797  1.6931
16692TIP3   OH271490   4.985   2.495   2.751 -0.3011  0.2979  0.6372
16692TIP3    H171491   4.925   2.558   2.710  0.0931  0.3576  0.1377
16692TIP3    H271492   4.986   2.518   2.843 -1.7031 -0.2315  0.8112
16693TIP3   OH271493   3.503   0.717  14.898  0.4536 -0.4303 -0.1218
16693TIP3    H171494   3.410   0.735  14.892  0.4142 -0.6483 -0.1939
16693TIP3    H271495   3.531   0.703  14.808  0.7955  0.7611 -0.2192
16694TIP3   OH271496   6.026   1.527  15.967  0.4762 -0.6898  0.0305
16694TIP3    H171497   6.091   1.584  15.925 -0.6328  1.2568  0.8111
16694TIP3    H271498   5.952   1.525  15.905  0.8346 -2.0598 -0.3910
16695TIP3   OH271499   6.162   1.395  10.273 -0.0209 -0.0013  0.0450
16695TIP3    H171500   6.123   1.483  10.266  0.6985  0.3282  0.1647
16695TIP3    H271501   6.150   1.357  10.185 -0.0062  0.3507 -0.1120
16696TIP3   OH271502   3.579   2.479  16.784 -0.4268 -0.2884  0.2991
16696TIP3    H171503   3.513   2.445  16.723  1.4606 -0.2282 -1.9643
16696TIP3    H271504   3.571   2.574  16.778 -0.7258 -0.2882  0.7178
16697TIP3   OH271505   6.701   6.588  11.537  0.7589  0.4548  0.1973
16697TIP3    H171506   6.640   6.519  11.561 -0.1985  1.1930 -0.0418
16697TIP3    H271507   6.788   6.551  11.555  0.4184 -1.6110 -1.9402
16698TIP3   OH271508   2.606   6.570  16.409  0.2446 -0.0353  0.2026
16698TIP3    H171509   2.547   6.640  16.382 -0.6208 -0.5317  0.7729
16698TIP3    H271510   2.606   6.508  16.336  1.2150  0.6625 -0.4149
16699TIP3   OH271511   4.547   0.687  12.393 -0.4266  0.1627  0.3516
16699TIP3    H171512   4.556   0.609  12.448 -3.2761 -0.7809 -0.3413
16699TIP3    H271513   4.537   0.759  12.456 -0.3577 -0.4011  1.0220
16700TIP3   OH271514   4.916   1.722   2.373 -0.0329  0.4018  0.4432
16700TIP3    H171515   5.004   1.700   2.402 -0.8295  0.0197  2.7991
16700TIP3    H271516   4.900   1.665   2.298  1.3222 -0.3068  0.6746
16701TIP3   OH271517   5.041   4.024   0.948  0.2531 -0.0352 -0.3380
16701TIP3    H171518   5.118   4.043   1.002 -0.8352  0.2941  1.1608
16701TIP3    H271519   4.981   4.096   0.967  0.4332  1.0029 -3.2662
16702TIP3   OH271520   1.367   4.781  14.741 -0.0603 -0.1534  0.5009
16702TIP3    H171521   1.274   4.796  14.722  0.1790 -0.0053 -0.6227
16702TIP3    H271522   1.404   4.869  14.747 -0.0293 -0.2091  1.1649
16703TIP3   OH271523   3.669   6.219  11.521  0.1684 -0.7156  0.0466
16703TIP3    H171524   3.747   6.228  11.577 -0.5834 -1.2327  1.2162
16703TIP3    H271525   3.654   6.125  11.516  1.0581 -0.7972 -2.2697
16704TIP3   OH271526   1.561   2.346  14.336 -0.4846 -0.3097 -0.5176
16704TIP3    H171527   1.563   2.286  14.410 -0.7515 -1.0422 -1.0967
16704TIP3    H271528   1.622   2.309  14.272  2.7344  2.2798  0.7549
16705TIP3   OH271529   0.098   4.661   5.971  0.1282  0.3528 -0.2463
16705TIP3    H171530   0.066   4.675   6.060  1.4296  0.3013  0.2605
16705TIP3    H271531   0.163   4.731   5.958 -1.2663  1.4277 -1.8113
16706TIP3   OH271532   5.262   6.019   4.674  0.4644 -0.1157  0.1559
16706TIP3    H171533   5.288   6.012   4.766 -1.6159 -0.6185  0.7613
16706TIP3    H271534   5.183   5.966   4.668 -1.2641  2.4113 -1.1778
16707TIP3   OH271535   3.300   6.090  13.896  0.5988  0.1691  0.1326
16707TIP3    H171536   3.264   6.171  13.931  0.3293  0.5082 -0.8971
16707TIP3    H271537   3.339   6.046  13.972  0.7466  1.2540  0.7004
16708TIP3   OH271538   3.197   3.022  11.096  0.5234  0.2545  0.1675
16708TIP3    H171539   3.180   3.090  11.030  1.5716  0.6576  0.3041
16708TIP3    H271540   3.285   2.991  11.077 -0.1165 -1.4679 -0.2259
16709TIP3   OH271541   1.397   5.930   5.227 -0.7132 -0.7368 -0.0139
16709TIP3    H171542   1.361   5.978   5.302  1.9083  0.6444  0.4797
16709TIP3    H271543   1.442   5.856   5.265 -1.3154 -1.3435 -0.4567
16710TIP3   OH271544   0.970   3.092  12.213 -0.0956  0.4876  0.2881
16710TIP3    H171545   0.974   3.109  12.119 -0.9185 -1.1274 -0.0638
16710TIP3    H271546   0.958   3.179  12.252  2.9726  1.5707 -0.8398
16711TIP3   OH271547   6.540   4.774   5.271  0.3126  0.2089  0.1655
16711TIP3    H171548   6.569   4.696   5.317 -2.8516 -0.7663  0.7463
16711TIP3    H271549   6.529   4.840   5.339 -0.8418 -0.1014  0.2936
16712TIP3   OH271550   5.107   3.558  15.231 -0.1084  0.0461  0.0098
16712TIP3    H171551   5.081   3.470  15.260  3.9084 -1.9283 -1.6248
16712TIP3    H271552   5.064   3.568  15.146 -0.1501 -0.5612 -0.0460
16713TIP3   OH271553   1.375   1.607  11.748 -0.6775 -0.0145  0.3903
16713TIP3    H171554   1.354   1.645  11.833 -1.7827  1.7663 -0.6023
16713TIP3    H271555   1.373   1.512  11.762  0.1292  0.2410  2.5278
16714TIP3   OH271556   6.060   6.287   2.243 -0.5204  0.3350  0.0651
16714TIP3    H171557   6.006   6.353   2.285  0.3885  1.5828 -0.6785
16714TIP3    H271558   6.144   6.291   2.290 -0.8623 -1.2272  0.8770
16715TIP3   OH271559   1.521   3.939  13.500  0.0450 -0.2887  0.5461
16715TIP3    H171560   1.591   3.907  13.557  0.1820  0.5710  0.8827
16715TIP3    H271561   1.554   3.926  13.411  0.4358 -0.3261  0.6947
16716TIP3   OH271562   4.201   2.435   0.697  0.0723 -0.0561 -0.0652
16716TIP3    H171563   4.246   2.410   0.778 -1.8250 -2.0239  0.4834
16716TIP3    H271564   4.269   2.430   0.630  1.5580  1.0518  1.2725
16717TIP3   OH271565   0.706   3.921   5.363 -0.6122 -0.4574  0.1057
16717TIP3    H171566   0.678   4.013   5.372 -0.3887 -0.4558  0.8441
16717TIP3    H271567   0.625   3.873   5.351 -0.6688 -0.0609 -1.2987
16718TIP3   OH271568   0.083   3.586   5.996 -0.2766 -0.2065  0.4743
16718TIP3    H171569   0.088   3.623   6.084  2.1378 -1.2952  0.8637
16718TIP3    H271570   0.169   3.549   5.980 -0.2259  1.0078 -2.8558
16719TIP3   OH271571   6.640   3.063   2.052 -0.1239  0.2527 -0.4414
16719TIP3    H171572   6.731   3.077   2.027  0.6865 -0.3845  1.8844
16719TIP3    H271573   6.624   3.127   2.122 -1.1894 -0.2072 -0.2410
16720TIP3   OH271574   0.068   1.302  12.100 -0.3684  0.4469 -0.2996
16720TIP3    H171575   0.104   1.349  12.025  0.7859  0.7833  0.4326
16720TIP3    H271576  -0.025   1.291  12.079  0.1740 -0.7177 -2.4202
16721TIP3   OH271577   1.281   5.151   1.267 -0.3534 -0.0751  0.0850
16721TIP3    H171578   1.287   5.169   1.173  0.6653  0.2187  0.1876
16721TIP3    H271579   1.190   5.169   1.289 -0.2577  1.3810 -0.5511
16722TIP3   OH271580   2.371   4.421   1.564 -0.3150 -0.5069  0.0036
16722TIP3    H171581   2.448   4.424   1.620 -1.7947  2.3537  2.1431
16722TIP3    H271582   2.405   4.440   1.476  1.4272  0.6696  0.8801
16723TIP3   OH271583   4.864   5.954   4.972 -0.2416  0.5039  0.3234
16723TIP3    H171584   4.926   5.882   4.959 -1.3128 -0.4156  0.1757
16723TIP3    H271585   4.905   6.029   4.928  1.0874  0.1065  0.8473
16724TIP3   OH271586   4.596   4.753   3.700  0.2688  0.6578  0.6013
16724TIP3    H171587   4.642   4.752   3.616  1.6649 -0.3206  1.3579
16724TIP3    H271588   4.510   4.789   3.678  0.2574 -0.4323 -1.4186
16725TIP3   OH271589   4.339   3.076   5.404  0.0320  0.8856  0.5074
16725TIP3    H171590   4.254   3.034   5.395 -0.4655  1.6105  1.6195
16725TIP3    H271591   4.394   3.035   5.336 -1.4128  1.0115 -0.7840
16726TIP3   OH271592   6.470   4.552  12.353 -0.0228  0.8011  0.9025
16726TIP3    H171593   6.440   4.491  12.420 -1.5225  0.3580 -0.1170
16726TIP3    H271594   6.556   4.519  12.328  0.9162  1.4196  3.0952
16727TIP3   OH271595   6.288   2.751  11.987 -0.1514  0.2489  0.1502
16727TIP3    H171596   6.261   2.843  11.986  0.2561  0.3760  0.6792
16727TIP3    H271597   6.212   2.704  11.952 -0.5217  0.7435  0.2692
16728TIP3   OH271598   4.244   3.267  10.973  0.7312 -0.1618 -0.0251
16728TIP3    H171599   4.326   3.217  10.974  0.5090 -0.6061 -1.5059
16728TIP3    H271600   4.260   3.338  10.911  0.3352  0.3645  0.4683
16729TIP3   OH271601   3.780   0.685  13.430  0.1058  0.0039  0.0051
16729TIP3    H171602   3.783   0.781  13.423 -0.6614  0.0772  0.6756
16729TIP3    H271603   3.739   0.668  13.514 -1.0517 -0.9215 -0.7174
16730TIP3   OH271604   4.260   5.877   3.342  0.2901 -0.2882 -0.4150
16730TIP3    H171605   4.225   5.965   3.350  1.1055 -0.1450  4.0085
16730TIP3    H271606   4.319   5.881   3.266  0.7784  3.1709 -0.0084
16731TIP3   OH271607   2.059   4.641  11.491 -0.1397 -0.3373 -0.3534
16731TIP3    H171608   2.057   4.549  11.466 -4.0324  0.2378 -3.2812
16731TIP3    H271609   2.014   4.644  11.575  0.1553 -1.1287 -0.1598
16732TIP3   OH271610   5.165   4.323  14.175  0.1310 -0.0437 -0.2690
16732TIP3    H171611   5.117   4.351  14.097 -0.1217 -1.1713 -0.5374
16732TIP3    H271612   5.247   4.373  14.172  1.5194 -2.1630 -2.9361
16733TIP3   OH271613   3.152   3.962   5.449 -0.9546  0.4539  0.3657
16733TIP3    H171614   3.110   3.955   5.363  0.1869  0.1927 -0.1888
16733TIP3    H271615   3.180   4.053   5.454  3.6497 -0.5761 -1.8791
16734TIP3   OH271616   4.736   3.815  14.063 -0.3535 -0.5760 -0.2690
16734TIP3    H171617   4.648   3.782  14.080 -0.1930 -1.1217 -0.4689
16734TIP3    H271618   4.724   3.909  14.047 -0.5613 -0.0633  2.3846
16735TIP3   OH271619   2.118   5.217  12.245 -0.2017 -0.1237  0.5843
16735TIP3    H171620   2.086   5.133  12.279 -2.0692 -0.4863 -1.8204
16735TIP3    H271621   2.163   5.193  12.163  2.0489  0.9483  1.4238
16736TIP3   OH271622   0.984   5.048  16.596  0.5388  0.0832  0.0977
16736TIP3    H171623   0.960   5.100  16.672  1.2470  0.0199  0.3753
16736TIP3    H271624   1.080   5.046  16.598  0.5622 -2.4029  0.9396
16737TIP3   OH271625   3.220   3.553   0.323  0.5739 -0.1039  0.5437
16737TIP3    H171626   3.314   3.541   0.332  0.6404  0.1938  0.2918
16737TIP3    H271627   3.187   3.468   0.296  0.7149 -0.3148  1.0338
16738TIP3   OH271628   1.998   3.165   5.969 -0.3527  0.2060  0.1760
16738TIP3    H171629   1.934   3.102   5.936  1.2326 -0.1202 -2.6626
16738TIP3    H271630   2.063   3.112   6.014 -2.0618  0.5666  3.3380
16739TIP3   OH271631   0.033   4.783  11.959  0.2264  0.3819 -0.3139
16739TIP3    H171632   0.084   4.703  11.946  1.3026  0.8670  0.8612
16739TIP3    H271633  -0.058   4.752  11.960  0.6442 -0.9284  0.7069
16740TIP3   OH271634   2.382   3.075   5.978 -0.6298 -0.4492  0.4605
16740TIP3    H171635   2.384   2.981   5.996  2.9719 -0.6762 -0.3573
16740TIP3    H271636   2.381   3.116   6.065 -2.7023 -1.1565  0.8235
16741TIP3   OH271637   3.614   2.098   0.683  0.0758 -0.0834  0.3503
16741TIP3    H171638   3.556   2.032   0.722 -1.5739  1.2989  0.3426
16741TIP3    H271639   3.647   2.148   0.758 -2.6974  2.2493  0.2012
16742TIP3   OH271640   4.295   1.804   6.192  0.1699  0.0044  0.0661
16742TIP3    H171641   4.309   1.777   6.282  1.4181  1.5446  0.3943
16742TIP3    H271642   4.201   1.798   6.179 -0.0649  0.0680  1.5768
16743TIP3   OH271643   0.173   5.081  11.620  0.3564  0.2870 -0.0075
16743TIP3    H171644   0.266   5.102  11.628  1.4886 -2.3756 -3.7499
16743TIP3    H271645   0.169   4.986  11.628 -2.0620  0.3131 -0.1389
16744TIP3   OH271646   1.582   0.163   1.649 -0.5474 -0.2092  0.3461
16744TIP3    H171647   1.569   0.136   1.740  0.2344  1.7287  1.0812
16744TIP3    H271648   1.651   0.105   1.616  0.0747 -0.1018  1.4099
16745TIP3   OH271649   4.893   6.420  16.204 -0.2961 -0.8799  0.1034
16745TIP3    H171650   4.824   6.474  16.242 -0.6053  0.5263 -2.2676
16745TIP3    H271651   4.851   6.377  16.129  1.1890 -0.6023 -0.9258
16746TIP3   OH271652   1.094   2.245  13.020  0.1014  0.2916  0.0211
16746TIP3    H171653   1.150   2.246  13.097  1.0186  1.1416 -0.6314
16746TIP3    H271654   1.141   2.191  12.957  0.0612  0.7735 -0.4326
16747TIP3   OH271655   2.704   0.922   4.472 -0.7226 -0.2445 -0.1738
16747TIP3    H171656   2.706   0.944   4.378 -1.0234  0.3383 -0.0482
16747TIP3    H271657   2.621   0.958   4.503 -0.7180 -0.6190  0.2783
16748TIP3   OH271658   2.803   2.254  10.381  0.5965 -0.1987 -0.2384
16748TIP3    H171659   2.862   2.179  10.369 -2.1705 -2.6615  0.5642
16748TIP3    H271660   2.739   2.224  10.445 -1.5412  2.3192 -1.0471
16749TIP3   OH271661   6.267   6.359   2.021 -0.1523 -0.0515 -0.1390
16749TIP3    H171662   6.272   6.375   2.115 -2.1078 -2.4910  0.4806
16749TIP3    H271663   6.337   6.413   1.984  1.5705 -0.0246  2.8284
16750TIP3   OH271664   5.319   3.433  10.421  0.2265  0.5511  0.0876
16750TIP3    H171665   5.327   3.502  10.356 -0.4246  0.3269 -0.2342
16750TIP3    H271666   5.251   3.464  10.481  0.3407  0.4489  0.2709
16751TIP3   OH271667   5.396   4.879   5.551  0.8955 -0.4103  0.2108
16751TIP3    H171668   5.475   4.868   5.497  0.7307 -0.4635 -0.0217
16751TIP3    H271669   5.396   4.803   5.609  1.8862  0.4084  1.3389
16752TIP3   OH271670   5.666   0.401  14.557  0.0730  0.0898 -0.5611
16752TIP3    H171671   5.643   0.399  14.464 -0.9956  0.7261 -0.3379
16752TIP3    H271672   5.762   0.405  14.559  0.0893  0.5008 -1.6508
16753TIP3   OH271673   3.118   5.259   0.781 -0.0005 -0.0549 -0.0105
16753TIP3    H171674   3.164   5.265   0.864 -0.6160 -0.0062  0.3360
16753TIP3    H271675   3.096   5.166   0.771  0.3386 -0.1121 -0.2758
16754TIP3   OH271676   5.743   4.636  16.076  0.8722 -0.2807  0.1752
16754TIP3    H171677   5.719   4.611  15.987  1.0043 -2.5483  0.7121
16754TIP3    H271678   5.838   4.648  16.073  0.7537  0.6633 -0.1824
16755TIP3   OH271679   3.265   6.093   3.017 -0.2241 -0.3090  0.3695
16755TIP3    H171680   3.183   6.071   2.972  1.1918 -1.7169 -1.7201
16755TIP3    H271681   3.269   6.033   3.091 -0.3770 -1.3207 -0.4237
16756TIP3   OH271682   0.343   6.633  13.303  0.3559  0.4344  0.1638
16756TIP3    H171683   0.334   6.610  13.395 -0.4895 -0.3455 -0.1016
16756TIP3    H271684   0.422   6.587  13.274  2.3029  2.9082  1.1470
16757TIP3   OH271685   3.725   3.979  16.343 -0.2310 -0.1620  0.4365
16757TIP3    H171686   3.813   4.016  16.353 -0.1598 -0.3116  0.3744
16757TIP3    H271687   3.666   4.053  16.354 -0.2194 -0.4547  2.9842
16758TIP3   OH271688   4.824   5.983  11.106  0.0008  0.6492  0.1093
16758TIP3    H171689   4.833   5.985  11.201 -0.6548 -2.6228  0.3680
16758TIP3    H271690   4.822   6.075  11.080  0.6812  1.6523  3.1786
16759TIP3   OH271691   3.476   1.653   1.895 -0.2724  0.3003 -0.5234
16759TIP3    H171692   3.559   1.685   1.929  0.8039 -2.4082 -0.3489
16759TIP3    H271693   3.480   1.674   1.801 -0.5459  2.3397 -0.1356
16760TIP3   OH271694   3.640   6.799  10.973 -0.6602 -0.0179 -0.3240
16760TIP3    H171695   3.681   6.849  10.902 -1.4929  0.5380 -0.4294
16760TIP3    H271696   3.695   6.818  11.050 -0.2615  0.0795 -0.6291
16761TIP3   OH271697   1.264   4.471   5.325 -0.0095 -0.1470  0.3672
16761TIP3    H171698   1.359   4.483   5.326  0.1482 -1.3111  0.4516
16761TIP3    H271699   1.243   4.437   5.411 -0.3686 -0.8335  0.0162
16762TIP3   OH271700   3.897   2.687   4.812  0.5559 -0.4119  0.0438
16762TIP3    H171701   3.817   2.716   4.857  0.9681 -1.8478  1.8504
16762TIP3    H271702   3.881   2.595   4.792  1.6045 -0.6136  0.0800
16763TIP3   OH271703   1.852   5.318  14.684  0.2819  0.3588  0.3140
16763TIP3    H171704   1.932   5.294  14.731  0.5109 -1.0931 -0.7313
16763TIP3    H271705   1.813   5.234  14.659 -0.4441  1.0579 -1.0171
16764TIP3   OH271706   3.586   4.844  11.344 -0.3282 -0.3064 -0.2927
16764TIP3    H171707   3.641   4.767  11.334 -1.0463 -1.2394  2.1500
16764TIP3    H271708   3.539   4.830  11.426 -1.4627  2.1469 -0.4091
16765TIP3   OH271709   4.845   1.516   4.676  0.4028  0.1095 -0.1432
16765TIP3    H171710   4.808   1.572   4.609  2.6655 -0.3143 -1.8684
16765TIP3    H271711   4.831   1.427   4.644 -1.7675 -0.3564  1.8199
16766TIP3   OH271712   6.244   3.401  11.126  0.2520  0.6852 -0.6912
16766TIP3    H171713   6.294   3.451  11.190 -0.5871  0.1616  0.3864
16766TIP3    H271714   6.282   3.426  11.042  0.7392  2.1067 -0.0762
16767TIP3   OH271715   0.364   2.693   3.926  0.0685 -0.4818 -0.9902
16767TIP3    H171716   0.289   2.712   3.868  0.7312  0.0175 -1.7035
16767TIP3    H271717   0.336   2.615   3.975 -0.8560 -0.4066 -1.3596
16768TIP3   OH271718   1.096   1.742   2.485  0.2925 -0.3343  0.2707
16768TIP3    H171719   1.011   1.720   2.523 -2.0787  0.5300 -3.9231
16768TIP3    H271720   1.109   1.834   2.507  0.7262 -0.7240  1.7651
16769TIP3   OH271721   2.422   2.914   1.917  0.1572 -0.2489 -0.3087
16769TIP3    H171722   2.504   2.867   1.932  0.3993  0.5186  0.8956
16769TIP3    H271723   2.441   3.004   1.944 -0.6344  0.2881 -1.4664
16770TIP3   OH271724   1.588   4.349  13.363  0.0695  0.4465 -0.3226
16770TIP3    H171725   1.534   4.409  13.313 -0.2482 -0.4779 -1.1212
16770TIP3    H271726   1.660   4.403  13.396 -0.4190  1.3338 -0.6726
16771TIP3   OH271727   0.395   4.379   3.641  0.2704 -0.5501 -0.0008
16771TIP3    H171728   0.379   4.334   3.724 -2.2358  1.7344  0.9127
16771TIP3    H271729   0.474   4.431   3.657  0.7352 -1.3451  0.3658
16772TIP3   OH271730   0.855   5.328  13.636 -0.3779 -0.4105  0.4768
16772TIP3    H171731   0.950   5.321  13.644 -0.1625 -0.0317 -1.3428
16772TIP3    H271732   0.829   5.255  13.580 -0.6656  1.3541 -1.8557
16773TIP3   OH271733   6.099   0.747  12.753  0.1414 -0.0285  0.3344
16773TIP3    H171734   6.186   0.784  12.735  1.3124 -0.9616  3.4087
16773TIP3    H271735   6.046   0.823  12.779  0.4629  0.3493 -0.0889
16774TIP3   OH271736   5.829   1.479   2.845  0.3270 -0.4129 -0.2639
16774TIP3    H171737   5.740   1.460   2.873  0.8377 -1.1634  0.9636
16774TIP3    H271738   5.862   1.541   2.911  0.9668 -0.7778 -0.2317
16775TIP3   OH271739   2.289   5.816   4.736  0.3357 -0.5540  0.8776
16775TIP3    H171740   2.264   5.807   4.644 -1.5924  0.2787  1.2594
16775TIP3    H271741   2.263   5.733   4.776  0.1733 -0.5098  0.8651
16776TIP3   OH271742   1.310   0.217   4.286 -0.7256 -0.2446  0.1718
16776TIP3    H171743   1.320   0.283   4.217  0.5354 -0.2408  0.3408
16776TIP3    H271744   1.301   0.268   4.367 -1.2010 -0.2711  0.1427
16777TIP3   OH271745   0.080   5.239   4.302  0.3645  0.1374  0.0593
16777TIP3    H171746   0.061   5.320   4.349  1.4763  0.2934  0.2603
16777TIP3    H271747   0.175   5.238   4.292  0.1905  0.0725 -2.1226
16778TIP3   OH271748   2.800   6.366  11.625 -0.2454 -0.2578 -0.5581
16778TIP3    H171749   2.817   6.399  11.537  0.9177  1.3558  0.2215
16778TIP3    H271750   2.724   6.308  11.615 -0.7385  0.6453 -2.4510
16779TIP3   OH271751   6.381   2.836   6.534 -0.1128 -0.2036 -0.3411
16779TIP3    H171752   6.320   2.899   6.571 -0.1312 -0.1904 -0.3933
16779TIP3    H271753   6.414   2.879   6.454  2.2368  1.0969  1.2097
16780TIP3   OH271754   2.724   4.027   2.730  0.1558 -0.4839  0.0498
16780TIP3    H171755   2.801   3.974   2.709  0.9762  0.7642 -0.2009
16780TIP3    H271756   2.688   4.053   2.645 -0.6177 -1.1358  0.1636
16781TIP3   OH271757   2.177   4.364  15.999  0.0452 -0.2852  0.2125
16781TIP3    H171758   2.120   4.435  16.030 -0.0409 -0.6763  0.9650
16781TIP3    H271759   2.265   4.394  16.018  0.1442  0.4387 -1.1921
16782TIP3   OH271760   4.710   6.573  16.334  0.0487  0.6190  0.0275
16782TIP3    H171761   4.616   6.585  16.343 -0.2313 -1.0452 -0.4182
16782TIP3    H271762   4.742   6.659  16.305 -1.2158  1.3945  0.8270
16783TIP3   OH271763   2.177   3.805   2.436 -0.4945  0.6685  0.0485
16783TIP3    H171764   2.188   3.721   2.391  1.4661 -0.0658  1.7658
16783TIP3    H271765   2.211   3.870   2.375 -0.1470 -0.0187 -0.5036
16784TIP3   OH271766   0.542   6.427  16.302 -0.1277 -0.0883 -0.0619
16784TIP3    H171767   0.597   6.395  16.374  0.5581  1.4932  0.1461
16784TIP3    H271768   0.463   6.459  16.345 -1.2441 -2.2613 -0.3516
16785TIP3   OH271769   6.310   1.108  16.407 -0.4977  0.3532  0.1209
16785TIP3    H171770   6.256   1.036  16.440  0.2896 -0.4616 -0.3434
16785TIP3    H271771   6.336   1.081  16.319  1.0383  0.5058  0.4929
16786TIP3   OH271772   0.555   4.855   5.290  0.2685 -0.0504 -0.7641
16786TIP3    H171773   0.587   4.775   5.331 -4.8328 -2.5442 -0.8830
16786TIP3    H271774   0.586   4.925   5.348  2.2130 -2.3510  1.2360
16787TIP3   OH271775   6.297   3.121  12.191 -0.3965 -0.4672 -0.3231
16787TIP3    H171776   6.298   3.033  12.231 -0.1843 -0.7194 -0.8699
16787TIP3    H271777   6.316   3.105  12.099 -1.3018  0.0758 -0.6072
16788TIP3   OH271778   3.673   1.383   0.601 -0.0935 -0.3945  0.5006
16788TIP3    H171779   3.662   1.379   0.696  0.8883  1.8855  0.7674
16788TIP3    H271780   3.757   1.426   0.588 -0.9420  0.8299 -1.3933
16789TIP3   OH271781   1.426   2.882   5.509  0.8318 -0.6875 -0.6166
16789TIP3    H171782   1.513   2.920   5.496  1.0333 -1.0680 -0.3904
16789TIP3    H271783   1.434   2.792   5.479  0.8527 -1.0883  0.5286
16790TIP3   OH271784   3.550   2.593  14.271  0.1081  0.2058  0.2903
16790TIP3    H171785   3.576   2.652  14.342 -0.9632  0.8510  0.1773
16790TIP3    H271786   3.458   2.573  14.290 -0.4966  1.1840 -1.4290
16791TIP3   OH271787   0.006   3.028  12.250  0.4473 -0.1870  0.1606
16791TIP3    H171788  -0.027   2.938  12.250 -3.7146  1.1343 -0.3064
16791TIP3    H271789  -0.066   3.080  12.287  2.2467  3.1031 -0.5925
16792TIP3   OH271790   5.343   4.252  16.832 -0.7323 -0.2181  0.7335
16792TIP3    H171791   5.416   4.233  16.891 -0.5742  0.6436  0.8333
16792TIP3    H271792   5.329   4.346  16.840 -0.2823  0.0549 -1.0599
16793TIP3   OH271793   5.929   6.059  12.761 -0.0199 -0.0772 -0.2381
16793TIP3    H171794   5.983   6.135  12.739 -0.1932  0.1450  0.0937
16793TIP3    H271795   5.842   6.095  12.776 -0.0585 -0.3114  0.1303
16794TIP3   OH271796   5.141   3.715  16.534  0.4547 -0.2313  0.3386
16794TIP3    H171797   5.149   3.636  16.480  0.8826  0.0648 -0.0351
16794TIP3    H271798   5.221   3.717  16.586  0.6923  0.2339 -0.0340
16795TIP3   OH271799   0.845   6.132   4.071 -0.2122 -0.2068  0.6226
16795TIP3    H171800   0.920   6.084   4.036  0.9505  0.8437  1.5574
16795TIP3    H271801   0.872   6.156   4.160 -1.8005 -0.0759  1.1009
16796TIP3   OH271802   1.997   3.189   2.922 -0.2115  0.2617  0.0565
16796TIP3    H171803   2.054   3.145   2.859 -0.9620  1.7180 -1.7421
16796TIP3    H271804   2.007   3.282   2.903  1.2773  1.0291  3.6943
16797TIP3   OH271805   3.895   5.337  16.471 -0.3884  0.3495  0.0599
16797TIP3    H171806   3.925   5.399  16.405 -1.3413 -0.8090 -1.5439
16797TIP3    H271807   3.947   5.357  16.549  1.3220  1.2871 -1.2597
16798TIP3   OH271808   1.232   0.667   0.063  0.2732  0.2957 -0.0232
16798TIP3    H171809   1.214   0.743   0.008  0.5034 -0.6562 -1.4648
16798TIP3    H271810   1.279   0.606   0.006  2.3399  0.0686  1.7923
16799TIP3   OH271811   1.093   2.205   3.346  0.1346  0.3548  0.0134
16799TIP3    H171812   1.160   2.240   3.404 -0.0256 -1.2565  1.2473
16799TIP3    H271813   1.112   2.244   3.261  1.1921  1.7498  0.8456
16800TIP3   OH271814   0.178   5.907  15.767 -0.0549 -0.6249  0.0462
16800TIP3    H171815   0.145   5.922  15.855  2.9343 -2.2719  1.6211
16800TIP3    H271816   0.255   5.964  15.760  0.3858 -1.3095 -1.0432
16801TIP3   OH271817   3.989   6.315  13.455  0.3750 -0.3922 -0.4052
16801TIP3    H171818   3.959   6.234  13.413 -0.5314 -1.2450  1.7291
16801TIP3    H271819   4.067   6.340  13.406  0.0717 -1.9699 -1.7842
16802TIP3   OH271820   1.378   2.560   0.738 -0.0993  0.2944 -0.2957
16802TIP3    H171821   1.318   2.485   0.740  0.0687  0.1543 -0.5378
16802TIP3    H271822   1.461   2.525   0.770 -0.1238  0.4721 -0.0308
16803TIP3   OH271823   5.181   3.367  12.328  0.3242  0.2756 -0.3207
16803TIP3    H171824   5.206   3.439  12.270  1.3852 -0.3791 -0.6947
16803TIP3    H271825   5.218   3.391  12.413 -1.1559  1.1919  0.1121
16804TIP3   OH271826   0.010   4.991  11.343 -0.3679  0.3316 -0.6156
16804TIP3    H171827   0.076   5.020  11.406 -1.2103  0.3979  0.2600
16804TIP3    H271828  -0.059   5.057  11.348 -1.4467 -0.7942  0.0280
16805TIP3   OH271829   4.133   3.671  12.337 -0.0244  0.0516 -0.4538
16805TIP3    H171830   4.174   3.622  12.408 -2.0907 -2.0559 -0.6166
16805TIP3    H271831   4.047   3.695  12.371 -1.3879 -1.7084 -2.4541
16806TIP3   OH271832   4.509   3.451   1.247 -0.3773  0.4280 -0.1761
16806TIP3    H171833   4.440   3.511   1.218  0.0238  0.6954 -0.5994
16806TIP3    H271834   4.588   3.481   1.202 -0.2747 -0.7569 -0.8515
16807TIP3   OH271835   2.642   1.087   6.169  0.0176 -0.4168  0.0158
16807TIP3    H171836   2.707   1.107   6.236 -0.6103 -0.1181  0.5380
16807TIP3    H271837   2.684   1.020   6.114 -0.1913 -2.1195  1.8301
16808TIP3   OH271838   3.514   4.228   3.724 -0.5694  0.0201 -0.2080
16808TIP3    H171839   3.462   4.197   3.798 -0.4956 -0.7616 -0.4654
16808TIP3    H271840   3.538   4.148   3.678  0.1155  0.4410 -0.5894
16809TIP3   OH271841   3.669   2.105  12.787  0.3873 -0.0293  0.6144
16809TIP3    H171842   3.700   2.015  12.773 -0.7492 -0.6725  1.9945
16809TIP3    H271843   3.731   2.159  12.738  0.6855 -1.5988 -0.8497
16810TIP3   OH271844   0.402   5.857  14.816 -0.4790 -0.0296  0.1035
16810TIP3    H171845   0.345   5.879  14.890 -1.1311 -0.8073 -0.1473
16810TIP3    H271846   0.361   5.899  14.740 -1.1026 -1.1166 -0.1850
16811TIP3   OH271847   2.147   3.993   3.421  0.6055  0.2353 -0.0073
16811TIP3    H171848   2.165   3.928   3.490 -1.4487 -0.3458  0.0652
16811TIP3    H271849   2.220   4.054   3.426  2.5440 -1.9428  0.0543
16812TIP3   OH271850   3.686   0.546   1.019  0.9160 -0.4186  0.9410
16812TIP3    H171851   3.738   0.593   1.084  0.9691  1.4502 -0.3616
16812TIP3    H271852   3.689   0.602   0.941 -2.4027 -0.6209  0.5402
16813TIP3   OH271853   5.356   2.029  11.327 -0.6150 -0.1115 -0.5175
16813TIP3    H171854   5.437   2.028  11.275 -0.2809  3.2847 -0.2716
16813TIP3    H271855   5.385   2.024  11.418 -0.9681 -2.1125 -0.4626
16814TIP3   OH271856   5.934   0.184  13.497  1.0085 -0.8634 -0.2698
16814TIP3    H171857   5.973   0.156  13.415  3.0381 -0.5800  0.5373
16814TIP3    H271858   5.995   0.250  13.532 -0.9350  0.7143  0.3961
16815TIP3   OH271859   0.067   0.122  16.685  0.2420 -0.5287 -0.3943
16815TIP3    H171860   0.038   0.145  16.597 -2.1136 -0.3773  0.3456
16815TIP3    H271861   0.047   0.200  16.738 -1.0124 -1.5618  0.7501
16816TIP3   OH271862   3.630   6.467   4.861 -0.2531  0.3574 -0.3461
16816TIP3    H171863   3.598   6.478   4.951  0.9853  1.0245  0.0352
16816TIP3    H271864   3.611   6.550   4.818  0.1384  0.4326 -0.3770
16817TIP3   OH271865   4.975   2.309  12.076  0.3185  0.1428 -0.0965
16817TIP3    H171866   4.995   2.293  11.984 -2.6595  2.4427 -1.3187
16817TIP3    H271867   4.998   2.227  12.120 -1.7075 -2.5536 -3.5517
16818TIP3   OH271868   1.547   5.626  11.821  0.1831 -0.2930  0.1581
16818TIP3    H171869   1.547   5.539  11.781 -1.1377 -0.4073  0.3770
16818TIP3    H271870   1.627   5.628  11.874  0.6597 -1.0576 -0.5090
16819TIP3   OH271871   1.927   4.711   2.184  0.1623 -0.6672  0.3443
16819TIP3    H171872   1.944   4.706   2.090 -0.8671  0.9245  0.0346
16819TIP3    H271873   2.013   4.730   2.222  0.3569  0.0393 -0.4206
16820TIP3   OH271874   1.364   5.551  14.400 -0.8968  0.1561 -0.0173
16820TIP3    H171875   1.298   5.485  14.423 -0.7789 -0.1783 -0.6283
16820TIP3    H271876   1.392   5.528  14.312 -0.5903  0.8152 -0.1010
16821TIP3   OH271877   1.693   1.338   2.535 -0.2557  0.0030  0.0384
16821TIP3    H171878   1.722   1.410   2.591  0.2831 -0.7621  0.7542
16821TIP3    H271879   1.643   1.281   2.593  1.0376 -1.2563 -0.0204
16822TIP3   OH271880   6.119   0.289   0.234 -0.1910 -0.2233 -0.4976
16822TIP3    H171881   6.208   0.256   0.245 -0.4534 -0.2421  2.0232
16822TIP3    H271882   6.113   0.363   0.294 -1.9411 -0.3666 -0.4425
16823TIP3   OH271883   4.740   4.434   5.020 -0.6716 -0.9509 -0.3157
16823TIP3    H171884   4.711   4.524   5.005 -0.8924 -1.3339 -2.5895
16823TIP3    H271885   4.723   4.418   5.113 -1.4998  1.0387 -0.0807
16824TIP3   OH271886   6.224   0.017  13.622  0.3704  0.4249  0.2607
16824TIP3    H171887   6.148   0.057  13.663  0.5014  1.4282 -0.4237
16824TIP3    H271888   6.297   0.038  13.681  0.3228  0.5933  0.2603
16825TIP3   OH271889   5.109   0.502   3.146 -0.5447  0.2511 -0.0143
16825TIP3    H171890   5.160   0.496   3.065  0.3004  1.9818  0.3306
16825TIP3    H271891   5.160   0.561   3.202 -1.7873  0.1770  1.2665
16826TIP3   OH271892   6.529   1.875  13.185  0.5160 -0.1496  0.2392
16826TIP3    H171893   6.471   1.868  13.261 -0.0475  1.0599 -0.0630
16826TIP3    H271894   6.556   1.967  13.184 -1.3827  0.4823 -2.3682
16827TIP3   OH271895   1.385   2.616  13.829 -0.2792  0.3439  0.1934
16827TIP3    H171896   1.384   2.530  13.871  1.5646 -0.5129 -1.3707
16827TIP3    H271897   1.466   2.657  13.860 -0.8473  1.3149  0.4592
16828TIP3   OH271898   1.383   3.928   1.681 -0.1073 -0.2265  0.5069
16828TIP3    H171899   1.435   3.850   1.699 -0.6113 -0.5311  0.6687
16828TIP3    H271900   1.364   3.923   1.587 -0.2173 -0.3533  0.5344
16829TIP3   OH271901   3.373   2.720  12.528 -0.1836 -0.0177  0.9859
16829TIP3    H171902   3.345   2.772  12.453  0.9693  1.4218  1.5009
16829TIP3    H271903   3.372   2.630  12.496  0.2541  0.5548 -0.7706
16830TIP3   OH271904   1.398   5.267  14.626 -1.0153 -0.2951 -0.3030
16830TIP3    H171905   1.371   5.209  14.554 -2.9723  0.7116 -0.4511
16830TIP3    H271906   1.316   5.289  14.671 -0.0532  0.5930  1.1122
16831TIP3   OH271907   5.667   5.428  11.881  0.3433  0.3926  1.0186
16831TIP3    H171908   5.666   5.516  11.919 -1.2591 -0.4431  3.1108
16831TIP3    H271909   5.591   5.425  11.824 -0.4788 -0.0535  2.1028
16832TIP3   OH271910   5.813   2.022  14.667 -0.3348  0.2696  0.5739
16832TIP3    H171911   5.874   2.001  14.737  1.3087 -0.1038 -0.9155
16832TIP3    H271912   5.832   2.113  14.644  1.0073 -0.3915 -1.1270
16833TIP3   OH271913   0.960   3.979   5.254  0.2855 -0.1669  0.6702
16833TIP3    H171914   0.867   3.970   5.272  0.0622  1.2912  0.3667
16833TIP3    H271915   0.998   4.004   5.339  0.5806 -1.7186  1.0281
16834TIP3   OH271916   6.014   1.633  14.959 -0.6752  0.1894 -0.4930
16834TIP3    H171917   6.012   1.658  14.867  0.3991 -0.2702 -0.6613
16834TIP3    H271918   6.013   1.537  14.958  0.4978  0.1616 -0.0798
16835TIP3   OH271919   2.209   1.859   1.638  0.7353 -0.0371  0.2922
16835TIP3    H171920   2.138   1.802   1.606  0.3435  0.5192  0.1497
16835TIP3    H271921   2.186   1.877   1.729  0.6662  0.1854  0.2307
16836TIP3   OH271922   2.660   1.597   5.833 -0.5799  0.4141 -0.4321
16836TIP3    H171923   2.724   1.652   5.789 -0.3666  1.1477  0.7640
16836TIP3    H271924   2.578   1.614   5.787 -0.6073  2.0604  0.1700
16837TIP3   OH271925   0.540   3.092   3.614 -0.0557  0.3958 -0.6095
16837TIP3    H171926   0.618   3.146   3.618  0.0602  0.3481 -1.8323
16837TIP3    H271927   0.475   3.139   3.665  0.9058  0.1760  0.8753
16838TIP3   OH271928   3.737   3.029   2.281  0.1182  0.3071  0.1721
16838TIP3    H171929   3.809   3.019   2.218  1.7556  0.2970  1.9520
16838TIP3    H271930   3.690   3.107   2.251  0.9556  0.4088 -0.9520
16839TIP3   OH271931   6.197   3.794  10.535 -0.0968 -0.0910 -0.8362
16839TIP3    H171932   6.149   3.860  10.484  0.8847  1.2883 -0.0596
16839TIP3    H271933   6.134   3.762  10.599 -0.2489  1.0644 -0.3829
16840TIP3   OH271934   1.111   0.555   2.472  0.1976  0.5450 -0.3599
16840TIP3    H171935   1.164   0.624   2.512  1.3282  0.3313 -1.4154
16840TIP3    H271936   1.158   0.533   2.391 -0.7423 -0.6755 -0.6004
16841TIP3   OH271937   1.385   4.606   2.453 -0.0685  0.0459  0.0382
16841TIP3    H171938   1.352   4.684   2.499 -0.2272  0.4057 -0.6757
16841TIP3    H271939   1.307   4.551   2.440 -0.5114  1.0511 -1.9566
16842TIP3   OH271940   4.430   4.105  14.952  0.5445 -0.2511 -0.3237
16842TIP3    H171941   4.465   4.113  15.041 -0.0954 -0.1308 -0.0734
16842TIP3    H271942   4.470   4.025  14.917 -0.1743 -1.0156  0.5433
16843TIP3   OH271943   4.720   6.175   3.301  0.2586 -0.3676 -0.1670
16843TIP3    H171944   4.737   6.116   3.374  1.5996 -3.3421 -2.6388
16843TIP3    H271945   4.631   6.154   3.273  0.2190 -0.1938 -0.1680
16844TIP3   OH271946   2.245   3.548   4.984 -0.0900  1.0779  0.0210
16844TIP3    H171947   2.227   3.493   4.907  1.4464  0.0493  0.3600
16844TIP3    H271948   2.340   3.559   4.984  0.1344 -0.2203  2.6213
16845TIP3   OH271949   2.588   2.592  10.753 -0.2100  0.1894  0.0181
16845TIP3    H171950   2.616   2.673  10.710 -0.3151  0.0277 -0.3503
16845TIP3    H271951   2.645   2.525  10.716 -0.3645  0.0351  0.0639
16846TIP3   OH271952   3.355   3.186  13.626 -0.4821  0.1694  0.2524
16846TIP3    H171953   3.424   3.244  13.594 -0.5194 -0.7646 -1.6632
16846TIP3    H271954   3.273   3.226  13.595 -0.4766 -1.1245 -1.6256
16847TIP3   OH271955   1.714   0.154  13.766 -0.4637  0.6782 -0.4739
16847TIP3    H171956   1.739   0.080  13.711 -1.9996 -0.5178  0.3804
16847TIP3    H271957   1.792   0.174  13.818  0.5874  0.9766 -2.0908
16848TIP3   OH271958   6.287   5.695  12.895 -0.1383  0.0767  0.1746
16848TIP3    H171959   6.344   5.764  12.930  0.7175 -1.4422  1.9239
16848TIP3    H271960   6.220   5.743  12.847 -0.4294  2.2616  2.5211
16849TIP3   OH271961   5.106   2.181   2.793  0.6718  0.2617 -0.5685
16849TIP3    H171962   5.080   2.105   2.845 -1.3295  0.7089 -0.8182
16849TIP3    H271963   5.146   2.240   2.857  2.0120 -0.8446 -0.3244
16850TIP3   OH271964   5.760   1.212   3.329  0.1387  0.8085  0.2809
16850TIP3    H171965   5.685   1.225   3.387  0.0243 -0.3115  0.3982
16850TIP3    H271966   5.774   1.118   3.329  1.0906  0.9438 -0.3266
16851TIP3   OH271967   3.736   1.157   4.264 -0.3271  0.1540 -0.2504
16851TIP3    H171968   3.671   1.087   4.272 -0.7110  0.4618 -0.5796
16851TIP3    H271969   3.813   1.115   4.227  0.0029 -0.4121  1.0453
16852TIP3   OH271970   6.701   0.130  16.471 -0.1074  0.1470  0.0601
16852TIP3    H171971   6.713   0.044  16.431  0.0951 -0.5692  1.5799
16852TIP3    H271972   6.631   0.118  16.535  2.9698 -0.2181  3.6997
16853TIP3   OH271973   3.781   0.353   3.185  0.4570 -0.0631 -0.5640
16853TIP3    H171974   3.776   0.365   3.090  0.8386 -1.7003 -0.8210
16853TIP3    H271975   3.871   0.378   3.208  0.1734  0.9609 -0.5112
16854TIP3   OH271976   0.557   3.032   0.138 -0.0174  0.0194 -0.2135
16854TIP3    H171977   0.558   3.122   0.107 -0.4257  0.4201  0.9070
16854TIP3    H271978   0.468   3.019   0.172 -0.7016 -1.5153 -2.3314
16855TIP3   OH271979   2.617   3.806  12.573 -0.3703  0.0655  0.2171
16855TIP3    H171980   2.703   3.833  12.543 -0.2650  0.2073  0.6518
16855TIP3    H271981   2.559   3.822  12.498 -0.3073  1.4383  0.4517
16856TIP3   OH271982   3.508   3.775   0.223 -0.1650  0.1911 -0.3395
16856TIP3    H171983   3.574   3.762   0.155  0.6613 -0.5735  0.5613
16856TIP3    H271984   3.516   3.697   0.278 -0.3561  1.0779  0.9970
16857TIP3   OH271985   0.849   4.410   2.405 -0.4810  0.2965  0.1214
16857TIP3    H171986   0.870   4.324   2.368 -0.5839  0.6521 -0.7856
16857TIP3    H271987   0.822   4.462   2.330 -1.3419  0.8478  0.7959
16858TIP3   OH271988   1.221   0.458   5.478 -0.0321 -0.6219 -0.0907
16858TIP3    H171989   1.213   0.399   5.403 -0.8942  0.7860 -1.1528
16858TIP3    H271990   1.186   0.541   5.447  1.3571  0.5322  1.2889
16859TIP3   OH271991   5.409   1.551  15.887  0.2590  0.0709 -0.1943
16859TIP3    H171992   5.436   1.475  15.938 -0.3203 -1.1121 -1.5514
16859TIP3    H271993   5.323   1.574  15.922  1.1327  1.1702  1.3117
16860TIP3   OH271994   3.668   4.818  15.350 -0.0368 -0.3945 -0.1498
16860TIP3    H171995   3.703   4.907  15.353 -0.6739 -0.1134 -0.8792
16860TIP3    H271996   3.669   4.790  15.442  0.1161  0.3806  0.0976
16861TIP3   OH271997   0.095   4.138  12.666 -0.1642  0.1011  0.1686
16861TIP3    H171998   0.076   4.045  12.683  0.8473 -0.1630 -0.0705
16861TIP3    H271999   0.135   4.139  12.579  0.9909  0.5968  0.6894
16862TIP3   OH272000   5.351   6.449  14.557 -0.2003 -0.3978  0.0085
16862TIP3    H172001   5.327   6.409  14.474 -0.6057 -1.2649  0.5341
16862TIP3    H272002   5.292   6.524  14.566 -0.2538 -0.3903 -0.4063
16863TIP3   OH272003   1.353   3.156  15.070 -0.0799 -0.0924 -0.1246
16863TIP3    H172004   1.443   3.150  15.103 -0.0928  0.4642  0.0279
16863TIP3    H272005   1.347   3.088  15.003  0.4720 -0.0941 -0.1761
16864TIP3   OH272006   3.167   5.633  14.842 -0.1776 -0.2326 -0.1461
16864TIP3    H172007   3.101   5.632  14.772  0.4574  2.5334 -0.9147
16864TIP3    H272008   3.139   5.703  14.900 -1.0403 -2.8575  2.9058
16865TIP3   OH272009   2.305   4.278   1.119  0.3315 -0.3348 -0.5313
16865TIP3    H172010   2.247   4.226   1.174  1.8741  0.1083  1.6302
16865TIP3    H272011   2.336   4.348   1.176  2.7124 -0.3539 -1.6831
16866TIP3   OH272012   6.282   4.277   6.287  0.3189  0.2435  0.2328
16866TIP3    H172013   6.364   4.227   6.288 -0.3056 -0.9974 -2.5730
16866TIP3    H272014   6.222   4.224   6.340  1.2542  1.2225  2.4166
16867TIP3   OH272015   1.430   2.019   2.563  0.2423 -0.2842 -0.3793
16867TIP3    H172016   1.342   2.002   2.529  0.3765 -1.5593 -0.1523
16867TIP3    H272017   1.487   2.017   2.486  0.4161 -2.2123 -0.2540
16868TIP3   OH272018   5.618   4.365   1.882 -0.4531  0.4441 -0.3270
16868TIP3    H172019   5.536   4.351   1.834 -1.2601  2.3462  0.3565
16868TIP3    H272020   5.591   4.408   1.963  1.2070  0.8954  0.0293
16869TIP3   OH272021   5.949   4.046  13.325  0.1419  0.0912  0.1224
16869TIP3    H172022   5.872   4.045  13.381  0.0600 -0.3719 -0.0013
16869TIP3    H272023   5.917   4.083  13.242  0.2933  0.9064  0.4133
16870TIP3   OH272024   4.878   1.404  16.923 -0.0107 -0.0958 -0.0533
16870TIP3    H172025   4.899   1.360  16.840  0.2002  2.3300 -1.3729
16870TIP3    H272026   4.882   1.334  16.988  1.2876 -1.8285 -1.8503
16871TIP3   OH272027   0.675   6.449  14.723 -0.0079  0.4765 -0.5385
16871TIP3    H172028   0.739   6.481  14.788  0.5086 -0.0487 -0.7815
16871TIP3    H272029   0.635   6.373  14.764 -1.2507  1.4004  0.0454
16872TIP3   OH272030   4.565   3.189   1.362  0.3508 -0.4255 -0.2450
16872TIP3    H172031   4.563   3.284   1.348  2.4062 -0.1587  0.8564
16872TIP3    H272032   4.639   3.159   1.309  1.7743 -0.8801  1.8768
16873TIP3   OH272033   6.509   4.854  15.588  0.2628  0.4293 -0.7429
16873TIP3    H172034   6.509   4.943  15.625  1.4073 -0.1367  0.7097
16873TIP3    H272035   6.426   4.816  15.617 -0.2898  1.0230 -1.4691
16874TIP3   OH272036   6.712   0.625   3.816 -0.4175  0.8136  0.3174
16874TIP3    H172037   6.661   0.669   3.884 -2.7084 -2.3587  0.8602
16874TIP3    H272038   6.663   0.640   3.735 -0.7848 -0.0307  0.3745
16875TIP3   OH272039   1.654   5.858   5.039  0.0951  0.1078 -0.0749
16875TIP3    H172040   1.590   5.928   5.050 -0.1968  0.1452 -1.7286
16875TIP3    H272041   1.739   5.902   5.048 -0.0353 -0.0454  2.7225
16876TIP3   OH272042   6.592   4.036   4.608 -0.4561  0.0529 -0.3457
16876TIP3    H172043   6.568   3.980   4.681 -0.6280 -1.4024 -1.4802
16876TIP3    H272044   6.510   4.047   4.559 -0.2631  0.7204 -0.5332
16877TIP3   OH272045   3.038   0.960   1.169  0.1940  0.2968  0.0020
16877TIP3    H172046   3.118   1.010   1.152 -0.2768  1.5519  1.3459
16877TIP3    H272047   3.069   0.870   1.182  1.2575  0.5732 -0.4951
16878TIP3   OH272048   2.724   2.099  16.300 -0.0524 -0.2876  0.2039
16878TIP3    H172049   2.683   2.013  16.292 -1.7024  0.2841  1.7743
16878TIP3    H272050   2.650   2.160  16.299  1.0998  1.1769 -1.2324
16879TIP3   OH272051   1.263   4.989  12.845  0.0505  0.3711 -0.0312
16879TIP3    H172052   1.200   5.031  12.786  1.8581 -0.5636 -2.8772
16879TIP3    H272053   1.216   4.916  12.883 -1.4818  1.5887  0.5131
16880TIP3   OH272054   2.855   1.124   5.797 -0.1769  0.2433  0.6313
16880TIP3    H172055   2.797   1.131   5.721  0.7748 -1.5620 -0.3149
16880TIP3    H272056   2.824   1.193   5.857 -1.0941  1.5831 -1.2714
16881TIP3   OH272057   1.500   5.963   2.776  0.5957 -0.1579 -0.7096
16881TIP3    H172058   1.567   5.896   2.791  1.5450  0.8748 -0.2675
16881TIP3    H272059   1.452   5.968   2.859  1.3070  0.5544 -0.3310
16882TIP3   OH272060   2.954   6.395  16.284  0.0305 -0.1728  0.0475
16882TIP3    H172061   3.042   6.364  16.306 -0.0768  0.7248  1.9975
16882TIP3    H272062   2.960   6.490  16.292 -0.9890 -0.0674 -0.3164
16883TIP3   OH272063   3.200   2.932  10.056 -0.5683 -0.6704 -0.4521
16883TIP3    H172064   3.285   2.946  10.098 -0.4894 -0.1906 -0.7632
16883TIP3    H272065   3.136   2.951  10.125 -0.4485  0.6465 -0.6768
16884TIP3   OH272066   3.797   3.320   4.428 -0.2588  0.2170  0.3026
16884TIP3    H172067   3.777   3.226   4.422  1.2102 -0.0973 -0.1143
16884TIP3    H272068   3.829   3.332   4.517  0.9919 -0.0004 -0.1012
16885TIP3   OH272069   4.040   4.939   1.818  0.3988 -0.4951 -0.1605
16885TIP3    H172070   3.985   4.986   1.755  1.8133 -1.0007 -1.8621
16885TIP3    H272071   4.098   5.007   1.854 -0.6026 -0.1536  0.8427
16886TIP3   OH272072   1.960   2.892   1.238  0.8062 -0.0157 -0.6795
16886TIP3    H172073   1.939   2.951   1.310  1.4878  0.4450 -0.8467
16886TIP3    H272074   1.980   2.950   1.164  1.6138 -0.4446 -0.8094
16887TIP3   OH272075   3.172   2.791   2.137 -0.9795 -0.1272  0.0432
16887TIP3    H172076   3.132   2.716   2.181 -2.4127  0.3216 -0.4220
16887TIP3    H272077   3.229   2.830   2.203  0.3049 -1.9575  0.1031
16888TIP3   OH272078   3.475   4.602   6.134 -0.0312 -0.1439  1.0189
16888TIP3    H172079   3.488   4.573   6.224  0.3096  0.8293  1.2949
16888TIP3    H272080   3.542   4.669   6.120  1.6962 -2.0978 -0.8430
16889TIP3   OH272081   1.768   0.457  11.868 -0.4011  0.1183 -0.1911
16889TIP3    H172082   1.841   0.399  11.892 -0.5448 -0.1634 -0.4330
16889TIP3    H272083   1.798   0.501  11.789 -1.2052 -1.3499 -1.3556
16890TIP3   OH272084   4.055   0.470   6.239  0.0069  0.0550 -0.1231
16890TIP3    H172085   4.122   0.498   6.301 -0.2676  0.1743  0.1186
16890TIP3    H272086   4.094   0.488   6.153  1.1836 -1.9133 -0.0524
16891TIP3   OH272087   2.912   3.199  11.541 -0.0873 -0.5473 -0.8477
16891TIP3    H172088   2.870   3.132  11.595 -1.2453 -0.2886 -1.4100
16891TIP3    H272089   2.950   3.260  11.605  1.7705 -2.1585 -0.3149
16892TIP3   OH272090   5.534   4.652   2.842  0.0385 -0.4604 -0.2979
16892TIP3    H172091   5.538   4.668   2.937 -0.1753  1.4178 -0.5777
16892TIP3    H272092   5.520   4.558   2.835  1.2330 -0.8373  1.5234
16893TIP3   OH272093   2.431   2.011  13.058 -0.1563 -1.1160 -0.3196
16893TIP3    H172094   2.342   1.982  13.037 -0.6295  0.1491 -0.1617
16893TIP3    H272095   2.478   2.005  12.975 -1.2682  1.2039 -1.2137
16894TIP3   OH272096   1.719   2.419  11.866  0.4646  0.1257  0.0986
16894TIP3    H172097   1.690   2.360  11.936  2.2642 -0.5673  0.2944
16894TIP3    H272098   1.638   2.458  11.833 -0.7270 -1.9243  0.4314
16895TIP3   OH272099   4.404   4.575  13.541  0.1978  0.5472 -0.1458
16895TIP3    H172100   4.484   4.579  13.592  1.0293 -2.0932 -1.0780
16895TIP3    H272101   4.433   4.576  13.450 -0.7413 -0.8875 -0.4998
16896TIP3   OH272102   4.699   0.035  12.290  0.6013  0.3429  1.0546
16896TIP3    H172103   4.714   0.016  12.383 -0.5172 -1.7429  0.8856
16896TIP3    H272104   4.606   0.056  12.285  0.8178  1.2007  0.4935
16897TIP3   OH272105   1.175   1.353   0.020  0.3488  0.3619 -0.0198
16897TIP3    H172106   1.156   1.390  -0.067 -2.3938  1.2022  0.8209
16897TIP3    H272107   1.202   1.428   0.073  1.2254 -0.0150  0.0870
16898TIP3   OH272108   0.481   2.202  11.089  0.9200 -0.2778  0.2035
16898TIP3    H172109   0.463   2.293  11.065  1.8310 -0.1954 -0.1752
16898TIP3    H272110   0.412   2.180  11.152 -0.7176 -0.0597 -1.4195
16899TIP3   OH272111   5.888   0.264   1.900 -0.2543  0.8621 -0.8018
16899TIP3    H172112   5.904   0.307   1.816  0.3267  0.9327 -0.6631
16899TIP3    H272113   5.874   0.336   1.961  0.4290  0.8601 -0.6275
16900TIP3   OH272114   5.032   3.504  11.680  0.1212 -0.6449 -0.2257
16900TIP3    H172115   5.114   3.554  11.673  0.4367 -1.2387 -0.9297
16900TIP3    H272116   5.057   3.414  11.657 -0.7517 -0.8144 -0.5453
16901TIP3   OH272117   0.971   0.768  12.114  0.7520 -0.5948  0.2203
16901TIP3    H172118   0.942   0.852  12.080 -1.1988 -2.1097 -2.2365
16901TIP3    H272119   0.890   0.717  12.124  1.7817 -1.9601  2.4245
16902TIP3   OH272120   1.931   3.479  11.582 -0.0660  0.0345 -0.4081
16902TIP3    H172121   1.919   3.392  11.542  2.8182 -0.0284 -1.3273
16902TIP3    H272122   2.015   3.510  11.548 -0.5984  2.8600  0.5742
16903TIP3   OH272123   5.254   4.857   5.056  0.1892  0.8096  0.5056
16903TIP3    H172124   5.311   4.805   5.114 -1.2416  1.1203  2.2917
16903TIP3    H272125   5.169   4.813   5.062 -0.6163  2.3270  0.6805
16904TIP3   OH272126   3.612   3.023  14.383  0.2891 -0.2300 -0.2625
16904TIP3    H172127   3.638   3.071  14.304  0.5416  0.1896  0.0707
16904TIP3    H272128   3.659   3.067  14.454  1.4565 -1.6967 -0.0776
16905TIP3   OH272129   4.964   2.112  15.840 -0.7616  0.5595  0.2925
16905TIP3    H172130   4.994   2.195  15.803 -1.1916  0.3446 -0.5693
16905TIP3    H272131   4.947   2.057  15.764 -0.1807 -0.4326  0.8591
16906TIP3   OH272132   0.167   1.031  14.727 -0.3480  0.2096  1.0155
16906TIP3    H172133   0.131   0.974  14.660  3.6397  3.0516 -4.3459
16906TIP3    H272134   0.247   0.987  14.756 -1.3933 -0.4067  3.1182
16907TIP3   OH272135   6.702   0.467  13.609  0.0373  0.3845  0.4707
16907TIP3    H172136   6.793   0.436  13.608  0.1414  0.6914  0.6412
16907TIP3    H272137   6.695   0.522  13.531 -0.3453 -0.6298 -0.2351
16908TIP3   OH272138   5.307   0.340  16.045  0.5531  0.0164  0.2039
16908TIP3    H172139   5.260   0.409  16.091 -0.5511 -0.2088 -0.5294
16908TIP3    H272140   5.395   0.374  16.032  0.1296  1.1412  0.1786
16909TIP3   OH272141   6.021   2.073   3.142  0.2473  0.3759 -0.1926
16909TIP3    H172142   6.114   2.073   3.163  0.4464 -0.8263 -0.9530
16909TIP3    H272143   6.004   1.985   3.109 -0.8068  1.0399 -1.5465
16910TIP3   OH272144   1.979   1.198   6.229 -0.6892 -0.1852 -0.0646
16910TIP3    H172145   1.909   1.260   6.211 -1.5878 -1.3685 -0.8415
16910TIP3    H272146   1.934   1.115   6.244  0.4966 -0.7553  0.5176
16911TIP3   OH272147   0.727   2.033   4.353 -0.2688  0.1638  0.0395
16911TIP3    H172148   0.761   2.123   4.343  2.1481 -0.7818 -1.1862
16911TIP3    H272149   0.761   1.987   4.276 -0.9335 -1.9748  0.9726
16912TIP3   OH272150   3.030   4.564  15.571 -0.7176  0.1759 -0.0566
16912TIP3    H172151   2.953   4.578  15.626  1.4668  2.9718  2.5760
16912TIP3    H272152   3.069   4.484  15.606 -0.5275  0.7249  1.0186
16913TIP3   OH272153   0.699   6.150  15.977 -0.1935 -0.2544 -0.5047
16913TIP3    H172154   0.639   6.199  15.920 -0.8853 -0.4719  0.0214
16913TIP3    H272155   0.711   6.206  16.053 -0.6189 -0.6815 -0.1117
16914TIP3   OH272156   5.990   2.049   6.156  0.1385 -0.2799 -0.2294
16914TIP3    H172157   5.933   2.106   6.104  0.2340  0.9286  0.9480
16914TIP3    H272158   6.078   2.081   6.139  0.1052  0.7777  1.3792
16915TIP3   OH272159   1.948   6.797   2.849 -0.1638  0.6184  0.5578
16915TIP3    H172160   1.928   6.708   2.819  0.6898 -0.4912  3.0192
16915TIP3    H272161   1.867   6.846   2.838 -0.7558 -0.5483 -0.4850
16916TIP3   OH272162   4.489   4.250   4.955 -0.1423  0.0459 -0.3828
16916TIP3    H172163   4.554   4.320   4.956 -0.0548  0.0121  2.2469
16916TIP3    H272164   4.540   4.170   4.942  0.0362  0.2141 -0.7558
16917TIP3   OH272165   5.642   1.617   4.848  0.0927 -0.1524  0.0107
16917TIP3    H172166   5.662   1.526   4.870 -0.1431 -0.2508 -0.1758
16917TIP3    H272167   5.722   1.649   4.805  0.1342 -0.3072 -0.0291
16918TIP3   OH272168   0.938   0.066  11.881  0.0673  0.4645 -0.4517
16918TIP3    H172169   0.849   0.030  11.877  0.8926 -1.7306 -0.1549
16918TIP3    H272170   0.956   0.075  11.975  0.2241  0.7446 -0.5081
16919TIP3   OH272171   3.971   3.647   3.566  0.0198  0.1099 -0.1027
16919TIP3    H172172   3.943   3.693   3.646 -0.5113 -0.3157 -0.0350
16919TIP3    H272173   4.066   3.659   3.563 -0.2148  2.3411 -0.7790
16920TIP3   OH272174   5.771   0.375   3.366  0.2401 -0.3373  0.2841
16920TIP3    H172175   5.824   0.302   3.397  2.2376 -0.3543 -2.8080
16920TIP3    H272176   5.822   0.453   3.387  0.8608 -0.2534 -1.4152
16921TIP3   OH272177   5.710   3.904   5.311 -0.1777 -0.9198  0.9119
16921TIP3    H172178   5.645   3.893   5.242  2.2515 -2.1977 -1.3653
16921TIP3    H272179   5.717   3.999   5.321  0.4222 -0.5771 -1.7813
16922TIP3   OH272180   1.079   0.253   3.187 -0.0136 -0.0671 -0.1780
16922TIP3    H172181   1.040   0.226   3.269  0.9489  0.1719  0.3777
16922TIP3    H272182   1.123   0.174   3.154 -0.2802 -0.1262 -0.3929
16923TIP3   OH272183   5.439   3.969   4.347  0.3916 -0.2193 -0.3089
16923TIP3    H172184   5.364   3.951   4.291 -0.5046 -0.0570  0.7980
16923TIP3    H272185   5.413   4.045   4.399  1.4809  0.0877 -0.1816
16924TIP3   OH272186   0.363   6.778   0.372  0.4846  0.7840  0.2616
16924TIP3    H172187   0.304   6.703   0.382 -0.3842  1.4484  0.2560
16924TIP3    H272188   0.354   6.804   0.281 -0.1868  1.6570  0.5586
16925TIP3   OH272189   1.094   1.610  16.842 -0.0965 -0.0500  0.1632
16925TIP3    H172190   1.005   1.623  16.876  0.3862 -0.7011  1.7385
16925TIP3    H272191   1.143   1.684  16.878  0.7185 -1.4387  2.0995
16926TIP3   OH272192   5.600   3.148  11.274 -0.4321  0.5301 -1.0382
16926TIP3    H172193   5.611   3.167  11.181 -0.1347  1.2972 -0.8536
16926TIP3    H272194   5.594   3.053  11.279  1.9483  0.2849 -1.6241
16927TIP3   OH272195   0.382   4.375  13.233  1.1854 -0.1212 -0.1655
16927TIP3    H172196   0.340   4.288  13.230  1.0866 -0.0472 -1.0674
16927TIP3    H272197   0.457   4.367  13.174 -1.0771  1.5591 -3.5359
16928TIP3   OH272198   1.349   4.765  11.665  0.3017 -0.1821  0.2644
16928TIP3    H172199   1.413   4.827  11.701 -0.6421  0.7756  0.3366
16928TIP3    H272200   1.353   4.690  11.724  2.7586 -1.0274 -0.8217
16929TIP3   OH272201   3.573   3.486   5.380  0.4294  0.2051 -0.1908
16929TIP3    H172202   3.563   3.581   5.374  2.0242  0.3711 -0.7156
16929TIP3    H272203   3.485   3.452   5.361  0.1230  1.5284 -1.3669
16930TIP3   OH272204   3.680   2.494  12.913  0.2738  0.1324  0.0594
16930TIP3    H172205   3.636   2.501  12.998  0.1558  3.8539 -0.1691
16930TIP3    H272206   3.760   2.445  12.932 -0.9103 -1.2977  1.7480
16931TIP3   OH272207   3.755   0.366  13.653 -0.3533 -0.1918 -0.3016
16931TIP3    H172208   3.740   0.284  13.607  0.2405 -0.0641 -0.7356
16931TIP3    H272209   3.837   0.351  13.702 -0.2784  0.1176 -0.3312
16932TIP3   OH272210   2.685   6.559  14.179  0.2635  0.6236 -0.0571
16932TIP3    H172211   2.634   6.541  14.258 -0.7542  1.6750 -0.4457
16932TIP3    H272212   2.669   6.483  14.122  0.7870 -0.0119  0.6212
16933TIP3   OH272213   2.125   4.016   4.725 -0.2311  0.6089  0.1120
16933TIP3    H172214   2.114   3.956   4.651 -0.7858 -0.6052  1.1425
16933TIP3    H272215   2.145   3.959   4.799  2.0942  1.9146  0.6040
16934TIP3   OH272216   3.809   3.596   4.697  0.4505 -0.0360  0.0950
16934TIP3    H172217   3.893   3.632   4.667  0.0705  0.0831 -0.8501
16934TIP3    H272218   3.743   3.646   4.649 -0.1402 -0.8134  0.0786
16935TIP3   OH272219   2.181   3.029   5.196  0.0693  0.6621  0.0800
16935TIP3    H172220   2.149   2.992   5.114  1.0075  0.3388 -0.1628
16935TIP3    H272221   2.108   3.022   5.256 -0.7506  1.2408 -0.8282
16936TIP3   OH272222   5.970   0.606   2.325 -0.3153  0.6035  0.4446
16936TIP3    H172223   5.990   0.514   2.311 -0.9217  0.2943  1.4917
16936TIP3    H272224   5.978   0.646   2.238  0.1703 -0.3877  0.0208
16937TIP3   OH272225   0.046   0.545   2.143 -0.4352  0.0741 -0.1811
16937TIP3    H172226   0.025   0.562   2.051  0.0417  0.1432 -0.2795
16937TIP3    H272227   0.103   0.618   2.167  0.2127 -0.4630 -0.1030
16938TIP3   OH272228   2.853   1.584  11.612 -0.4334  0.1060  0.4281
16938TIP3    H172229   2.883   1.583  11.521  3.4632  2.7414  1.4049
16938TIP3    H272230   2.833   1.676  11.630  0.4614 -0.0623  2.5934
16939TIP3   OH272231   1.196   6.526  10.599 -0.4035 -0.4446 -0.3450
16939TIP3    H172232   1.252   6.509  10.522 -0.2085 -2.5818  0.2028
16939TIP3    H272233   1.254   6.569  10.661 -0.0038 -0.5500 -0.6377
16940TIP3   OH272234   5.743   3.297   0.411  0.3814  0.4898  0.6320
16940TIP3    H172235   5.808   3.256   0.468 -1.0043  0.0715  1.9759
16940TIP3    H272236   5.664   3.301   0.464 -0.0638  3.2047 -0.1054
16941TIP3   OH272237   5.262   3.558   2.207 -0.3417 -0.2840 -0.0399
16941TIP3    H172238   5.221   3.596   2.130  3.2717  1.0179 -1.5259
16941TIP3    H272239   5.287   3.633   2.261 -2.6007 -1.1506  2.4754
16942TIP3   OH272240   4.839   5.970   1.738  1.0657  0.4183  0.2621
16942TIP3    H172241   4.760   5.999   1.785  1.4100 -0.0922  1.2034
16942TIP3    H272242   4.850   6.033   1.667  1.2019  1.9659  1.5919
16943TIP3   OH272243   1.481   4.418   1.552  0.1569  0.8521 -0.9351
16943TIP3    H172244   1.533   4.433   1.631  0.8887  1.5761 -1.5341
16943TIP3    H272245   1.409   4.362   1.581  0.0418  1.6264  0.3930
16944TIP3   OH272246   5.450   0.832  10.226  0.2696 -0.0664  0.4730
16944TIP3    H172247   5.502   0.856  10.149 -1.1767  0.6605 -0.3154
16944TIP3    H272248   5.417   0.915  10.260  0.2051 -0.4518  1.3862
16945TIP3   OH272249   6.077   2.699  17.004  0.3499 -0.4152 -0.0608
16945TIP3    H172250   6.148   2.637  17.022  0.4349 -0.6588 -1.1736
16945TIP3    H272251   6.102   2.779  17.050  2.3160  0.1431 -1.9743
16946TIP3   OH272252   0.648   3.370   1.439 -0.1648 -0.1370  0.0294
16946TIP3    H172253   0.649   3.290   1.387  0.4694 -1.9216  2.5661
16946TIP3    H272254   0.558   3.402   1.433 -0.1133 -0.2371 -2.0763
16947TIP3   OH272255   6.548   2.055   3.311 -0.7584  0.2446 -0.2205
16947TIP3    H172256   6.610   2.059   3.238  2.0775  0.8551  2.0394
16947TIP3    H272257   6.599   2.021   3.384 -3.1041  0.8061  1.8205
16948TIP3   OH272258   1.527   1.558  15.171  0.1513 -0.2285 -0.2826
16948TIP3    H172259   1.436   1.582  15.190  0.3660  1.0681 -0.8124
16948TIP3    H272260   1.560   1.523  15.254 -0.2188  1.2471  0.5116
16949TIP3   OH272261   5.828   0.026   2.047  0.6927  0.2030 -0.1041
16949TIP3    H172262   5.791  -0.062   2.044  1.9510 -0.3984  0.8772
16949TIP3    H272263   5.850   0.047   1.957  1.4765 -0.9959 -0.2074
16950TIP3   OH272264   0.774   0.608  16.209 -0.3133 -0.7642  0.0060
16950TIP3    H172265   0.695   0.557  16.192 -0.5754 -0.0905 -0.8500
16950TIP3    H272266   0.790   0.656  16.127 -0.0241  0.4690  0.7683
16951TIP3   OH272267   1.381   5.199   5.460 -0.1533 -0.5404 -0.1754
16951TIP3    H172268   1.410   5.265   5.523  2.6717 -1.4819 -0.3401
16951TIP3    H272269   1.462   5.157   5.430 -1.4791 -1.0799 -3.4092
16952TIP3   OH272270   3.808   4.264  13.900  0.0956 -0.2877 -0.3328
16952TIP3    H172271   3.781   4.354  13.883  1.5250  0.2616  0.1323
16952TIP3    H272272   3.885   4.251  13.845  1.1022 -0.5317  1.0677
16953TIP3   OH272273   5.713   6.713   3.042  0.0698  0.4476 -0.6658
16953TIP3    H172274   5.758   6.649   3.097  0.5932  2.4024  1.3099
16953TIP3    H272275   5.624   6.716   3.078 -0.2336  0.1541 -1.3773
16954TIP3   OH272276   4.431   0.097  12.263  0.5128  0.1666 -0.3547
16954TIP3    H172277   4.427   0.082  12.169  0.5988  0.7124 -0.4498
16954TIP3    H272278   4.348   0.064  12.297  0.8351 -0.8185 -0.5018
16955TIP3   OH272279   1.923   1.344   1.345 -0.3731 -0.3461  0.5860
16955TIP3    H172280   1.849   1.387   1.387 -2.3194  0.6319 -3.4008
16955TIP3    H272281   1.970   1.414   1.299  0.4634 -1.5295 -0.4552
16956TIP3   OH272282   2.143   3.236   2.448 -0.3249  0.0715 -0.6060
16956TIP3    H172283   2.178   3.148   2.442 -0.0820  0.1619 -0.5101
16956TIP3    H272284   2.052   3.224   2.474  0.0204 -0.1005  0.5425
16957TIP3   OH272285   4.130   4.010   3.017  0.1955 -0.1303 -0.0495
16957TIP3    H172286   4.204   4.045   3.066 -0.1709  0.5550  0.0278
16957TIP3    H272287   4.136   4.053   2.931 -0.2341  0.0965  0.0319
16958TIP3   OH272288   2.051   3.766  16.220  0.3109  0.1381 -0.1377
16958TIP3    H172289   2.137   3.797  16.247  0.7190 -0.3046 -0.9191
16958TIP3    H272290   2.052   3.672  16.236  0.5198 -0.1181 -1.5289
16959TIP3   OH272291   6.162   2.712  13.494 -0.0250  0.3463  0.5397
16959TIP3    H172292   6.142   2.737  13.404 -1.0598  0.4595  0.7933
16959TIP3    H272293   6.152   2.616  13.495  0.4758  0.2887  0.4224
16960TIP3   OH272294   6.041   4.412  12.099 -0.5286  0.1128  0.2079
16960TIP3    H172295   6.096   4.362  12.039  1.5029  1.5064  0.8135
16960TIP3    H272296   6.024   4.494  12.053 -0.4594  0.4728  0.8142
16961TIP3   OH272297   4.602   4.102  16.191  0.6448 -0.0009 -0.2516
16961TIP3    H172298   4.518   4.131  16.226  0.5366 -0.4168 -0.1535
16961TIP3    H272299   4.591   4.104  16.096  0.2514 -0.8045 -0.2363
16962TIP3   OH272300   3.546   2.852   2.009 -0.1144  0.4651 -0.1152
16962TIP3    H172301   3.496   2.783   1.965  0.3999  0.2003 -0.2907
16962TIP3    H272302   3.491   2.930   2.001  0.0962  0.4996 -1.5038
16963TIP3   OH272303   4.242   3.622   2.551 -0.0534  0.7253 -0.2379
16963TIP3    H172304   4.197   3.706   2.553 -0.5413  0.4594  0.1978
16963TIP3    H272305   4.335   3.645   2.547 -0.0920  1.3071  1.3394
16964TIP3   OH272306   1.866   3.200   5.629  0.3395 -0.2015 -1.0000
16964TIP3    H172307   1.773   3.202   5.652  0.6222 -0.9451  0.3164
16964TIP3    H272308   1.867   3.217   5.535 -1.1073  0.0988 -0.9930
16965TIP3   OH272309   3.587   1.270  12.239  0.3730  0.6110 -0.1002
16965TIP3    H172310   3.498   1.236  12.253  0.5305 -0.3341 -1.1891
16965TIP3    H272311   3.574   1.363  12.220 -0.4396  0.4106 -0.6073
16966TIP3   OH272312   1.017   0.457  15.771  0.5514  0.3659 -0.8815
16966TIP3    H172313   1.084   0.456  15.839 -1.1889 -2.3134  0.9931
16966TIP3    H272314   1.055   0.406  15.700 -0.0692 -2.9262  0.9644
16967TIP3   OH272315   4.278   3.851  10.277 -0.0770 -0.1244  0.2189
16967TIP3    H172316   4.312   3.939  10.291 -0.6199  0.2490 -0.6930
16967TIP3    H272317   4.352   3.793  10.295  0.4226  0.5429  0.3432
16968TIP3   OH272318   5.566   0.421   5.663 -0.0952 -0.2022 -0.6388
16968TIP3    H172319   5.561   0.350   5.727 -1.4957 -1.0179 -1.5963
16968TIP3    H272320   5.539   0.499   5.711 -0.2340 -0.6266 -0.0193
16969TIP3   OH272321   2.284   6.151   2.060  0.1561 -0.0965 -0.1004
16969TIP3    H172322   2.253   6.130   2.148 -0.3551  1.6892  0.1804
16969TIP3    H272323   2.204   6.158   2.008  0.2790  1.3725 -0.1103
16970TIP3   OH272324   6.268   2.119   6.118 -0.2605 -0.0957  0.0411
16970TIP3    H172325   6.353   2.116   6.161 -0.4253  0.8622  0.4731
16970TIP3    H272326   6.266   2.205   6.075 -0.2299 -0.9002 -1.6365
16971TIP3   OH272327   6.606   1.868   4.975 -0.1533  0.0064  0.8544
16971TIP3    H172328   6.631   1.960   4.965  1.2917 -0.2876  1.4662
16971TIP3    H272329   6.681   1.827   5.019 -0.7031 -1.4975  0.4706
16972TIP3   OH272330   4.457   4.977  13.416  0.0148  0.8714 -0.3028
16972TIP3    H172331   4.378   4.943  13.373 -0.4336  1.0980  0.3387
16972TIP3    H272332   4.459   5.070  13.393  0.0005  0.9047 -0.1676
16973TIP3   OH272333   5.816   6.041   0.666  0.2877  0.0949  0.6614
16973TIP3    H172334   5.908   6.024   0.645 -0.0600 -0.7150 -0.2809
16973TIP3    H272335   5.806   6.136   0.655  0.7344  0.0307 -0.3854
16974TIP3   OH272336   5.624   4.206  15.873 -0.4032  0.1456  0.1606
16974TIP3    H172337   5.609   4.237  15.963  0.4803 -0.3634  0.4917
16974TIP3    H272338   5.558   4.252  15.821  0.9672  2.7420  0.5694
16975TIP3   OH272339   4.562   2.278   4.694  0.3970 -0.3107  0.3884
16975TIP3    H172340   4.561   2.373   4.680  1.9689 -0.3592 -0.2205
16975TIP3    H272341   4.487   2.246   4.644  0.5338  0.4978 -0.3625
16976TIP3   OH272342   3.527   1.751  16.697 -0.3360 -0.0522  0.5569
16976TIP3    H172343   3.585   1.753  16.620  1.2948  1.1290  1.7336
16976TIP3    H272344   3.442   1.722  16.663  0.7749 -1.2522 -1.3563
16977TIP3   OH272345   4.544   2.512  16.760 -0.3324 -0.5482  0.8222
16977TIP3    H172346   4.535   2.428  16.716 -2.0152  0.4745 -0.8950
16977TIP3    H272347   4.460   2.526  16.804 -0.2684  0.4728  0.6407
16978TIP3   OH272348   2.022   4.280  12.216  0.4671 -0.0289  0.1299
16978TIP3    H172349   2.048   4.372  12.208 -0.5218  0.2919  0.4458
16978TIP3    H272350   1.970   4.277  12.296 -0.6514 -0.5944 -0.5967
16979TIP3   OH272351   5.524   5.930  11.118 -0.1517  0.1604  0.2172
16979TIP3    H172352   5.533   5.835  11.109 -0.7931  0.2467 -2.1492
16979TIP3    H272353   5.430   5.945  11.127  0.0225  0.5322  1.5346
16980TIP3   OH272354   2.064   0.645   1.587  0.2908  0.0867  0.0303
16980TIP3    H172355   2.089   0.588   1.659 -1.0331 -3.2461 -1.9557
16980TIP3    H272356   1.970   0.657   1.597  0.2767  0.5209 -0.5465
16981TIP3   OH272357   2.763   2.725  14.928  0.2416  0.3677  0.1505
16981TIP3    H172358   2.850   2.764  14.932 -0.7774  2.7719  0.0631
16981TIP3    H272359   2.708   2.792  14.887 -1.5143 -1.3891 -0.5573
16982TIP3   OH272360   2.255   2.846  13.964  0.1096  0.5965 -0.2738
16982TIP3    H172361   2.289   2.766  13.923 -1.1823  0.6550 -1.5157
16982TIP3    H272362   2.317   2.914  13.938  1.8666 -0.1155  1.7164
16983TIP3   OH272363   4.305   6.166  14.757  0.2693  0.9096 -0.5860
16983TIP3    H172364   4.275   6.228  14.690  1.7042  0.7614 -1.3920
16983TIP3    H272365   4.364   6.218  14.812  1.0367  0.4173 -0.9289
16984TIP3   OH272366   1.608   5.397   0.953 -0.6582 -0.0630  0.8770
16984TIP3    H172367   1.653   5.475   0.984  0.4477 -1.0529  1.8834
16984TIP3    H272368   1.518   5.426   0.935 -0.6930  1.1229  2.6907
16985TIP3   OH272369   2.639   5.594  12.217 -0.2222 -0.2696 -0.3424
16985TIP3    H172370   2.695   5.587  12.294  0.7062 -0.0302 -0.9725
16985TIP3    H272371   2.551   5.578  12.249  0.1920 -0.5011  0.7052
16986TIP3   OH272372   6.060   0.044  11.278  0.2320  0.3871 -0.6933
16986TIP3    H172373   6.057   0.129  11.234 -1.2242 -0.1466 -1.6880
16986TIP3    H272374   6.152   0.019  11.277  0.7215  2.0254 -0.2040
16987TIP3   OH272375   3.813   4.667  13.086  0.4010 -0.6636 -0.9444
16987TIP3    H172376   3.907   4.678  13.101  0.4174 -1.3342 -0.5248
16987TIP3    H272377   3.802   4.573  13.071 -0.3422 -0.7755  0.1555
16988TIP3   OH272378   6.546   0.966  13.355  0.2033  0.4068 -0.0907
16988TIP3    H172379   6.452   0.981  13.365 -0.0201 -0.3484 -0.9499
16988TIP3    H272380   6.553   0.908  13.279  1.4968  2.0255 -1.2656
16989TIP3   OH272381   3.861   0.105  10.816  0.0212  0.0487 -0.8177
16989TIP3    H172382   3.914   0.114  10.895 -1.2793 -0.5802  0.1614
16989TIP3    H272383   3.888   0.179  10.761  0.7396  0.6723  0.3355
16990TIP3   OH272384   6.120   2.914   5.544  0.2323  0.1983  0.4862
16990TIP3    H172385   6.051   2.980   5.558 -0.5976 -0.8074  1.3655
16990TIP3    H272386   6.073   2.831   5.543  1.4797 -0.5521  1.5210
16991TIP3   OH272387   1.610   6.517   2.685 -0.4416  0.5644  0.2689
16991TIP3    H172388   1.523   6.481   2.670  0.1028 -0.3522 -0.7859
16991TIP3    H272389   1.651   6.455   2.746  0.4045 -0.5361 -1.3499
16992TIP3   OH272390   0.840   0.260  15.272  0.2000  0.3525 -0.3862
16992TIP3    H172391   0.900   0.190  15.300 -1.1712 -0.1169  1.6500
16992TIP3    H272392   0.754   0.219  15.273 -0.6520  2.0638  0.9371
16993TIP3   OH272393   3.396   0.750   4.427  0.9347 -0.7348  0.1110
16993TIP3    H172394   3.451   0.828   4.426  1.3026 -0.9595  1.0531
16993TIP3    H272395   3.335   0.762   4.354 -0.8419  1.7594  1.8336
16994TIP3   OH272396   0.923   6.447   1.073 -0.5747  0.9227  0.7905
16994TIP3    H172397   0.861   6.453   1.145 -1.4973  0.8138  0.0224
16994TIP3    H272398   1.007   6.470   1.112 -0.5800 -1.5278  2.4765
16995TIP3   OH272399   4.682   4.980  16.590 -0.3171 -0.8507  0.1737
16995TIP3    H172400   4.679   5.074  16.573 -0.2127 -0.8171  0.3427
16995TIP3    H272401   4.724   4.942  16.513 -0.4124 -0.7656  0.0798
16996TIP3   OH272402   5.838   3.743   1.094  0.5657 -0.2621  0.3826
16996TIP3    H172403   5.807   3.654   1.082 -1.2342  0.3661 -0.0286
16996TIP3    H272404   5.827   3.784   1.008  2.1419  0.1527  0.3477
16997TIP3   OH272405   3.580   2.265   2.038  0.0453  0.4341 -0.7211
16997TIP3    H172406   3.651   2.328   2.022  0.1285  0.5454  0.0499
16997TIP3    H272407   3.501   2.318   2.029  0.1195  0.6895  0.0622
16998TIP3   OH272408   4.305   6.457   3.371 -0.0573  0.2578  0.1604
16998TIP3    H172409   4.389   6.418   3.396  0.3960 -0.3468 -2.0661
16998TIP3    H272410   4.306   6.544   3.412  1.0014 -0.2838  1.3488
16999TIP3   OH272411   0.718   0.002   0.268 -0.3279 -0.3290  0.4669
16999TIP3    H172412   0.682  -0.001   0.356 -0.5938  0.1790  0.3816
16999TIP3    H272413   0.733   0.095   0.251 -2.8587 -0.0826 -1.0301
17000TIP3   OH272414   5.904   2.243  16.896  0.6865  0.1890  0.2165
17000TIP3    H172415   5.906   2.338  16.885  4.0286  0.0695 -1.4223
17000TIP3    H272416   5.875   2.209  16.812 -0.9034 -0.2912  0.9247
17001TIP3   OH272417   5.224   5.919  11.642 -0.1595 -0.5652  0.7126
17001TIP3    H172418   5.224   5.847  11.704  3.1653  0.9324  2.7703
17001TIP3    H272419   5.199   5.996  11.694 -0.2038  0.2990 -0.5345
17002TIP3   OH272420   5.273   2.541   2.699 -0.4087  0.4544  0.3743
17002TIP3    H172421   5.235   2.622   2.665 -0.9223  0.0681  0.0069
17002TIP3    H272422   5.199   2.479   2.700  0.2161 -0.3262 -0.4006
17003TIP3   OH272423   2.114   5.533  16.767  0.4659  0.3352  0.0808
17003TIP3    H172424   2.075   5.479  16.697  1.0113 -1.1407  0.8723
17003TIP3    H272425   2.179   5.587  16.721  1.8981 -1.6839 -0.4197
17004TIP3   OH272426   4.283   0.331   3.760  0.3526  0.0825 -0.4376
17004TIP3    H172427   4.334   0.254   3.785 -2.1421 -0.9859  1.8174
17004TIP3    H272428   4.344   0.404   3.769  1.8970 -1.2656  0.6924
17005TIP3   OH272429   4.318   3.534   0.525  0.5609 -0.0274  0.0043
17005TIP3    H172430   4.387   3.469   0.513 -0.2223 -0.9095  0.1842
17005TIP3    H272431   4.241   3.483   0.549  0.0383  1.0069  0.5760
17006TIP3   OH272432   4.891   6.237   0.474 -0.1810 -0.5593  0.2166
17006TIP3    H172433   4.959   6.279   0.421 -0.6685  1.0374  0.7941
17006TIP3    H272434   4.823   6.214   0.411  0.4965 -1.3560 -0.2411
17007TIP3   OH272435   2.635   3.591  11.248  0.5119 -0.1005  0.2705
17007TIP3    H172436   2.686   3.648  11.190  0.2613  2.1738  2.1382
17007TIP3    H272437   2.693   3.517  11.265  1.8854  0.8073 -0.2581
17008TIP3   OH272438   2.141   2.122   3.286 -0.4246 -0.0794  0.1332
17008TIP3    H172439   2.127   2.127   3.192 -2.0162 -0.1851  0.3431
17008TIP3    H272440   2.060   2.085   3.321  0.6230 -1.2877  1.4162
17009TIP3   OH272441   0.398   3.404  15.435 -0.3227 -0.0548  0.6909
17009TIP3    H172442   0.357   3.374  15.354 -1.2265 -0.3990  1.2679
17009TIP3    H272443   0.492   3.394  15.419 -0.4958 -0.2495 -0.2609
17010TIP3   OH272444   3.260   5.528  13.357 -0.6820 -0.4014  0.3462
17010TIP3    H172445   3.228   5.448  13.314 -2.0026  0.3828 -0.1908
17010TIP3    H272446   3.180   5.575  13.382 -0.0033  1.8838 -1.4923
17011TIP3   OH272447   3.310   1.373   4.092 -0.4581 -0.0582 -0.4720
17011TIP3    H172448   3.246   1.308   4.120 -0.1678 -1.3422 -2.5752
17011TIP3    H272449   3.265   1.424   4.024 -0.3002  1.2284  0.3417
17012TIP3   OH272450   6.254   5.667   0.457 -0.0421  0.7232  0.4075
17012TIP3    H172451   6.320   5.670   0.526  0.8776  0.6880 -0.4528
17012TIP3    H272452   6.202   5.747   0.471 -0.3348  0.3484  1.5737
17013TIP3   OH272453   1.769   2.679   1.381 -1.0122 -0.1544  0.2292
17013TIP3    H172454   1.767   2.594   1.336 -0.2324 -0.2765  0.4096
17013TIP3    H272455   1.860   2.691   1.406 -0.6668  1.7054 -1.6124
17014TIP3   OH272456   2.968   5.855   5.626  0.3786 -0.0656 -0.8073
17014TIP3    H172457   3.039   5.917   5.607  0.3278  0.0191 -0.7233
17014TIP3    H272458   2.897   5.882   5.567  0.5364 -0.3669 -1.1405
17015TIP3   OH272459   3.913   0.757  14.280  0.3887  0.2205 -0.2196
17015TIP3    H172460   3.896   0.693  14.211  1.7704 -1.0423  0.5495
17015TIP3    H272461   3.829   0.800  14.294  0.1181  0.7592 -2.8685
17016TIP3   OH272462   5.550   2.350   2.281  0.5301 -0.4783  0.3568
17016TIP3    H172463   5.599   2.268   2.291  0.4703 -0.8178 -1.6806
17016TIP3    H272464   5.597   2.413   2.335  1.4705 -1.5063  0.7688
17017TIP3   OH272465   4.133   1.821   1.191  0.0008 -0.0398  0.0022
17017TIP3    H172466   4.095   1.749   1.240 -0.2602 -0.5879 -0.9766
17017TIP3    H272467   4.058   1.866   1.152  0.2746 -0.7769 -1.4568
17018TIP3   OH272468   4.346   5.816  11.828 -0.7133 -0.6265 -0.1106
17018TIP3    H172469   4.347   5.869  11.908  0.9396 -1.2394  0.3176
17018TIP3    H272470   4.346   5.880  11.757  1.9130  0.0627  0.3842
17019TIP3   OH272471   3.544   1.992   4.506 -0.3497  0.6555 -0.3709
17019TIP3    H172472   3.564   2.059   4.441  0.0392  0.5037 -0.4117
17019TIP3    H272473   3.527   1.913   4.456 -0.2417  0.5856 -0.2982
17020TIP3   OH272474   0.345   3.989   3.611  0.4354  0.8115 -0.4428
17020TIP3    H172475   0.371   4.049   3.540 -1.7046  0.6040 -1.4926
17020TIP3    H272476   0.349   3.902   3.571  0.3541  0.5645  0.0797
17021TIP3   OH272477   5.723   4.528  15.638  1.0964 -0.0879  0.0130
17021TIP3    H172478   5.719   4.441  15.598  0.8497  0.6879 -1.7471
17021TIP3    H272479   5.814   4.556  15.624  1.2466 -0.1418  0.8160
17022TIP3   OH272480   6.322   0.777   5.030  0.3025  0.7619  0.3297
17022TIP3    H172481   6.274   0.825   5.098  2.1948 -0.3466  2.5878
17022TIP3    H272482   6.347   0.844   4.967 -0.6037  2.0377  1.2586
17023TIP3   OH272483   2.309   0.627   5.113 -0.5945  0.3224  0.1250
17023TIP3    H172484   2.291   0.661   5.026  0.4836  1.7315  0.4139
17023TIP3    H272485   2.234   0.653   5.166 -0.8325  0.2429 -0.1704
17024TIP3   OH272486   6.203   5.187   6.189 -0.0711  0.1376  0.4638
17024TIP3    H172487   6.249   5.164   6.108  1.2327 -0.3443  1.2957
17024TIP3    H272488   6.214   5.282   6.196  1.0081  0.0021  0.7529
17025TIP3   OH272489   6.146   4.196   4.210  0.0939  0.2310 -0.1864
17025TIP3    H172490   6.184   4.257   4.147  0.0374  0.6426  0.1749
17025TIP3    H272491   6.217   4.135   4.230 -0.9812 -2.4870 -3.7596
17026TIP3   OH272492   4.617   1.936  12.719  0.4397  0.7182  0.0725
17026TIP3    H172493   4.541   1.885  12.748  0.4550  0.2164 -0.7459
17026TIP3    H272494   4.692   1.890  12.757  0.4465  0.1693 -0.5833
17027TIP3   OH272495   5.223   6.609  15.182  0.3346 -0.1161 -0.0584
17027TIP3    H172496   5.316   6.590  15.166  0.1174 -1.9579  0.6365
17027TIP3    H272497   5.215   6.702  15.165  1.5394 -0.5364 -3.7933
17028TIP3   OH272498   0.586   0.958  13.603  0.1510 -0.0142  0.1713
17028TIP3    H172499   0.597   1.002  13.687  2.2251  0.1969 -0.1519
17028TIP3    H272500   0.580   1.029  13.539  0.3022 -0.1807 -0.0293
17029TIP3   OH272501   2.550   4.174  14.068  0.1264 -0.1988  0.0342
17029TIP3    H172502   2.461   4.172  14.103  0.2346 -0.0996  0.3177
17029TIP3    H272503   2.593   4.098  14.107  0.0645 -0.4466 -0.3773
17030TIP3   OH272504   0.055   0.976  11.560  0.5637  1.1696 -0.3094
17030TIP3    H172505   0.068   1.047  11.623  0.4077  0.8200  0.1213
17030TIP3    H272506  -0.025   1.000  11.514  0.0589  0.8755  0.3937
17031TIP3   OH272507   1.656   3.575  11.784 -0.0534 -0.5417 -0.1864
17031TIP3    H172508   1.678   3.547  11.696 -2.0335  1.3103 -1.3694
17031TIP3    H272509   1.623   3.664  11.773  1.0061  0.3115  2.6335
17032TIP3   OH272510   1.793   2.709   4.482  0.3928  0.1647 -0.0373
17032TIP3    H172511   1.734   2.687   4.411 -2.3413 -2.9343  2.8484
17032TIP3    H272512   1.747   2.777   4.532  0.7249 -0.0446  0.5664
17033TIP3   OH272513   5.254   4.314   0.061  0.1703  0.1158  0.4635
17033TIP3    H172514   5.184   4.371   0.031 -1.2402 -1.1075  1.2928
17033TIP3    H272515   5.334   4.365   0.048 -0.9578  1.9817  0.5464
17034TIP3   OH272516   1.027   1.014  12.851 -0.3864 -0.1443 -0.2707
17034TIP3    H172517   0.997   0.983  12.766  0.4273  0.1059 -0.6585
17034TIP3    H272518   1.100   0.956  12.874  0.1702  0.5207 -0.3050
17035TIP3   OH272519   5.588   0.780  16.998  0.1014 -0.5022  0.5177
17035TIP3    H172520   5.550   0.750  17.081 -1.1037 -0.5508 -0.0322
17035TIP3    H272521   5.547   0.865  16.982  0.0108 -0.6812 -0.2348
17036TIP3   OH272522   1.013   5.505   3.767 -0.2795  0.1437 -0.6564
17036TIP3    H172523   1.011   5.555   3.849  0.1942  0.3805 -0.7846
17036TIP3    H272524   0.934   5.451   3.770 -0.4810  0.4539 -0.2334
17037TIP3   OH272525   3.959   4.258   3.503 -0.4623 -0.4091  0.1348
17037TIP3    H172526   3.979   4.266   3.597  0.3244  1.2191 -0.1338
17037TIP3    H272527   3.872   4.297   3.494 -0.7509 -1.0218  0.2585
17038TIP3   OH272528   3.631   1.649  15.471  0.7646 -0.3467  0.0534
17038TIP3    H172529   3.641   1.741  15.446  2.0313 -0.0573  1.5091
17038TIP3    H272530   3.569   1.614  15.407 -2.1703  2.2352  1.2586
17039TIP3   OH272531   1.803   4.363  11.579  0.2196 -0.2096  0.3581
17039TIP3    H172532   1.773   4.454  11.586  0.1807 -0.1709 -0.3161
17039TIP3    H272533   1.846   4.347  11.663 -1.8999 -0.3697  1.4738
17040TIP3   OH272534   2.460   0.437   1.425  0.1630  0.5581  0.2189
17040TIP3    H172535   2.436   0.349   1.397 -0.8138  1.2622 -1.3230
17040TIP3    H272536   2.515   0.424   1.502  0.0438 -1.3844  0.0233
17041TIP3   OH272537   2.123   3.947  15.741  0.7494 -0.4246 -0.3075
17041TIP3    H172538   2.149   3.862  15.706 -0.3827 -1.3310  0.9548
17041TIP3    H272539   2.149   3.943  15.833  0.5173  0.5294 -0.1970
17042TIP3   OH272540   6.192   3.049  15.127 -0.1553  0.0820 -0.6027
17042TIP3    H172541   6.150   2.963  15.131 -0.0045  0.0424  0.2411
17042TIP3    H272542   6.283   3.033  15.152  0.6006  0.0500 -3.1040
17043TIP3   OH272543   4.898   5.137  11.091 -0.0925  0.4875  0.0111
17043TIP3    H172544   4.824   5.080  11.112  1.2183 -1.2369  0.2129
17043TIP3    H272545   4.950   5.087  11.028  0.6888  1.8454 -0.4803
17044TIP3   OH272546   0.117   6.818   4.929  0.0277  0.3171 -0.2297
17044TIP3    H172547   0.179   6.887   4.951 -2.2073  1.7178  2.4272
17044TIP3    H272548   0.051   6.862   4.875 -0.8765  0.0322  0.6187
17045TIP3   OH272549   6.524   1.493   4.396 -0.2327 -0.4726 -0.3073
17045TIP3    H172550   6.553   1.415   4.443  2.4041  0.1264 -0.7787
17045TIP3    H272551   6.587   1.503   4.325 -0.9395  1.6724 -0.7002
17046TIP3   OH272552   2.214   1.778  13.493 -0.2309 -0.0151 -0.0320
17046TIP3    H172553   2.261   1.697  13.473 -0.3815 -0.1792  0.2619
17046TIP3    H272554   2.228   1.792  13.587 -0.1787  0.3167 -0.0888
17047TIP3   OH272555   5.031   6.067   5.869 -0.2290 -0.6593  0.3887
17047TIP3    H172556   4.998   6.044   5.957 -0.8339  0.4654  0.4702
17047TIP3    H272557   4.980   6.144   5.844  1.9783  0.8516  0.2884
17048TIP3   OH272558   5.562   2.202   0.933 -0.2497 -0.3750  0.3276
17048TIP3    H172559   5.540   2.128   0.989  2.0079 -2.7871 -1.6939
17048TIP3    H272560   5.537   2.173   0.845  0.5384  1.3331 -0.4964
17049TIP3   OH272561   5.765   2.654  12.119 -0.0064 -0.3728  0.1080
17049TIP3    H172562   5.795   2.716  12.053  1.2488 -1.5508 -0.4865
17049TIP3    H272563   5.844   2.633  12.169 -0.9543  0.6138  2.1369
17050TIP3   OH272564   4.077   0.620  15.239 -0.4053  0.3826 -0.3890
17050TIP3    H172565   4.065   0.715  15.239  1.6986  0.6938 -0.3725
17050TIP3    H272566   4.022   0.590  15.167 -0.4390  1.7245 -0.9684
17051TIP3   OH272567   0.017   5.315  13.641 -0.2222  0.4291  0.1830
17051TIP3    H172568   0.111   5.327  13.633 -0.0825 -0.2197  0.6684
17051TIP3    H272569   0.002   5.226  13.610 -1.0116  1.2936 -2.0754
17052TIP3   OH272570   2.585   3.193   4.239  0.4695 -0.3198 -0.5688
17052TIP3    H172571   2.615   3.105   4.263 -0.6828 -0.0803  2.1073
17052TIP3    H272572   2.528   3.179   4.163 -0.1403 -1.9570  0.1584
17053TIP3   OH272573   4.020   2.421  13.699  0.1880 -0.2080 -0.2978
17053TIP3    H172574   3.952   2.359  13.674  0.6251  0.1552 -2.6872
17053TIP3    H272575   4.077   2.427  13.622  1.8342  0.9496  0.9184
17054TIP3   OH272576   5.730   0.249  16.349  0.3114 -0.4019 -0.0934
17054TIP3    H172577   5.726   0.239  16.254 -0.4874 -0.6757 -0.0321
17054TIP3    H272578   5.804   0.308  16.363 -1.4864  2.2789 -1.0830
17055TIP3   OH272579   2.747   3.294   5.931  0.4786  0.3162  0.0894
17055TIP3    H172580   2.683   3.282   6.001 -1.4984  0.6856 -1.5477
17055TIP3    H272581   2.801   3.215   5.932 -2.0687 -1.5301 -0.4548
17056TIP3   OH272582   4.178   6.220   3.601  0.1254  0.4988  0.1180
17056TIP3    H172583   4.127   6.256   3.528  0.2670  1.4975  0.4994
17056TIP3    H272584   4.118   6.161   3.645 -0.1196  0.2594 -0.5219
17057TIP3   OH272585   3.745   3.206   4.881 -0.4480 -0.1347 -0.5757
17057TIP3    H172586   3.703   3.290   4.861  0.7539  0.6639  0.1836
17057TIP3    H272587   3.746   3.201   4.976  0.8514 -0.2955 -0.5826
17058TIP3   OH272588   4.707   2.773   4.088  0.4541 -0.2981 -0.3844
17058TIP3    H172589   4.752   2.690   4.072  0.9683  0.0089 -0.5482
17058TIP3    H272590   4.706   2.817   4.003  0.0530 -0.1971 -0.3316
17059TIP3   OH272591   6.643   0.773  11.020 -0.2780  0.5006 -0.1233
17059TIP3    H172592   6.571   0.737  11.071 -0.6520  2.0290  0.4738
17059TIP3    H272593   6.601   0.824  10.951  0.2149  1.2947  0.1478
17060TIP3   OH272594   2.811   3.600  12.260  0.4463  0.7788  0.0224
17060TIP3    H172595   2.833   3.669  12.324 -0.0930  1.7504 -0.8093
17060TIP3    H272596   2.744   3.640  12.205  1.1928  0.0964 -1.4153
17061TIP3   OH272597   3.961   2.213   3.428  0.1520 -0.7722  0.4929
17061TIP3    H172598   4.035   2.170   3.471  0.4912  0.5685  1.3208
17061TIP3    H272599   3.890   2.207   3.492 -0.2117 -1.3221  0.0406
17062TIP3   OH272600   5.488   4.935   4.909 -0.2191  0.1015  0.3447
17062TIP3    H172601   5.405   4.896   4.935 -0.1288 -0.5870 -0.3833
17062TIP3    H272602   5.544   4.928   4.987 -0.5190 -0.3395  0.5198
17063TIP3   OH272603   5.394   0.366   1.395 -0.3233 -0.2717  0.6868
17063TIP3    H172604   5.421   0.390   1.307  0.7400 -1.8703  0.5367
17063TIP3    H272605   5.301   0.389   1.398 -0.2715  0.2310 -0.6789
17064TIP3   OH272606   5.600   5.065   3.305  0.2120  0.2139 -0.2190
17064TIP3    H172607   5.642   4.980   3.316  1.3290  0.3420 -2.6803
17064TIP3    H272608   5.633   5.118   3.378  2.3473 -0.4758 -0.5949
17065TIP3   OH272609   6.742   4.663  16.486  0.0341  0.2824  0.2891
17065TIP3    H172610   6.724   4.721  16.559 -0.3978  0.2125  0.2439
17065TIP3    H272611   6.770   4.580  16.526  1.5531  0.7929  0.3389
17066TIP3   OH272612   2.321   3.431   2.521  0.2119  0.1415  0.2613
17066TIP3    H172613   2.284   3.471   2.599 -0.2367 -0.5275  0.4061
17066TIP3    H272614   2.259   3.362   2.498  1.4654 -1.1535  0.6165
17067TIP3   OH272615   2.305   0.239  14.408  0.2122  0.0244  0.2697
17067TIP3    H172616   2.279   0.224  14.317  0.0528 -0.9612  0.4654
17067TIP3    H272617   2.224   0.229  14.458  0.3639  0.2224  0.5588
17068TIP3   OH272618   2.705   0.171  12.286  0.4069  0.3704  0.4202
17068TIP3    H172619   2.730   0.224  12.210 -1.0153  1.1203  0.4481
17068TIP3    H272620   2.684   0.234  12.354 -0.5279 -0.2475  0.7168
17069TIP3   OH272621   6.180   0.953   2.270 -0.0181 -0.2418 -0.2392
17069TIP3    H172622   6.268   0.977   2.242  0.0883  0.4167  0.6051
17069TIP3    H272623   6.141   1.036   2.299 -1.4870 -0.2410 -2.0437
17070TIP3   OH272624   4.457   6.284  13.183  0.0802  0.1158  0.4199
17070TIP3    H172625   4.538   6.240  13.210 -1.1954 -0.6504  3.3873
17070TIP3    H272626   4.456   6.365  13.234 -0.9584  0.1689  0.3332
17071TIP3   OH272627   0.760   6.569   3.943  0.1914  0.4586 -0.1917
17071TIP3    H172628   0.826   6.553   4.011  0.0591  1.0243  0.0766
17071TIP3    H272629   0.809   6.568   3.861  0.2402 -1.0043 -0.1787
17072TIP3   OH272630   5.956   2.430   2.033  0.1303 -0.5453  0.3890
17072TIP3    H172631   6.030   2.372   2.052  0.0651 -0.6699  0.2667
17072TIP3    H272632   5.879   2.378   2.055  0.0932 -0.2054  1.0826
17073TIP3   OH272633   1.252   3.089   0.347 -0.1402 -0.1130 -0.6302
17073TIP3    H172634   1.272   3.175   0.385  2.6115 -0.3976 -1.2507
17073TIP3    H272635   1.214   3.039   0.420  3.1264 -0.0086  1.3737
17074TIP3   OH272636   6.549   6.405  12.437 -0.0606 -0.0494  0.0226
17074TIP3    H172637   6.583   6.325  12.396 -1.7288 -1.1579  0.6752
17074TIP3    H272638   6.531   6.379  12.527 -1.7786  0.7021 -0.0690
17075TIP3   OH272639   2.438   3.785   4.372  0.2931  0.0929 -0.3300
17075TIP3    H172640   2.532   3.768   4.362  0.3631 -1.5449  2.0867
17075TIP3    H272641   2.410   3.819   4.287  3.0034  0.3811 -1.2034
17076TIP3   OH272642   5.540   4.783  16.465  0.2257  0.4158 -0.6968
17076TIP3    H172643   5.606   4.817  16.405  1.4195 -0.2970  0.1700
17076TIP3    H272644   5.535   4.848  16.535 -1.1254  1.2192 -1.4793
17077TIP3   OH272645   3.859   6.060   1.151  0.5499 -0.3394  0.2788
17077TIP3    H172646   3.814   6.138   1.119  0.7660 -0.6862 -0.9182
17077TIP3    H272647   3.796   6.018   1.211  0.9715  1.4953  2.1229
17078TIP3   OH272648   2.112   3.661   2.675 -0.0389 -0.2480 -0.0025
17078TIP3    H172649   2.178   3.704   2.729 -1.3918  3.3199 -0.8779
17078TIP3    H272650   2.135   3.685   2.585 -2.7496  1.7985 -0.2971
17079TIP3   OH272651   3.319   0.937   3.283 -0.0260  0.6917 -0.2309
17079TIP3    H172652   3.373   1.008   3.319  1.4119 -0.6529  0.3571
17079TIP3    H272653   3.381   0.867   3.262 -1.5744 -1.0841  0.8314
17080TIP3   OH272654   1.449   2.919  15.230  0.0505  0.3529 -0.3669
17080TIP3    H172655   1.475   2.848  15.289  0.2891  0.2462 -0.5982
17080TIP3    H272656   1.531   2.948  15.190 -0.0933  0.5199 -0.5433
17081TIP3   OH272657   2.687   4.562   3.206  0.4209 -0.3868  0.4962
17081TIP3    H172658   2.753   4.532   3.268  0.8125  0.7482  0.6432
17081TIP3    H272659   2.664   4.484   3.156  0.8047 -1.1027  1.4141
17082TIP3   OH272660   0.185   2.590  13.272 -0.2735  0.0391  0.1500
17082TIP3    H172661   0.264   2.556  13.313 -0.4632  1.1779  1.5450
17082TIP3    H272662   0.163   2.526  13.205  0.4805 -1.5454  1.3429
17083TIP3   OH272663   4.828   2.141   0.159  0.0653  0.5753  0.1824
17083TIP3    H172664   4.748   2.110   0.116 -0.5226  1.4495  0.6017
17083TIP3    H272665   4.892   2.149   0.088 -1.3989  3.7566 -1.0056
17084TIP3   OH272666   2.688   1.137  12.874  0.0570 -0.4321 -0.0610
17084TIP3    H172667   2.680   1.224  12.912 -1.0245  0.6933 -2.7011
17084TIP3    H272668   2.631   1.082  12.929 -2.2765  1.3277 -0.5718
17085TIP3   OH272669   3.973   0.039   6.188  0.9675  0.0128  0.1554
17085TIP3    H172670   3.937  -0.050   6.191  0.8655  0.0381 -0.2456
17085TIP3    H272671   4.029   0.045   6.265  0.8043 -0.3269  0.3023
17086TIP3   OH272672   6.008   0.262  14.661 -0.7992  0.4567 -0.4434
17086TIP3    H172673   6.002   0.172  14.694 -3.7960  0.3741 -0.9565
17086TIP3    H272674   6.078   0.258  14.596  0.5822 -0.9652  1.0238
17087TIP3   OH272675   5.376   1.560   2.661 -0.0984  0.2001  0.0265
17087TIP3    H172676   5.329   1.550   2.744  1.7165 -2.2337  0.8715
17087TIP3    H272677   5.424   1.641   2.671  0.2827 -0.1708  1.5031
17088TIP3   OH272678   3.855   6.262  16.510  0.1452 -0.2852 -0.0724
17088TIP3    H172679   3.942   6.281  16.545 -0.2982  0.1285  0.8350
17088TIP3    H272680   3.872   6.213  16.430  1.1937 -1.1887  0.6682
17089TIP3   OH272681   3.573   2.650   1.092  0.1914  0.2034 -0.4361
17089TIP3    H172682   3.647   2.706   1.115  1.0176 -0.9062 -0.2952
17089TIP3    H272683   3.520   2.646   1.172  1.8525 -1.7990  0.6778
17090TIP3   OH272684   1.720   5.488   3.674  0.7659 -0.1682  0.4636
17090TIP3    H172685   1.627   5.471   3.660  0.2169  0.2485  3.1084
17090TIP3    H272686   1.742   5.440   3.754  2.9702 -0.6543 -0.3566
17091TIP3   OH272687   5.250   2.360  12.180 -0.7118 -0.2845 -0.4586
17091TIP3    H172688   5.209   2.437  12.141  1.7630  0.5953 -1.5116
17091TIP3    H272689   5.344   2.374  12.169 -0.0344 -1.9544  2.2574
17092TIP3   OH272690   1.753   6.364   4.581  0.0320  0.5812 -0.1426
17092TIP3    H172691   1.682   6.316   4.624  0.8348 -0.5529 -0.0498
17092TIP3    H272692   1.711   6.443   4.547 -2.2261 -1.8594 -3.7032
17093TIP3   OH272693   5.731   2.115  16.739 -0.4469 -0.0146 -0.0155
17093TIP3    H172694   5.805   2.056  16.721  0.2268  0.9638 -0.5385
17093TIP3    H272695   5.681   2.116  16.657  0.7084  1.7345 -0.7719
17094TIP3   OH272696   0.266   4.752  13.636 -0.3455  0.7402  0.2813
17094TIP3    H172697   0.342   4.810  13.645 -0.1582  0.2219  2.7316
17094TIP3    H272698   0.285   4.678  13.693 -1.5293 -0.7565 -1.1456
17095TIP3   OH272699   4.147   1.296  15.978 -0.0260 -0.4252 -0.3449
17095TIP3    H172700   4.106   1.356  15.915  0.5551  0.8537  0.4547
17095TIP3    H272701   4.235   1.331  15.990  0.0627 -0.9829  0.7448
17096TIP3   OH272702   5.978   0.142  14.234  0.2985 -0.0525  0.1855
17096TIP3    H172703   5.978   0.047  14.246  0.9649  0.0153  0.7479
17096TIP3    H272704   6.062   0.161  14.193 -0.3311  0.1718 -1.0606
17097TIP3   OH272705   5.692   4.261  16.123 -0.1575  0.1741  0.0998
17097TIP3    H172706   5.671   4.319  16.196  1.1259 -0.2346  0.8332
17097TIP3    H272707   5.704   4.175  16.163  1.0139  0.0370 -0.5044
17098TIP3   OH272708   5.109   0.063   2.155 -0.3745  0.1846  0.0417
17098TIP3    H172709   5.038   0.092   2.212 -0.7691  0.8297 -0.7480
17098TIP3    H272710   5.127   0.139   2.099  0.3621 -0.2553 -0.3319
17099TIP3   OH272711   1.444   0.457   2.451 -0.2438  0.1044 -0.4027
17099TIP3    H172712   1.465   0.371   2.486  1.4813  1.0367  1.0094
17099TIP3    H272713   1.375   0.441   2.387  0.0288 -2.3079 -0.1677
17100TIP3   OH272714   2.346   2.510  16.336  0.2626  0.5186  0.3357
17100TIP3    H172715   2.377   2.571  16.403 -0.2458  0.4456  0.6447
17100TIP3    H272716   2.262   2.547  16.307 -0.7067 -0.6843  1.4567
17101TIP3   OH272717   1.492   4.731  10.615 -0.6450 -0.5036 -0.2028
17101TIP3    H172718   1.581   4.726  10.649 -1.1392 -2.0239  1.0225
17101TIP3    H272719   1.445   4.786  10.678 -0.5159  0.5789 -1.0309
17102TIP3   OH272720   3.942   3.602  13.288  0.1526 -0.3768  0.0418
17102TIP3    H172721   4.016   3.602  13.227 -0.1424  0.4717 -0.3347
17102TIP3    H272722   3.976   3.643  13.367  0.3435 -0.8598  0.2166
17103TIP3   OH272723   1.577   5.555   2.631 -0.2833 -0.4228 -0.0701
17103TIP3    H172724   1.668   5.555   2.661 -0.2920 -0.5600 -0.0439
17103TIP3    H272725   1.531   5.498   2.693 -0.6419  0.6694  0.6849
17104TIP3   OH272726   1.117   0.499   2.746  0.1351 -0.6152  0.2897
17104TIP3    H172727   1.156   0.413   2.735  2.4530  0.2706  0.9374
17104TIP3    H272728   1.104   0.531   2.656  2.7583 -0.2418 -0.0477
17105TIP3   OH272729   0.231   1.842   3.144  0.3893 -0.0416  0.2747
17105TIP3    H172730   0.282   1.793   3.208  0.6879  0.6205  0.5497
17105TIP3    H272731   0.289   1.912   3.115  0.9290 -1.3291 -2.0445
17106TIP3   OH272732   4.209   0.268  12.594  0.7853  0.1338  0.2004
17106TIP3    H172733   4.170   0.319  12.665  0.9210  1.9345 -0.9281
17106TIP3    H272734   4.301   0.293  12.594  1.0544 -0.8373  0.1859
17107TIP3   OH272735   2.475   3.149  12.290 -0.0040 -0.2938 -0.0963
17107TIP3    H172736   2.459   3.055  12.278  2.3706 -0.5099 -2.3193
17107TIP3    H272737   2.511   3.156  12.378  0.4140 -1.5934 -0.1420
17108TIP3   OH272738   4.300   1.162   5.855 -0.5460  0.2585 -0.6198
17108TIP3    H172739   4.242   1.212   5.912  0.9487  0.2298  1.0259
17108TIP3    H272740   4.373   1.221   5.838  0.3505 -0.6980 -0.1932
17109TIP3   OH272741   1.419   2.318  12.264  0.0780 -0.6555  0.7093
17109TIP3    H172742   1.403   2.262  12.188 -0.2013 -0.6104  0.7347
17109TIP3    H272743   1.332   2.337  12.298  0.2066 -0.7304  1.0818
17110TIP3   OH272744   0.947   0.186   3.432  0.4885  0.3872 -0.1308
17110TIP3    H172745   0.953   0.221   3.521 -0.3451  0.0349  0.0791
17110TIP3    H272746   0.925   0.093   3.445  1.6060  0.0351 -0.6901
17111TIP3   OH272747   1.599   4.660   5.598 -0.1804 -0.2139  0.2238
17111TIP3    H172748   1.649   4.584   5.567 -1.8036 -1.4098  0.3722
17111TIP3    H272749   1.591   4.646   5.693  0.6507  0.8897  0.4835
17112TIP3   OH272750   2.650   0.320   0.057 -0.2139  0.1723 -0.1092
17112TIP3    H172751   2.625   0.399   0.009  3.0090  0.9059 -0.8021
17112TIP3    H272752   2.642   0.344   0.149 -0.0348  1.0326 -0.3084
17113TIP3   OH272753   1.979   6.361   6.181  0.1523  0.4067 -0.5485
17113TIP3    H172754   2.027   6.321   6.253 -2.1114 -0.4768  0.5648
17113TIP3    H272755   2.027   6.334   6.103  0.3418 -2.1297  0.3624
17114TIP3   OH272756   4.596   4.244  12.914 -0.6070 -0.0535 -0.0047
17114TIP3    H172757   4.585   4.285  12.828 -1.7957  1.4170  0.8100
17114TIP3    H272758   4.567   4.154  12.901  0.0105 -0.0869 -1.3268
17115TIP3   OH272759   2.029   2.870   3.108  0.2175  0.8705  0.2934
17115TIP3    H172760   2.105   2.824   3.143 -0.9245  0.2887  2.1731
17115TIP3    H272761   2.059   2.906   3.025  2.2747 -0.0611  0.5636
17116TIP3   OH272762   3.331   4.445  13.062  0.1119  0.5774  0.0491
17116TIP3    H172763   3.418   4.410  13.043  0.5293  0.8856  1.3011
17116TIP3    H272764   3.336   4.537  13.035  0.3435  0.7268  0.5936
17117TIP3   OH272765   1.184   4.511   4.579  0.4262  0.1160 -0.1521
17117TIP3    H172766   1.125   4.441   4.550 -1.0091  0.3002  2.0966
17117TIP3    H272767   1.185   4.573   4.506  0.1553 -1.2558 -1.3831
17118TIP3   OH272768   6.559   3.585  14.579  0.1574  0.4349 -0.7013
17118TIP3    H172769   6.475   3.631  14.573  0.2781  0.8735  0.5279
17118TIP3    H272770   6.561   3.551  14.669  1.5686  1.0316 -0.4675
17119TIP3   OH272771   0.513   5.131   4.676  0.3562  0.6332  0.3956
17119TIP3    H172772   0.441   5.070   4.663  1.3640 -0.7623  0.9893
17119TIP3    H272773   0.480   5.216   4.647 -0.9950 -0.2514 -0.7530
17120TIP3   OH272774   0.922   2.289   2.672 -0.0299 -0.7952 -0.0580
17120TIP3    H172775   1.001   2.331   2.705  1.7090 -3.5402 -0.4930
17120TIP3    H272776   0.893   2.232   2.744  0.1682 -2.0716 -0.9606
17121TIP3   OH272777   1.017   0.687  14.471 -0.6685 -0.5094 -0.3990
17121TIP3    H172778   0.970   0.672  14.389  0.8551 -0.2288 -1.3784
17121TIP3    H272779   1.095   0.632  14.464 -0.5801 -0.5879  0.9397
17122TIP3   OH272780   2.774   4.644   4.662  0.2440  0.2472 -0.3006
17122TIP3    H172781   2.741   4.725   4.622  0.9091  0.7376  0.1323
17122TIP3    H272782   2.761   4.577   4.595 -2.2392  0.2669  0.0592
17123TIP3   OH272783   4.865   4.139  12.477  0.7148 -0.0074  0.7090
17123TIP3    H172784   4.783   4.120  12.522  1.2594  0.5869  2.0097
17123TIP3    H272785   4.876   4.234  12.487  0.6054  0.2478 -1.1691
17124TIP3   OH272786   2.813   1.003   1.035  0.1375 -0.5786  0.4692
17124TIP3    H172787   2.843   0.987   0.946 -0.4598  0.9312 -0.0360
17124TIP3    H272788   2.890   0.985   1.090  1.3337  1.0368 -0.5928
17125TIP3   OH272789   5.234   2.182   4.918  0.0202  0.1260 -0.2042
17125TIP3    H172790   5.322   2.187   4.879  0.4302 -0.8724  0.5560
17125TIP3    H272791   5.195   2.104   4.880  0.4030 -0.8277  1.2850
17126TIP3   OH272792   4.171   2.436  13.466 -0.0471 -1.3990  0.2441
17126TIP3    H172793   4.238   2.493  13.505 -1.4982 -0.0097  0.8045
17126TIP3    H272794   4.155   2.473  13.379 -2.5440  0.5105  1.3952
17127TIP3   OH272795   4.042   0.417  11.318 -0.0267  0.0445  0.3485
17127TIP3    H172796   4.011   0.335  11.355 -0.7164 -0.0441 -0.4175
17127TIP3    H272797   4.025   0.482  11.387 -0.9660 -0.1775  0.3302
17128TIP3   OH272798   4.698   0.740   3.626 -0.3876 -0.2455 -0.2527
17128TIP3    H172799   4.654   0.786   3.555  1.1944 -0.5877 -1.5175
17128TIP3    H272800   4.748   0.809   3.671 -0.4086 -0.2426 -0.2333
17129TIP3   OH272801   0.941   2.528  15.931 -0.3492 -0.2968  0.1615
17129TIP3    H172802   0.874   2.519  15.999 -1.7599  0.1948 -1.1113
17129TIP3    H272803   0.930   2.617  15.899  1.1913 -0.0844  0.1659
17130TIP3   OH272804   4.932   4.860   0.322  0.2290 -0.1293  0.5786
17130TIP3    H172805   4.940   4.854   0.227  0.9282  0.7345  0.5756
17130TIP3    H272806   4.989   4.791   0.356  0.1738 -0.2713  0.3845
17131TIP3   OH272807   5.312   6.480  12.244  0.3457  0.3119 -0.4277
17131TIP3    H172808   5.397   6.521  12.260 -0.7345  2.0138  1.5530
17131TIP3    H272809   5.283   6.450  12.331 -1.4175  0.5680 -0.8812
17132TIP3   OH272810   4.498   3.043  15.772 -0.3359 -0.7350  0.1133
17132TIP3    H172811   4.563   2.975  15.755  0.1783  0.0000 -0.9973
17132TIP3    H272812   4.463   3.023  15.859 -0.6325 -2.7558 -0.4296
17133TIP3   OH272813   0.950   5.503   1.151  0.0013  0.3686  0.5115
17133TIP3    H172814   0.871   5.557   1.152  1.0169  1.9181  1.8511
17133TIP3    H272815   0.953   5.463   1.238  0.1332 -0.5393  0.0992
17134TIP3   OH272816   3.535   2.588  11.316  0.0284  0.3091 -0.0372
17134TIP3    H172817   3.471   2.656  11.293 -0.7595  0.1989  1.6799
17134TIP3    H272818   3.502   2.551  11.397 -0.6163 -3.4734 -1.7923
17135TIP3   OH272819   0.518   4.141   2.009 -0.2311  0.5337  0.3570
17135TIP3    H172820   0.590   4.135   2.072 -0.3326 -1.0852  0.3521
17135TIP3    H272821   0.439   4.130   2.062 -0.3802  0.4267  0.1150
17136TIP3   OH272822   2.482   5.531  14.954 -0.0544  0.3089 -0.6520
17136TIP3    H172823   2.440   5.531  15.040  0.8209  3.3876 -0.0789
17136TIP3    H272824   2.457   5.615  14.915  0.3483 -0.5925 -3.0333
17137TIP3   OH272825   5.599   1.308  12.714  0.0288 -0.3092 -0.3274
17137TIP3    H172826   5.683   1.351  12.730 -0.1755 -0.3316  0.9067
17137TIP3    H272827   5.600   1.287  12.620  2.1124 -1.7575 -0.0573
17138TIP3   OH272828   1.126   1.906  15.392  0.4293  0.1289 -0.6001
17138TIP3    H172829   1.141   1.999  15.410 -2.1325  0.4785  0.2205
17138TIP3    H272830   1.201   1.861  15.430 -0.0261  1.6337  2.3688
17139TIP3   OH272831   0.243   0.093   2.109  0.0243  0.2160  0.7635
17139TIP3    H172832   0.184   0.161   2.141 -0.3666 -0.2622  1.0760
17139TIP3    H272833   0.310   0.140   2.061 -0.4497  0.7923  0.6598
17140TIP3   OH272834   5.236   1.940   1.495  0.0637 -0.3382 -0.2401
17140TIP3    H172835   5.176   1.998   1.543  0.3969  0.2164 -0.4754
17140TIP3    H272836   5.179   1.880   1.448 -0.2794 -0.6320  0.5285
17141TIP3   OH272837   5.844   2.598  14.706  0.3258  0.0781 -0.2044
17141TIP3    H172838   5.821   2.540  14.779 -0.7420  0.3289 -0.3164
17141TIP3    H272839   5.784   2.573  14.636  0.8192  0.3687 -0.7368
17142TIP3   OH272840   2.822   6.745  12.005 -0.3246  0.0291  0.2474
17142TIP3    H172841   2.841   6.694  11.926 -0.1023  1.1751 -0.4675
17142TIP3    H272842   2.909   6.764  12.041 -0.4151 -3.2735  2.7024
17143TIP3   OH272843   5.026   0.597  16.521  0.2344 -0.4909 -0.0838
17143TIP3    H172844   4.964   0.574  16.589  1.3750 -1.3503  0.6941
17143TIP3    H272845   5.112   0.586  16.561  0.9175  2.0756 -0.6622
17144TIP3   OH272846   0.130   2.821  16.768  0.0693  0.5995 -0.1458
17144TIP3    H172847   0.036   2.825  16.749  0.0448 -2.7014 -1.4867
17144TIP3    H272848   0.171   2.856  16.689 -0.1005 -1.2546 -1.1150
17145TIP3   OH272849   5.600   3.506   4.543  0.3203  0.2580 -0.8417
17145TIP3    H172850   5.522   3.490   4.596  0.3884  0.3595 -0.7092
17145TIP3    H272851   5.673   3.488   4.602  0.4416  2.8505 -0.0599
17146TIP3   OH272852   1.576   0.548  13.052  0.1045  0.3721  0.5788
17146TIP3    H172853   1.558   0.639  13.028  0.5249  0.2042 -0.4088
17146TIP3    H272854   1.666   0.548  13.084 -0.2498  0.4840  1.6063
17147TIP3   OH272855   0.227   3.339   4.578  0.4806 -0.5098  0.0185
17147TIP3    H172856   0.144   3.292   4.575  0.5569 -0.6626  0.2372
17147TIP3    H272857   0.244   3.365   4.488 -0.1222  0.0795  0.0690
17148TIP3   OH272858   4.714   5.527   1.451 -0.5487  0.0666  0.5123
17148TIP3    H172859   4.766   5.463   1.499 -0.2521 -0.8027 -0.9172
17148TIP3    H272860   4.694   5.485   1.367 -1.9193  1.1337  0.2597
17149TIP3   OH272861   1.426   6.481   4.994  0.1623  0.1145 -0.0364
17149TIP3    H172862   1.408   6.418   5.064  3.1859 -0.0382  0.7504
17149TIP3    H272863   1.390   6.563   5.026  0.0596 -0.3097  0.9793
17150TIP3   OH272864   4.133   0.860   3.651 -0.6245  0.2700 -0.0968
17150TIP3    H172865   4.153   0.779   3.605 -0.3467  0.5423 -0.4548
17150TIP3    H272866   4.081   0.911   3.589 -1.6731 -0.0448  0.4904
17151TIP3   OH272867   2.989   2.943   1.338  0.0402  0.0593  0.7154
17151TIP3    H172868   2.920   3.010   1.344 -1.4420 -1.5257  3.2594
17151TIP3    H272869   2.953   2.867   1.383  2.3121 -1.9452 -0.5873
17152TIP3   OH272870   0.909   1.843   0.370  0.0880  0.6870 -0.6973
17152TIP3    H172871   0.859   1.918   0.402  0.0815  0.9431 -1.3104
17152TIP3    H272872   0.858   1.767   0.399  1.1561  0.8030  1.7986
17153TIP3   OH272873   4.740   5.547   2.942  0.1680 -0.2480 -0.0795
17153TIP3    H172874   4.819   5.556   2.995 -0.5005 -0.7384  1.0462
17153TIP3    H272875   4.690   5.627   2.961  0.0412 -0.3032 -0.1821
17154TIP3   OH272876   1.234   6.093  13.712  0.5104  0.1247 -0.2280
17154TIP3    H172877   1.306   6.092  13.776  0.5836  1.3869 -0.2693
17154TIP3    H272878   1.231   6.183  13.680  0.7054 -0.5456 -2.2960
17155TIP3   OH272879   2.755   3.039   0.928 -0.7133 -0.5944 -0.2488
17155TIP3    H172880   2.733   2.947   0.914  0.0782 -0.8148 -0.1240
17155TIP3    H272881   2.712   3.063   1.010 -0.0853 -1.1524  0.2519
17156TIP3   OH272882   0.768   5.918  10.910  0.0707  0.1261  1.0971
17156TIP3    H172883   0.800   5.970  10.984  2.9949  2.7565 -1.6470
17156TIP3    H272884   0.794   5.828  10.930  0.1858  0.6460  3.5066
17157TIP3   OH272885   6.342   0.796   0.833  0.3451  0.2624  0.0060
17157TIP3    H172886   6.262   0.754   0.865 -1.0389  3.3900  1.0379
17157TIP3    H272887   6.412   0.734   0.854 -1.6124 -1.8831  0.5362
17158TIP3   OH272888   6.642   2.239  11.129 -0.9186 -0.4661 -0.2412
17158TIP3    H172889   6.581   2.209  11.061 -1.7598 -2.1141  1.1648
17158TIP3    H272890   6.594   2.226  11.211  1.6373 -2.8062  1.0200
17159TIP3   OH272891   3.076   5.959  13.711  0.2452 -1.4204  0.1609
17159TIP3    H172892   3.171   5.973  13.702  0.0176 -0.4453 -1.0938
17159TIP3    H272893   3.062   5.947  13.805  1.2395  1.6777  0.8226
17160TIP3   OH272894   5.811   5.912   1.166  0.0610  0.1429 -0.9406
17160TIP3    H172895   5.791   6.003   1.144 -0.3937  0.5089  0.8651
17160TIP3    H272896   5.835   5.914   1.258 -2.5482 -1.9217 -0.1050
17161TIP3   OH272897   5.817   2.159  10.424  0.4218 -0.1945 -0.4769
17161TIP3    H172898   5.882   2.214  10.381  0.2413  0.8410  0.5093
17161TIP3    H272899   5.759   2.221  10.469 -1.2972 -1.0790 -1.3779
17162TIP3   OH272900   0.783   4.625   5.904 -0.2062 -0.2045  0.0841
17162TIP3    H172901   0.833   4.704   5.882  1.2570 -1.0481  0.2513
17162TIP3    H272902   0.730   4.651   5.980 -0.9877  1.0645 -0.8524
17163TIP3   OH272903   4.905   4.808  12.920 -0.3870  0.1429 -0.1993
17163TIP3    H172904   4.886   4.808  12.826  0.7578  1.6081 -0.4776
17163TIP3    H272905   4.886   4.898  12.948 -1.2873 -0.4250  1.1274
17164TIP3   OH272906   4.783   4.219   5.484  0.2843 -0.2797 -0.2871
17164TIP3    H172907   4.766   4.234   5.577  2.7001 -1.7701  0.4908
17164TIP3    H272908   4.763   4.127   5.470 -2.0786  0.3908 -1.8331
17165TIP3   OH272909   5.804   2.872   5.078 -0.5499 -0.2011  0.0427
17165TIP3    H172910   5.755   2.852   4.998 -0.7670  0.2509  0.0584
17165TIP3    H272911   5.895   2.855   5.055 -0.5057  0.8235 -0.6037
17166TIP3   OH272912   5.530   1.565   0.164 -0.0490  0.7418 -0.4253
17166TIP3    H172913   5.467   1.558   0.093 -0.0089 -0.6767 -0.3505
17166TIP3    H272914   5.553   1.474   0.185  1.3143  1.1961  0.1714
17167TIP3   OH272915   1.841   1.317  15.070 -0.0930  0.1731 -0.2147
17167TIP3    H172916   1.854   1.238  15.122 -1.2889  1.6943  2.6343
17167TIP3    H272917   1.747   1.319  15.052 -0.1429  1.1310  0.0924
17168TIP3   OH272918   0.458   5.906   5.089 -0.4138 -0.2122 -0.4018
17168TIP3    H172919   0.391   5.863   5.037  1.1901 -2.6072 -0.6519
17168TIP3    H272920   0.472   5.990   5.046 -1.1971 -0.8956 -2.0584
17169TIP3   OH272921   6.679   1.565   5.766 -0.5204 -0.5408 -0.3876
17169TIP3    H172922   6.723   1.522   5.840 -2.1414 -0.4776  0.6630
17169TIP3    H272923   6.650   1.649   5.801  0.4908  0.4064 -1.7260
17170TIP3   OH272924   1.941   2.940  11.421  0.0632  0.3171 -0.2957
17170TIP3    H172925   1.890   2.886  11.482  0.8199  0.2134  0.2748
17170TIP3    H272926   1.997   2.877  11.376  1.4754  0.6665  0.8931
17171TIP3   OH272927   3.660   1.285   1.247  0.4035 -0.1320 -0.0006
17171TIP3    H172928   3.575   1.315   1.216  0.1777  1.1014  1.6305
17171TIP3    H272929   3.668   1.196   1.215 -1.0781  0.0529 -0.9761
17172TIP3   OH272930   0.561   6.696  11.055 -0.4789  0.3772  0.3567
17172TIP3    H172931   0.535   6.615  11.012  0.0683  0.2565  0.2503
17172TIP3    H272932   0.480   6.729  11.094 -0.7582 -0.0798  0.1736
17173TIP3   OH272933   0.025   0.457   0.611 -0.4779 -0.1668 -0.6669
17173TIP3    H172934   0.068   0.515   0.674 -1.5432  0.3824 -0.4274
17173TIP3    H272935   0.053   0.369   0.637 -2.1541 -0.1094  1.6233
17174TIP3   OH272936   6.322   5.953   4.973  0.1745 -0.2073 -0.1815
17174TIP3    H172937   6.351   5.908   5.053  0.3015 -0.8476 -0.5852
17174TIP3    H272938   6.280   6.032   5.005  1.0450  0.0031  0.4825
17175TIP3   OH272939   1.659   1.959   4.607 -0.0357 -0.5055  0.1506
17175TIP3    H172940   1.659   2.045   4.564  1.0939 -1.2559 -1.4541
17175TIP3    H272941   1.579   1.959   4.660  0.0879  1.6327  0.4379
17176TIP3   OH272942   2.391   4.644   5.975  0.0870 -0.0346  0.3544
17176TIP3    H172943   2.433   4.639   5.889 -0.1124  0.5208  0.2204
17176TIP3    H272944   2.337   4.723   5.970  0.4614  0.2781  1.1575
17177TIP3   OH272945   2.175   6.370   3.385 -0.2656 -0.0771  0.0224
17177TIP3    H172946   2.240   6.389   3.318  1.5398  1.0971  1.9803
17177TIP3    H272947   2.225   6.338   3.460 -1.8714  0.9612  1.6487
17178TIP3   OH272948   3.964   4.176  16.864 -0.5029 -0.2952 -0.5205
17178TIP3    H172949   3.930   4.246  16.918 -0.4850 -0.5377 -0.1902
17178TIP3    H272950   4.041   4.144  16.911  0.5676  0.6626 -1.5636
17179TIP3   OH272951   5.732   6.197  15.275 -0.1171  0.0345  0.7917
17179TIP3    H172952   5.715   6.253  15.199 -0.9059  2.3231  2.5454
17179TIP3    H272953   5.825   6.212  15.294 -0.1854  0.3150  0.9153
17180TIP3   OH272954   1.229   5.417  14.177 -0.1365  0.2332 -0.1532
17180TIP3    H172955   1.312   5.431  14.131  0.7533 -0.5376  1.1340
17180TIP3    H272956   1.215   5.322  14.173 -0.8984  0.3423 -0.2573
17181TIP3   OH272957   3.487   3.937   3.030 -0.3287 -0.6772 -0.6293
17181TIP3    H172958   3.471   4.026   2.996 -2.8505 -0.4467  0.8444
17181TIP3    H272959   3.411   3.887   3.000  0.1070 -1.8339  0.1424
17182TIP3   OH272960   3.061   6.229  14.153 -0.2268 -0.1648  0.5454
17182TIP3    H172961   3.142   6.270  14.123 -0.6964  1.2854  1.1942
17182TIP3    H272962   3.008   6.301  14.186 -1.3136 -1.2387  1.2283
17183TIP3   OH272963   0.037   1.569   4.353  0.4244 -0.3524  0.8145
17183TIP3    H172964   0.007   1.539   4.439  0.1672 -2.1880  0.1322
17183TIP3    H272965   0.105   1.633   4.372 -0.4432  0.1594  2.3788
17184TIP3   OH272966   2.848   6.093  14.252 -0.3563  0.3356 -0.2869
17184TIP3    H172967   2.928   6.138  14.227 -0.6301  0.9893 -0.0133
17184TIP3    H272968   2.877   6.009  14.287  0.1620  0.3102 -0.7638
17185TIP3   OH272969   6.099   3.243  13.389 -0.1826 -0.4681 -0.1040
17185TIP3    H172970   6.127   3.215  13.302 -0.9532 -0.6060 -0.3112
17185TIP3    H272971   6.106   3.338  13.387  0.7458 -0.5242  0.0180
17186TIP3   OH272972   3.355   5.460  14.802 -0.0692  0.3882  0.2649
17186TIP3    H172973   3.301   5.539  14.813 -0.9875 -0.1284 -0.3878
17186TIP3    H272974   3.370   5.429  14.891 -0.3982  0.8439  0.4859
17187TIP3   OH272975   0.830   4.058   6.103  0.1508 -0.0028 -0.1406
17187TIP3    H172976   0.908   4.056   6.159  0.4900 -0.7886 -0.6237
17187TIP3    H272977   0.859   4.100   6.023  0.2474 -0.8167 -0.5448
17188TIP3   OH272978   5.870   2.982  13.191 -0.8137  0.2483  0.4380
17188TIP3    H172979   5.877   2.973  13.096  3.0850 -0.3527  0.6338
17188TIP3    H272980   5.780   2.955  13.210 -1.0279 -2.0184 -2.8344
17189TIP3   OH272981   3.506   6.309   4.651  1.1228  0.6008  0.1304
17189TIP3    H172982   3.444   6.376   4.622  0.9829 -0.1684 -1.4490
17189TIP3    H272983   3.548   6.347   4.728 -0.4166  1.6437  0.4936
17190TIP3   OH272984   4.815   4.122   4.958 -0.8211  0.2794  0.2693
17190TIP3    H172985   4.853   4.137   5.045 -0.3405 -1.0344  0.3232
17190TIP3    H272986   4.835   4.200   4.908 -2.8455  1.9618  1.8881
17191TIP3   OH272987   6.423   1.912  13.442 -0.0671 -0.7013  0.4343
17191TIP3    H172988   6.375   1.989  13.410  1.9236  0.9137  1.1444
17191TIP3    H272989   6.354   1.850  13.466 -1.7135 -0.0883 -2.3044
17192TIP3   OH272990   0.614   3.481  11.572 -0.1203 -0.0365 -0.0699
17192TIP3    H172991   0.530   3.491  11.526 -1.0166 -1.1771  1.2052
17192TIP3    H272992   0.624   3.562  11.621  0.2388  0.6865 -1.3210
17193TIP3   OH272993   1.344   5.431  16.159 -0.7261 -0.2182  0.3646
17193TIP3    H172994   1.333   5.525  16.166 -0.0702  0.1387 -2.4425
17193TIP3    H272995   1.432   5.419  16.122 -1.3569 -1.8304 -0.7325
17194TIP3   OH272996   3.193   5.423   3.227  0.2519  0.1507  0.5094
17194TIP3    H172997   3.276   5.376   3.226  0.2159  0.0931 -0.2326
17194TIP3    H272998   3.134   5.368   3.278  0.1517 -0.7116 -0.5104
17195TIP3   OH272999   2.848   2.630  15.312 -0.4368 -0.3622  0.3712
17195TIP3    H173000   2.753   2.621  15.310 -0.4885 -0.9035  2.4596
17195TIP3    H273001   2.875   2.579  15.389  1.4081  0.8449  0.5923
17196TIP3   OH273002   1.144   1.529   4.212 -0.1573  0.2967  0.2288
17196TIP3    H173003   1.147   1.606   4.270 -1.5106 -0.7668  1.8267
17196TIP3    H273004   1.061   1.538   4.164 -1.0440 -0.8100  1.4697
17197TIP3   OH273005   1.621   5.364  14.403  0.1881 -0.3230  0.3078
17197TIP3    H173006   1.553   5.425  14.431 -0.4698 -0.5781 -0.7040
17197TIP3    H273007   1.625   5.298  14.472 -0.6268 -0.3344  0.3466
17198TIP3   OH273008   5.506   2.930  16.155 -0.5429  0.0743  0.0227
17198TIP3    H173009   5.432   2.903  16.209 -1.7318 -0.1370 -1.6316
17198TIP3    H273010   5.467   2.984  16.086  1.2416  2.5399  0.8125
17199TIP3   OH273011   0.830   3.506   0.393 -0.0810 -0.4141  0.4111
17199TIP3    H173012   0.783   3.565   0.336 -2.9159 -0.6228  2.3407
17199TIP3    H273013   0.823   3.545   0.480  2.3502 -1.0993  1.0053
17200TIP3   OH273014   3.557   4.415   1.918  0.4275 -0.6929  1.1846
17200TIP3    H173015   3.499   4.386   1.848  0.5757  1.6926 -0.0383
17200TIP3    H273016   3.624   4.347   1.924 -0.6653 -1.8894  0.3723
17201TIP3   OH273017   5.170   5.157   6.014  0.0402 -0.6909 -0.2588
17201TIP3    H173018   5.253   5.195   5.988  0.3158 -1.1396 -0.0504
17201TIP3    H273019   5.155   5.191   6.103  0.4784 -1.3697  0.0796
17202TIP3   OH273020   4.645   2.317   0.919 -0.7968  0.2568 -0.3235
17202TIP3    H173021   4.715   2.287   0.977  1.0236  2.0646 -1.4543
17202TIP3    H273022   4.661   2.273   0.836 -1.1503  0.4941 -0.5233
17203TIP3   OH273023   4.614   4.611  10.591  0.0345 -0.4804 -0.8918
17203TIP3    H173024   4.558   4.534  10.576  1.8537 -1.4918 -3.1092
17203TIP3    H273025   4.695   4.575  10.626  0.2876  0.6742 -0.2587
17204TIP3   OH273026   0.190   1.818   4.373  0.7568  0.2471  0.4416
17204TIP3    H173027   0.098   1.831   4.398  0.7309 -0.0812  0.5213
17204TIP3    H273028   0.215   1.899   4.330 -1.2706 -1.4742 -4.7744
17205TIP3   OH273029   5.973   4.998  14.220 -0.2273 -0.2156  0.2474
17205TIP3    H173030   5.922   5.069  14.258  0.2226  0.2710 -0.0468
17205TIP3    H273031   6.008   4.950  14.295 -0.8243 -0.3417  0.4456
17206TIP3   OH273032   5.987   6.460  14.753 -0.0768 -0.0419 -0.9094
17206TIP3    H173033   6.056   6.507  14.801 -1.3849  0.2679  0.7282
17206TIP3    H273034   5.952   6.526  14.692 -1.2716  0.9199  0.7296
17207TIP3   OH273035   3.523   0.998   4.091 -0.6657 -0.4711 -0.0659
17207TIP3    H173036   3.435   1.027   4.115 -0.9751 -0.2978 -1.2966
17207TIP3    H273037   3.526   0.906   4.114  0.0548  0.2663  3.1849
17208TIP3   OH273038   6.387   4.867  14.084  0.0001  0.5341 -0.4471
17208TIP3    H173039   6.433   4.805  14.027 -0.8098 -0.2290 -0.2912
17208TIP3    H273040   6.294   4.853  14.064 -0.4866 -1.1432  2.3577
17209TIP3   OH273041   6.722   5.746  12.559  0.2942  0.1165 -0.8023
17209TIP3    H173042   6.629   5.770  12.565 -0.0586 -0.8350 -1.9723
17209TIP3    H273043   6.740   5.700  12.641 -0.3783 -0.0454 -0.7361
17210TIP3   OH273044   1.064   4.345  13.244  0.2061  0.0609  0.3183
17210TIP3    H173045   0.992   4.304  13.292  0.7095  0.9207  1.8761
17210TIP3    H273046   1.126   4.370  13.312  1.1656  0.9285 -0.8491
17211TIP3   OH273047   5.028   1.706   4.525 -0.2726  0.4740  0.4300
17211TIP3    H173048   5.070   1.743   4.603  0.1127 -2.0253  1.5160
17211TIP3    H273049   4.951   1.761   4.511  0.5467  1.9860  1.5740
17212TIP3   OH273050   3.958   5.299   5.333 -0.2489 -0.0205  0.2700
17212TIP3    H173051   3.877   5.253   5.313  0.1502 -0.5995 -0.0275
17212TIP3    H273052   3.975   5.355   5.257  0.0207 -0.4562  0.0069
17213TIP3   OH273053   5.297   4.297   5.298 -0.2179 -0.3803  0.7951
17213TIP3    H173054   5.352   4.223   5.326 -2.4251 -2.1699  0.6397
17213TIP3    H273055   5.305   4.298   5.203  0.4063  0.1084  0.8429
17214TIP3   OH273056   1.861   1.913  11.395 -1.2918 -0.1174 -0.3865
17214TIP3    H173057   1.905   1.834  11.364 -1.3038 -0.3804  0.2506
17214TIP3    H273058   1.844   1.896  11.488  0.2416  1.3014  0.1993
17215TIP3   OH273059   5.304   1.266   2.364 -0.0461  0.8966 -0.2374
17215TIP3    H173060   5.293   1.361   2.372  1.7928  1.0398  1.4904
17215TIP3    H273061   5.384   1.256   2.313  1.2470  0.4080  1.7531
17216TIP3   OH273062   6.193   2.646   4.348 -0.4579 -0.1452  0.4585
17216TIP3    H173063   6.219   2.703   4.275  0.2596 -1.1001 -0.0545
17216TIP3    H273064   6.252   2.571   4.342 -2.2884 -1.6562  0.2303
17217TIP3   OH273065   2.460   4.627   5.679  0.7378  0.2200  0.0426
17217TIP3    H173066   2.468   4.546   5.630  1.1812  0.6500 -0.5999
17217TIP3    H273067   2.537   4.678   5.654  0.6887  0.6613  0.7756
17218TIP3   OH273068   2.471   4.503   3.819  0.1320 -0.3731  0.2687
17218TIP3    H173069   2.459   4.598   3.817  0.9302 -0.2712 -0.0694
17218TIP3    H273070   2.383   4.468   3.812 -0.1513  0.3449  0.1313
17219TIP3   OH273071   3.276   2.130  14.896  0.0991  0.5546 -0.2014
17219TIP3    H173072   3.334   2.202  14.870 -0.7967  0.2041 -3.5539
17219TIP3    H273073   3.193   2.150  14.854 -0.3323 -2.1496 -0.7872
17220TIP3   OH273074   6.670   0.614  10.497  0.2751 -0.2806  0.3217
17220TIP3    H173075   6.663   0.580  10.408  0.7219 -1.9630  0.8964
17220TIP3    H273076   6.688   0.708  10.486 -1.4502 -0.0856 -1.3187
17221TIP3   OH273077   2.672   2.590  12.526 -0.3878  0.3109  0.7891
17221TIP3    H173078   2.643   2.535  12.454 -2.4724  0.5036  1.4132
17221TIP3    H273079   2.717   2.663  12.484 -0.8300 -0.0061 -0.2614
17222TIP3   OH273080   4.414   1.237   5.172  0.3193  0.4473 -0.0182
17222TIP3    H173081   4.382   1.307   5.230 -1.0115  1.8489 -2.2861
17222TIP3    H273082   4.342   1.222   5.111  1.3202 -1.5988 -0.7928
17223TIP3   OH273083   6.359   4.989  13.362  0.2125  0.2965  0.1940
17223TIP3    H173084   6.314   5.015  13.281 -2.0726 -0.9053  0.9742
17223TIP3    H273085   6.348   5.064  13.420 -0.6128  0.1263  0.2783
17224TIP3   OH273086   6.253   6.166   5.528  0.2173 -0.2216  0.1042
17224TIP3    H173087   6.226   6.204   5.611  2.5880  1.1664  0.3283
17224TIP3    H273088   6.196   6.207   5.463 -1.3757 -1.0016  0.9477
17225TIP3   OH273089   4.834   1.355  10.987 -0.0506 -0.2080  0.9505
17225TIP3    H173090   4.838   1.260  10.978  1.9269 -0.1326  0.5827
17225TIP3    H273091   4.745   1.378  10.961 -0.2730 -1.8657  0.1452
17226TIP3   OH273092   4.593   0.130  16.993 -0.4845  0.0377  0.3184
17226TIP3    H173093   4.677   0.120  17.039  0.2940  0.2703 -1.0185
17226TIP3    H273094   4.617   0.158  16.905 -1.9793  0.0763 -0.0961
17227TIP3   OH273095   3.598   6.424  14.068 -0.2303  0.2532 -0.1711
17227TIP3    H173096   3.555   6.487  14.010  0.2915  0.4265 -0.3773
17227TIP3    H273097   3.614   6.473  14.149  0.1144  0.3694 -0.3071
17228TIP3   OH273098   0.086   3.977   5.388 -0.4034 -0.3622 -0.2365
17228TIP3    H173099   0.166   3.927   5.407 -0.4843 -0.1376  0.7509
17228TIP3    H273100   0.116   4.068   5.384 -0.7011 -0.1924  0.8781
17229TIP3   OH273101   3.894   5.175  11.203  0.5589 -0.7517 -0.1770
17229TIP3    H173102   3.811   5.193  11.247 -0.2196  2.0306 -2.5334
17229TIP3    H273103   3.885   5.085  11.171 -0.9854 -0.9471  0.6832
17230TIP3   OH273104   2.261   6.495   0.004  0.2350  0.0220 -0.3659
17230TIP3    H173105   2.184   6.516   0.055 -1.0258 -1.9659 -1.2944
17230TIP3    H273106   2.308   6.430   0.057 -0.4173 -1.1049 -1.1283
17231TIP3   OH273107   2.190   4.643   3.884  0.0700  0.0739  0.5328
17231TIP3    H173108   2.128   4.579   3.850  0.4574  0.1326 -0.3027
17231TIP3    H273109   2.150   4.675   3.965 -0.8194 -0.1526  0.1922
17232TIP3   OH273110   0.710   2.066  15.259 -0.0646 -0.1303  0.5711
17232TIP3    H173111   0.695   2.040  15.168 -0.9521  1.9993  0.0572
17232TIP3    H273112   0.799   2.036  15.278 -0.3578 -1.8460 -0.5021
17233TIP3   OH273113   2.390   4.136   3.441  0.2636  1.0299 -0.1748
17233TIP3    H173114   2.399   4.226   3.474 -1.0846  1.1353 -0.0283
17233TIP3    H273115   2.430   4.082   3.509 -0.3548  1.4247  0.5261
17234TIP3   OH273116   2.480   4.258  14.395  0.5308 -0.0123 -0.0437
17234TIP3    H173117   2.542   4.223  14.458  0.4355  1.0241  0.6521
17234TIP3    H273118   2.394   4.228  14.426  0.4807  0.5235  0.3635
17235TIP3   OH273119   6.401   3.588   2.291 -0.6160  0.2661 -0.1805
17235TIP3    H173120   6.308   3.567   2.286 -1.1444  2.5914 -1.4987
17235TIP3    H273121   6.443   3.504   2.309 -2.7063 -1.3275 -2.1376
17236TIP3   OH273122   0.793   3.687   2.026  0.1224  0.5417  0.0945
17236TIP3    H173123   0.856   3.702   1.957  0.4019  0.3947  0.3145
17236TIP3    H273124   0.836   3.717   2.106  0.4787 -0.8551  0.4641
17237TIP3   OH273125   5.158   1.739  12.005 -0.3998  0.2313  0.7145
17237TIP3    H173126   5.089   1.684  11.969  0.1263  1.6077 -2.8373
17237TIP3    H273127   5.228   1.677  12.029 -1.5534 -0.9118  1.2196
17238TIP3   OH273128   4.897   4.884   3.694 -1.0076 -0.1338 -0.3225
17238TIP3    H173129   4.865   4.961   3.740 -1.7518 -0.5485 -0.1291
17238TIP3    H273130   4.843   4.878   3.615  0.8919  1.1295 -1.8177
17239TIP3   OH273131   4.130   6.457   0.951 -0.4700 -0.3724  0.3024
17239TIP3    H173132   4.142   6.377   1.003 -1.1659 -0.3793  0.4728
17239TIP3    H273133   4.077   6.513   1.007 -0.5663 -0.0678 -0.0925
17240TIP3   OH273134   1.668   1.192  14.562 -0.3418 -0.1755 -0.1465
17240TIP3    H173135   1.689   1.253  14.632 -2.6629  1.1723 -0.5243
17240TIP3    H273136   1.715   1.111  14.584  0.9748  1.0128  1.5761
17241TIP3   OH273137   2.732   4.726  14.924 -0.4757  0.1455  0.4342
17241TIP3    H173138   2.653   4.679  14.951 -1.7674  2.2077  0.4544
17241TIP3    H273139   2.790   4.720  14.999 -0.3348 -1.8358  0.2380
17242TIP3   OH273140   3.841   2.768  11.942  0.3590 -0.0590  0.1330
17242TIP3    H173141   3.781   2.750  11.870  1.2507 -0.4858 -0.5308
17242TIP3    H273142   3.854   2.683  11.984  1.5205 -0.2469 -0.5620
17243TIP3   OH273143   2.492   3.415   4.375  0.0524  0.2725  0.0313
17243TIP3    H173144   2.526   3.346   4.319  0.2483  1.6463 -1.6159
17243TIP3    H273145   2.567   3.444   4.426  0.3814  0.4723 -0.5636
17244TIP3   OH273146   5.643   0.779  13.107  0.1897  0.3807  0.0704
17244TIP3    H173147   5.694   0.853  13.140  0.2312  0.9897 -1.2923
17244TIP3    H273148   5.565   0.778  13.163  0.3657  1.2178  0.3487
17245TIP3   OH273149   5.112   4.497   1.156 -0.2656  0.2816 -0.0225
17245TIP3    H173150   5.164   4.539   1.087  0.1717  0.2489  0.2784
17245TIP3    H273151   5.177   4.468   1.220 -0.6112 -0.3579  0.0410
17246TIP3   OH273152   1.623   4.474   4.058 -0.1850 -0.4388  0.7911
17246TIP3    H173153   1.697   4.534   4.054  0.1688 -0.7590  2.0416
17246TIP3    H273154   1.648   4.410   4.124 -1.1426 -1.1597  0.4739
17247TIP3   OH273155   3.022   1.418  15.760 -0.4655 -0.5395  0.1827
17247TIP3    H173156   2.982   1.395  15.676  0.1282 -0.9010 -0.0009
17247TIP3    H273157   3.087   1.484  15.738 -2.2057  1.4866  0.7055
17248TIP3   OH273158   1.360   3.045  14.473  0.1424  0.4176  1.1036
17248TIP3    H173159   1.418   2.969  14.473 -2.7517 -2.0269 -1.1447
17248TIP3    H273160   1.309   3.036  14.553 -0.1454 -0.0062  0.8777
17249TIP3   OH273161   2.615   0.661   5.827  0.0175  0.4733 -0.1852
17249TIP3    H173162   2.593   0.730   5.889 -2.0761 -0.4542  0.1896
17249TIP3    H273163   2.594   0.699   5.741 -2.1210  0.0394  0.0827
17250TIP3   OH273164   6.280   6.525   0.944 -0.4292 -0.3016 -0.3980
17250TIP3    H173165   6.257   6.617   0.930  0.9287  0.1066 -0.1286
17250TIP3    H273166   6.262   6.482   0.861  0.1572  0.4947 -0.9503
17251TIP3   OH273167   5.921   6.577   5.287 -0.8192 -0.2949  0.2625
17251TIP3    H173168   5.988   6.602   5.351  0.7212  1.3536 -1.8204
17251TIP3    H273169   5.839   6.579   5.336  0.2894  0.8044  2.2100
17252TIP3   OH273170   0.347   5.172  12.582 -0.1238 -0.2473 -0.0110
17252TIP3    H173171   0.354   5.137  12.493 -1.2787 -0.0135 -0.2062
17252TIP3    H273172   0.266   5.222  12.582 -1.0295 -1.6277  1.6493
17253TIP3   OH273173   6.255   5.856   5.417  0.3060 -0.2755 -0.0874
17253TIP3    H173174   6.275   5.900   5.499  1.6809  0.0625 -0.5753
17253TIP3    H273175   6.161   5.872   5.403  0.1384 -0.0455  1.2181
17254TIP3   OH273176   5.814   5.065  12.071 -0.4606 -0.2667 -0.1020
17254TIP3    H173177   5.902   5.049  12.038 -0.7230 -0.7780 -0.5928
17254TIP3    H273178   5.793   4.987  12.123 -0.9688 -0.5893 -0.7687
17255TIP3   OH273179   5.505   0.476  13.317 -0.0716  0.0849 -0.1040
17255TIP3    H173180   5.533   0.509  13.403  1.3972 -0.5825 -0.2916
17255TIP3    H273181   5.581   0.490  13.261  0.3403 -2.7497 -0.4148
17256TIP3   OH273182   5.598   3.235   0.653  0.3272 -0.1679 -0.9609
17256TIP3    H173183   5.655   3.301   0.690 -1.2438  0.1578  1.0445
17256TIP3    H273184   5.509   3.262   0.678 -0.3164 -3.8802  1.6350
17257TIP3   OH273185   5.798   6.080   2.295  0.1227  0.3434  0.2730
17257TIP3    H173186   5.825   6.124   2.215 -2.6346 -0.9643 -1.5372
17257TIP3    H273187   5.735   6.139   2.336 -0.7406 -0.2537 -0.1631
17258TIP3   OH273188   3.026   6.371   0.906  0.0485  0.1052  0.2868
17258TIP3    H173189   3.029   6.452   0.854  2.1449 -0.6377 -0.8855
17258TIP3    H273190   3.031   6.301   0.842 -2.9607 -1.0889  1.2124
17259TIP3   OH273191   1.537   0.376   0.172  0.0075 -0.6521 -0.4276
17259TIP3    H173192   1.558   0.425   0.093  2.4278 -1.4675 -0.3588
17259TIP3    H273193   1.456   0.416   0.204 -0.5530  0.2723 -2.8056
17260TIP3   OH273194   5.891   6.464   2.369 -0.1667  0.8120  0.0854
17260TIP3    H173195   5.889   6.441   2.462 -0.5587 -0.3120 -0.1841
17260TIP3    H273196   5.855   6.552   2.365 -0.6839  0.6470  0.9406
17261TIP3   OH273197   1.330   3.371  11.000  0.4675  0.1974 -0.1720
17261TIP3    H173198   1.281   3.416  11.069 -2.0402 -0.2825 -1.5277
17261TIP3    H273199   1.284   3.392  10.919  1.3020 -1.9238 -1.2960
17262TIP3   OH273200   2.288   5.207   0.278 -0.5880 -0.1026  0.1692
17262TIP3    H173201   2.376   5.174   0.291 -1.0337 -0.7398  1.7842
17262TIP3    H273202   2.248   5.145   0.217 -0.4944 -0.9185  0.9161
17263TIP3   OH273203   2.361   6.770   2.919 -0.6038 -0.2529  0.0310
17263TIP3    H173204   2.391   6.849   2.963  0.9134 -1.8782  2.1543
17263TIP3    H273205   2.441   6.718   2.907 -1.6780 -1.8920 -0.3227
17264TIP3   OH273206   2.842   1.154   1.954  0.4829 -0.1839 -0.7535
17264TIP3    H173207   2.922   1.160   2.007  0.3587  1.3638 -0.6931
17264TIP3    H273208   2.840   1.063   1.925 -0.5063 -1.8082  3.5618
17265TIP3   OH273209   2.602   0.151   3.177 -0.5442 -0.3539  0.3289
17265TIP3    H173210   2.512   0.180   3.192 -0.2435  0.0905  1.3728
17265TIP3    H273211   2.603   0.059   3.204 -0.4522 -0.0713  1.3241
17266TIP3   OH273212   2.907   3.720   3.855  0.5524 -0.7768 -0.0365
17266TIP3    H173213   2.912   3.681   3.942 -1.1355  0.1207  0.5115
17266TIP3    H273214   2.892   3.647   3.796 -0.8919 -1.1576  0.7667
17267TIP3   OH273215   0.742   2.586   4.630 -0.0606 -0.1829 -0.0940
17267TIP3    H173216   0.694   2.504   4.638 -0.7228  0.2085 -0.0132
17267TIP3    H273217   0.777   2.584   4.540 -1.4212  0.1634 -0.6503
17268TIP3   OH273218   0.679   5.947   2.128 -0.1422 -0.2327 -0.2370
17268TIP3    H173219   0.656   5.897   2.205 -2.0538 -0.4566 -0.8993
17268TIP3    H273220   0.662   6.038   2.152 -0.3439 -0.2640 -0.2613
17269TIP3   OH273221   4.188   1.881  13.997  0.3045  0.1700  0.0794
17269TIP3    H173222   4.167   1.792  13.968 -1.3304  0.7184 -0.5401
17269TIP3    H273223   4.118   1.935  13.960  0.0749  1.4236  2.1859
17270TIP3   OH273224   0.972   3.901  16.576  0.2870 -0.6023 -0.4347
17270TIP3    H173225   0.967   3.922  16.482  0.4432  0.0876 -0.2949
17270TIP3    H273226   1.059   3.932  16.602  0.9041 -2.2306 -0.3964
17271TIP3   OH273227   5.042   0.189  14.241  0.3119  0.5522 -0.7254
17271TIP3    H173228   5.051   0.261  14.304 -1.4647 -0.5878  0.9204
17271TIP3    H273229   5.128   0.147  14.241  0.3372  0.5254  1.0486
17272TIP3   OH273230   3.865   0.249   2.571 -0.1127  0.0721 -0.1830
17272TIP3    H173231   3.882   0.338   2.602  2.8697 -0.4525 -0.0309
17272TIP3    H273232   3.846   0.259   2.478  0.1776  0.8851 -0.1657
17273TIP3   OH273233   3.133   6.780   3.473  0.7750 -0.3342  0.1541
17273TIP3    H173234   3.202   6.846   3.486 -0.2852  1.0504 -0.9070
17273TIP3    H273235   3.093   6.803   3.389 -2.0013 -0.1031  1.4164
17274TIP3   OH273236   2.429   2.308   4.632 -0.3116  0.0637 -0.2942
17274TIP3    H173237   2.337   2.305   4.660 -0.0845 -0.3376  0.4242
17274TIP3    H273238   2.454   2.399   4.646 -0.8792  0.4188 -1.4437
17275TIP3   OH273239   6.468   3.010   0.027 -0.5091  0.4005 -0.1950
17275TIP3    H173240   6.494   3.077   0.091  1.3052 -0.5957  0.1829
17275TIP3    H273241   6.524   3.027  -0.049  0.6299 -1.2022  0.2458
17276TIP3   OH273242   4.670   5.884   6.306  0.0487  0.1272  0.0332
17276TIP3    H173243   4.653   5.793   6.330  0.6804 -0.1288 -0.4502
17276TIP3    H273244   4.712   5.879   6.220  1.3201  0.7903  0.5748
17277TIP3   OH273245   0.314   2.622  15.090  0.3946 -0.1929 -0.1444
17277TIP3    H173246   0.368   2.554  15.130  0.8533 -0.2355 -0.8187
17277TIP3    H273247   0.337   2.702  15.138 -0.0478 -0.4726  0.5605
17278TIP3   OH273248   5.300   3.956   0.464  0.3813 -0.7138 -0.1387
17278TIP3    H173249   5.235   3.899   0.421 -1.8562  0.2541  1.7287
17278TIP3    H273250   5.320   4.022   0.398 -1.5122 -0.3392 -0.4141
17279TIP3   OH273251   6.380   6.378   2.661 -0.4704  0.7958  0.1020
17279TIP3    H173252   6.455   6.435   2.645  0.3568 -0.3201 -0.1346
17279TIP3    H273253   6.303   6.435   2.654  0.2271  1.5501 -1.7929
17280TIP3   OH273254   5.168   6.116   4.244 -0.4616  0.8266  0.3946
17280TIP3    H173255   5.215   6.193   4.277 -1.1705  1.1020  0.7815
17280TIP3    H273256   5.105   6.095   4.313 -0.7452  0.3136 -0.0127
17281TIP3   OH273257   3.272   4.167   3.151 -0.5513  0.2641 -0.5664
17281TIP3    H173258   3.234   4.083   3.178 -0.0166  0.3673  0.5462
17281TIP3    H273259   3.203   4.231   3.169  0.1341  0.4770  1.6380
17282TIP3   OH273260   0.405   4.760  12.762 -0.2010 -0.0211 -0.0124
17282TIP3    H173261   0.402   4.712  12.845 -0.3377  0.4952  0.2870
17282TIP3    H273262   0.323   4.810  12.761 -1.2499 -1.6474 -1.4494
17283TIP3   OH273263   0.878   1.127  13.397 -0.3748  0.6594  0.4069
17283TIP3    H173264   0.955   1.183  13.388  2.1225 -2.6097 -0.3887
17283TIP3    H273265   0.867   1.117  13.492 -0.8589  2.3181  0.5717
17284TIP3   OH273266   5.620   6.054  13.350 -0.1273 -0.2679  0.1528
17284TIP3    H173267   5.632   6.053  13.446  0.7469 -0.9843  0.0599
17284TIP3    H273268   5.708   6.038  13.316 -0.8193 -2.7173 -0.7117
17285TIP3   OH273269   0.395   4.425   3.022  0.2794  0.8456 -0.5680
17285TIP3    H173270   0.337   4.422   2.947  1.3047  0.2886 -1.3650
17285TIP3    H273271   0.345   4.385   3.093 -0.7041  1.4014 -0.9353
17286TIP3   OH273272   1.763   6.146  14.125  0.2587 -0.0486  0.0889
17286TIP3    H173273   1.818   6.187  14.057 -0.9730  0.5871 -0.5594
17286TIP3    H273274   1.687   6.204  14.133  0.8369  0.4777  2.7932
17287TIP3   OH273275   3.596   3.870  14.999 -0.1150 -0.0149  0.4246
17287TIP3    H173276   3.590   3.882  14.905  1.0625 -0.2001  0.3052
17287TIP3    H273277   3.689   3.881  15.018 -0.3482  0.0923  1.5762
17288TIP3   OH273278   5.369   4.979   3.195 -0.0318 -0.4905  0.5135
17288TIP3    H173279   5.451   5.006   3.237 -0.5118  1.6306  0.1759
17288TIP3    H273280   5.388   4.980   3.101 -0.4336 -0.0498  0.4362
17289TIP3   OH273281   5.315   3.993   3.603  0.0036  0.0961  0.4695
17289TIP3    H173282   5.383   4.001   3.670 -0.4907  0.5322  0.9230
17289TIP3    H273283   5.350   4.040   3.528  0.6275 -0.5273  0.3580
17290TIP3   OH273284   0.472   5.597   1.084  0.2394  0.1681  0.3081
17290TIP3    H173285   0.441   5.591   0.994 -2.0329 -1.9705  1.1012
17290TIP3    H273286   0.544   5.534   1.089 -0.6290 -0.8583  0.2887
17291TIP3   OH273287   5.009   3.339  13.407 -0.0334 -0.0820 -0.7023
17291TIP3    H173288   5.009   3.423  13.452 -0.2849 -0.0550 -0.7525
17291TIP3    H273289   5.097   3.331  13.371 -0.5563  1.0485 -2.3515
17292TIP3   OH273290   5.002   5.942   6.214  0.4213 -0.6089  0.1492
17292TIP3    H173291   4.991   5.894   6.297  0.1196 -0.5805  0.1273
17292TIP3    H273292   5.048   6.022   6.239  1.0262 -0.9579  0.1699
17293TIP3   OH273293   0.625   6.064  13.803 -0.3611  0.6339  0.2998
17293TIP3    H173294   0.614   6.114  13.884  1.3451  1.2166  0.2197
17293TIP3    H273295   0.536   6.053  13.769 -1.2483 -0.6931  2.8441
17294TIP3   OH273296   5.441   0.828   2.915  0.2918  0.2985 -0.2004
17294TIP3    H173297   5.512   0.835   2.850 -0.8790 -0.3705 -1.5950
17294TIP3    H273298   5.480   0.777   2.986  1.1803 -0.1882 -0.9995
17295TIP3   OH273299   1.293   5.870  14.308 -0.0660  0.0704 -0.1267
17295TIP3    H173300   1.230   5.936  14.338 -1.0341 -1.0806  0.4434
17295TIP3    H273301   1.239   5.805  14.263  0.8297 -0.5260 -0.3459
17296TIP3   OH273302   6.731   1.734   3.687 -0.3084  0.0605  0.2463
17296TIP3    H173303   6.783   1.764   3.613 -0.9816  0.4592 -0.0760
17296TIP3    H273304   6.644   1.769   3.671  0.0014  1.9581  2.3131
17297TIP3   OH273305   0.961   4.477  11.911  0.0728 -0.0517  0.2976
17297TIP3    H173306   1.006   4.561  11.904  1.4837 -0.6243  1.6995
17297TIP3    H273307   0.979   4.433  11.828 -1.5089  1.3712 -0.8517
17298TIP3   OH273308   2.476   3.781  10.036  0.1094  0.0053  0.1048
17298TIP3    H173309   2.564   3.787  10.000 -0.6430  3.6106 -1.6396
17298TIP3    H273310   2.484   3.810  10.127  0.9863 -2.0600  0.7330
17299TIP3   OH273311   5.504   5.732   1.502 -0.1363 -0.0729 -1.0730
17299TIP3    H173312   5.436   5.664   1.500  0.4859 -0.6978 -3.2509
17299TIP3    H273313   5.571   5.701   1.441  1.3888  1.2855 -0.1684
17300TIP3   OH273314   3.984   3.760   4.916 -0.0129 -0.2278  0.3432
17300TIP3    H173315   3.915   3.698   4.942 -0.7456  0.0087 -0.9827
17300TIP3    H273316   4.058   3.704   4.892 -0.3605 -0.5537  0.0203
17301TIP3   OH273317   1.165   1.049   1.106 -0.2604  0.2966  0.1834
17301TIP3    H173318   1.116   0.967   1.101 -1.2621  0.9457 -1.2045
17301TIP3    H273319   1.142   1.096   1.026 -0.8363  2.5602  1.5756
17302TIP3   OH273320   3.956   5.389   6.101 -0.1534 -0.2907  0.3527
17302TIP3    H173321   3.979   5.300   6.073 -0.8200 -0.6720  0.9723
17302TIP3    H273322   3.878   5.378   6.155 -0.2333  0.6760  0.4610
17303TIP3   OH273323   3.876   6.031  13.144 -0.1088  0.3629 -0.0841
17303TIP3    H173324   3.827   6.098  13.095 -2.9634 -1.1598  0.4848
17303TIP3    H273325   3.848   6.043  13.235  0.9882 -0.2762  0.3556
17304TIP3   OH273326   3.988   2.379   3.728  0.3490 -0.2945  0.5987
17304TIP3    H173327   3.918   2.315   3.720 -0.8127  0.6685  2.3945
17304TIP3    H273328   4.067   2.327   3.741 -0.0390 -1.3922 -1.1854
17305TIP3   OH273329   6.176   4.393  10.122 -0.0195  0.0934  0.2621
17305TIP3    H173330   6.154   4.481  10.153 -1.9360 -0.5962  1.0089
17305TIP3    H273331   6.244   4.363  10.183 -0.1634  0.6440  0.7044
17306TIP3   OH273332   6.267   2.211  16.985 -0.6790 -0.0072  0.3903
17306TIP3    H173333   6.333   2.165  17.035 -0.2130  0.1988 -0.0266
17306TIP3    H273334   6.205   2.243  17.050  0.2684  0.8304  0.9071
17307TIP3   OH273335   0.002   2.117  15.587 -0.3807 -0.2502  0.4694
17307TIP3    H173336   0.059   2.048  15.554  0.2094  0.7806 -0.7079
17307TIP3    H273337   0.049   2.153  15.663 -0.5942 -0.9663  0.9581
17308TIP3   OH273338   2.461   3.299   2.891 -0.2105 -0.1449 -0.5429
17308TIP3    H173339   2.512   3.239   2.946 -1.0937 -0.1234  0.3237
17308TIP3    H273340   2.416   3.356   2.953 -3.7824 -2.1490 -1.0831
17309TIP3   OH273341   2.929   6.579  12.880 -0.0514  0.2957 -0.2305
17309TIP3    H173342   2.983   6.588  12.958 -1.4057  0.0347  0.7900
17309TIP3    H273343   2.990   6.557  12.810  1.0044 -1.4240  1.1457
17310TIP3   OH273344   3.307   2.950  15.578 -0.5258 -0.0701  0.2420
17310TIP3    H173345   3.323   3.018  15.512  1.2988  0.5375  1.2479
17310TIP3    H273346   3.308   2.998  15.661 -0.2999 -1.1741  0.8863
17311TIP3   OH273347   1.763   2.846   3.192 -0.2922 -0.3943 -0.1704
17311TIP3    H173348   1.753   2.753   3.169  1.7709 -0.8572  0.5560
17311TIP3    H273349   1.849   2.870   3.157  0.5808  0.3381  2.2398
17312TIP3   OH273350   1.167   0.283  15.610  0.0959  0.5075  0.7911
17312TIP3    H173351   1.232   0.220  15.579 -0.3228  0.7807 -0.7483
17312TIP3    H273352   1.090   0.230  15.632  1.1973  0.0252  3.9334
17313TIP3   OH273353   6.520   2.708  11.345  0.3196  0.0358 -0.4197
17313TIP3    H173354   6.489   2.737  11.431  1.1398 -0.3112 -0.0003
17313TIP3    H273355   6.609   2.676  11.361  0.9110  1.0362 -1.6122
17314TIP3   OH273356   3.302   5.114   0.558 -0.4656  0.0627 -0.4066
17314TIP3    H173357   3.287   5.169   0.636  1.7986  0.9192 -0.4997
17314TIP3    H273358   3.369   5.161   0.509 -1.5286 -0.6916 -2.6886
17315TIP3   OH273359   2.898   4.264  15.901  0.6198 -0.1384 -0.6291
17315TIP3    H173360   2.956   4.243  15.828  0.8759 -0.0363 -0.4566
17315TIP3    H273361   2.939   4.339  15.944  0.7845 -0.5575 -0.0346
17316TIP3   OH273362   5.366   0.323  14.390 -0.0685 -0.1122  0.4742
17316TIP3    H173363   5.382   0.274  14.309  4.0423 -1.0443  1.6145
17316TIP3    H273364   5.345   0.412  14.360  3.0639  0.0373 -1.7858
17317TIP3   OH273365   5.354   4.583   1.874  0.4905 -0.6991 -0.0212
17317TIP3    H173366   5.392   4.639   1.806 -0.6299 -0.7119 -0.6763
17317TIP3    H273367   5.355   4.638   1.953 -0.4187  0.1914 -0.6076
17318TIP3   OH273368   1.832   2.304  16.231  0.3529  0.1489  0.4445
17318TIP3    H173369   1.814   2.257  16.150 -1.9899  1.4926  0.0785
17318TIP3    H273370   1.912   2.265  16.265  1.7174 -0.1401 -2.7668
17319TIP3   OH273371   5.237   2.145   5.225 -0.1769 -0.1899 -0.6659
17319TIP3    H173372   5.218   2.153   5.131  1.3859 -2.4566 -1.2618
17319TIP3    H273373   5.327   2.178   5.234 -0.5774  0.7178  0.2135
17320TIP3   OH273374   2.527   5.270   2.299  0.0698  0.1849 -0.3186
17320TIP3    H173375   2.523   5.177   2.276 -3.0921 -0.1645  1.0780
17320TIP3    H273376   2.457   5.311   2.248  0.8996  1.6860 -0.3131
17321TIP3   OH273377   6.781   0.440  13.158  0.2094 -0.3945  0.6034
17321TIP3    H173378   6.711   0.383  13.190 -1.7637  1.9491  0.7494
17321TIP3    H273379   6.781   0.513  13.219  0.1550  1.4848 -1.5380
17322TIP3   OH273380   2.950   1.099  11.008 -0.3024  0.0818 -0.2755
17322TIP3    H173381   2.885   1.168  11.022 -1.0045 -0.6425  0.0863
17322TIP3    H273382   2.993   1.124  10.926  2.2077  3.0743  1.7425
17323TIP3   OH273383   4.410   2.796   2.512  0.2254 -0.3593 -0.3676
17323TIP3    H173384   4.390   2.814   2.421 -3.5116  0.5249  0.4806
17323TIP3    H273385   4.395   2.702   2.522 -0.7728 -0.2123 -0.3998
17324TIP3   OH273386   5.861   5.581   1.968 -0.2950  0.1856 -0.3388
17324TIP3    H173387   5.773   5.608   1.942 -0.5589 -1.6031 -1.4469
17324TIP3    H273388   5.891   5.524   1.897  2.7837  2.6488 -1.2376
17325TIP3   OH273389   5.372   2.547   5.199  0.0307  0.2600  0.2433
17325TIP3    H173390   5.288   2.588   5.220 -0.2942 -1.0272  1.6535
17325TIP3    H273391   5.436   2.618   5.205 -0.6882  0.8525  1.1786
17326TIP3   OH273392   5.295   1.436  15.143  0.5046 -0.1780 -0.4322
17326TIP3    H173393   5.279   1.403  15.054  2.9781 -1.5896 -0.4458
17326TIP3    H273394   5.319   1.358  15.193  2.8758  1.0284  0.4886
17327TIP3   OH273395   2.542   4.368  12.569  0.0727 -0.3534 -0.6585
17327TIP3    H173396   2.510   4.279  12.557 -0.5168 -0.3485  0.6913
17327TIP3    H273397   2.604   4.362  12.642 -0.8015  0.5049  0.1826
17328TIP3   OH273398   0.920   5.835  15.343  0.3845  0.0295 -0.0703
17328TIP3    H173399   0.960   5.750  15.326 -0.6235 -0.7287  1.1720
17328TIP3    H273400   0.877   5.858  15.261  1.3518 -0.2477 -0.6737
17329TIP3   OH273401   5.814   0.334  15.609  0.7195 -0.5967  0.1837
17329TIP3    H173402   5.767   0.309  15.688 -0.1914 -1.1016 -0.4978
17329TIP3    H273403   5.849   0.252  15.575 -0.9907 -0.7801 -1.2444
17330TIP3   OH273404   3.228   2.697  15.606 -0.8562  0.4613 -0.2190
17330TIP3    H173405   3.256   2.789  15.599 -1.4774  0.6935  0.2857
17330TIP3    H273406   3.305   2.652  15.642 -0.3772  0.6862 -0.9454
17331TIP3   OH273407   5.045   2.147  17.074  0.0743 -0.3797 -0.2827
17331TIP3    H173408   5.114   2.131  17.009  0.8762  1.9554 -0.0996
17331TIP3    H273409   4.988   2.212  17.032  0.0700  0.4587  0.9875
17332TIP3   OH273410   2.543   4.072   5.311 -0.5805  0.3342  0.1572
17332TIP3    H173411   2.473   4.135   5.300 -1.3983 -0.5007  0.4450
17332TIP3    H273412   2.609   4.097   5.247 -0.9806  1.3435  0.1280
17333TIP3   OH273413   3.067   1.419  11.632  0.4667 -0.1517  0.6664
17333TIP3    H173414   2.975   1.444  11.639  0.1295 -1.2699  0.5561
17333TIP3    H273415   3.112   1.471  11.699 -0.0416  1.2534 -0.0439
17334TIP3   OH273416   5.229   4.984  15.674 -0.3109 -0.0522 -0.6818
17334TIP3    H173417   5.156   4.976  15.613 -1.9832 -0.4592  1.2622
17334TIP3    H273418   5.232   5.077  15.697 -2.4218 -0.4582  1.6603
17335TIP3   OH273419   5.351   2.802   0.449 -0.1087  0.2161 -0.0026
17335TIP3    H173420   5.296   2.879   0.462  0.5238  0.8724 -1.0854
17335TIP3    H273421   5.302   2.746   0.389 -0.0095  0.3650 -0.2225
17336TIP3   OH273422   6.372   1.300   1.694 -0.2657 -0.0477 -0.4513
17336TIP3    H173423   6.445   1.301   1.757 -2.2080 -3.2790  2.1644
17336TIP3    H273424   6.301   1.344   1.739 -0.7726  0.6498 -1.8763
17337TIP3   OH273425   0.649   1.902  10.422  0.2249  0.1299 -0.9889
17337TIP3    H173426   0.708   1.829  10.405 -0.0621 -0.4653  0.4087
17337TIP3    H273427   0.704   1.967  10.466 -0.0602 -0.2943  0.0261
17338TIP3   OH273428   2.716   2.905   0.504  0.3436 -0.2762  0.1815
17338TIP3    H173429   2.739   2.987   0.546  1.7548 -1.7301  2.4867
17338TIP3    H273430   2.797   2.876   0.462 -0.1729 -0.4497 -0.7121
17339TIP3   OH273431   2.327   3.280   6.848 -0.2457  0.4990 -0.4970
17339TIP3    H173432   2.298   3.207   6.793  1.1248 -0.0131 -0.5682
17339TIP3    H273433   2.400   3.244   6.898  0.0928  1.6790 -0.1265
17340TIP3   OH273434   4.301   1.199   1.027 -0.2778  0.0338 -0.2360
17340TIP3    H173435   4.259   1.212   0.941 -0.4834  0.2058 -0.1113
17340TIP3    H273436   4.264   1.116   1.058  1.6123 -1.3109 -1.3713
17341TIP3   OH273437   4.725   5.083   1.082 -0.1915 -0.4172  0.0386
17341TIP3    H173438   4.714   5.155   1.020  1.4224 -0.0909  0.0907
17341TIP3    H273439   4.695   5.005   1.034 -0.6913  0.0878 -0.4784
17342TIP3   OH273440   2.663   6.644  14.913  0.0448 -0.0505  0.0519
17342TIP3    H173441   2.633   6.681  14.997  2.6620  0.8835  0.6784
17342TIP3    H273442   2.594   6.668  14.851 -2.1979 -1.1404  1.9469
17343TIP3   OH273443   6.582   5.822  13.580  0.2826 -0.1276  0.3903
17343TIP3    H173444   6.571   5.871  13.662  0.8376  1.3387 -0.3683
17343TIP3    H273445   6.647   5.756  13.601  1.4653  1.1168  0.8019
17344TIP3   OH273446   5.462   0.370   2.160  0.2890  0.4719 -0.3084
17344TIP3    H173447   5.528   0.350   2.094  0.1380 -0.7615 -0.1070
17344TIP3    H273448   5.437   0.285   2.196 -1.5391  0.8646 -0.5193
17345TIP3   OH273449   4.699   5.034   4.971 -0.2870 -0.2943  0.3012
17345TIP3    H173450   4.613   5.074   4.980 -0.1923 -0.1759  0.6864
17345TIP3    H273451   4.707   4.976   5.046  0.4268  0.5573  0.9115
17346TIP3   OH273452   4.388   3.407   4.227  0.3167 -0.2975  0.1954
17346TIP3    H173453   4.400   3.463   4.304  0.5898  1.0793 -0.8171
17346TIP3    H273454   4.362   3.467   4.157  0.8460 -1.4040 -0.9890
17347TIP3   OH273455   3.726   5.240  15.939  1.2118  0.1201  0.7008
17347TIP3    H173456   3.639   5.279  15.928  0.5579 -1.5142 -0.1852
17347TIP3    H273457   3.787   5.311  15.918  0.0836  1.0399  0.4573
17348TIP3   OH273458   3.149   1.768   4.215 -0.1440  0.4482 -0.3229
17348TIP3    H173459   3.063   1.727   4.214 -0.2111  0.5896 -0.3883
17348TIP3    H273460   3.150   1.822   4.294 -0.3081  0.8530 -0.5975
17349TIP3   OH273461   0.932   3.487   4.880 -0.4361 -0.1714  0.0376
17349TIP3    H173462   0.949   3.392   4.882 -0.4994 -0.2072 -0.7361
17349TIP3    H273463   0.920   3.507   4.787 -1.7719  0.3588  0.3047
17350TIP3   OH273464   4.191   0.585  14.713 -0.3964  0.0241  0.0931
17350TIP3    H173465   4.245   0.510  14.739  1.1046  1.0332  0.0263
17350TIP3    H273466   4.194   0.585  14.618  1.2988  1.2778  0.0947
17351TIP3   OH273467   2.023   2.264  13.970 -0.1728  0.1813  0.0108
17351TIP3    H173468   2.075   2.202  13.919  1.8847  0.8488  1.1694
17351TIP3    H273469   1.972   2.312  13.905  0.1569 -0.9468 -1.1203
17352TIP3   OH273470   4.681   0.615  16.192 -0.1696  0.3592 -0.1842
17352TIP3    H173471   4.750   0.654  16.246  1.8964  0.6853 -2.8336
17352TIP3    H273472   4.698   0.521  16.195  0.0208  0.3878 -0.3149
17353TIP3   OH273473   4.843   1.296   5.924  0.8813 -0.1501  0.2518
17353TIP3    H173474   4.904   1.348   5.977  0.4611  1.4118 -0.7356
17353TIP3    H273475   4.899   1.247   5.864  1.3306 -1.5109  1.7007
17354TIP3   OH273476   1.041   1.350  14.193  0.1493  0.5798  0.6055
17354TIP3    H173477   1.027   1.261  14.160 -2.0493  1.9645 -2.6917
17354TIP3    H273478   1.133   1.368  14.173 -0.0259 -0.1433 -1.0349
17355TIP3   OH273479   0.583   6.067  14.351  0.5183  0.0063  0.0732
17355TIP3    H173480   0.559   6.122  14.426 -0.6146  0.8069 -0.8354
17355TIP3    H273481   0.635   6.125  14.295 -0.0255 -0.0680 -0.5208
17356TIP3   OH273482   2.662   1.519  11.347  0.0235  0.0547 -0.4139
17356TIP3    H173483   2.610   1.513  11.267 -0.5318 -0.4924 -0.0095
17356TIP3    H273484   2.753   1.522  11.315 -0.2454  2.7649 -1.2259
17357TIP3   OH273485   6.634   2.652  15.628  0.2702  0.1290  0.2485
17357TIP3    H173486   6.686   2.578  15.598 -1.7264 -0.8938 -0.8848
17357TIP3    H273487   6.607   2.628  15.717  0.5532  0.0016  0.2986
17358TIP3   OH273488   3.751   3.240  10.148 -0.2944  0.0876 -0.1198
17358TIP3    H173489   3.791   3.304  10.089 -0.3248  0.5873  0.3975
17358TIP3    H273490   3.657   3.255  10.140 -0.4074 -1.0675 -1.3138
17359TIP3   OH273491   0.353   1.691   0.594 -0.0292 -0.5842 -0.5212
17359TIP3    H173492   0.364   1.602   0.561  1.0484 -0.2474 -1.1018
17359TIP3    H273493   0.437   1.713   0.633 -0.3443  0.1223 -0.2152
17360TIP3   OH273494   6.317   6.713   3.287  0.3973  0.2638 -0.2967
17360TIP3    H173495   6.371   6.779   3.245  0.8604  1.0230  1.3873
17360TIP3    H273496   6.269   6.761   3.355  0.7909 -1.1198  1.0238
17361TIP3   OH273497   6.737   5.350  16.086  0.1606 -0.1669 -0.4036
17361TIP3    H173498   6.694   5.293  16.150  1.7694 -0.1266  0.7901
17361TIP3    H273499   6.721   5.438  16.119 -0.5372 -0.0352 -1.0793
17362TIP3   OH273500   6.032   4.526  12.776  0.2926  0.0917 -0.3010
17362TIP3    H173501   5.943   4.504  12.801  0.0581 -0.0127 -1.1939
17362TIP3    H273502   6.024   4.609  12.727  0.6421 -0.0744 -0.6480
17363TIP3   OH273503   2.029   2.793  12.066 -0.1171  0.4529 -0.0346
17363TIP3    H173504   1.977   2.761  11.992 -0.2572  1.0244 -0.1849
17363TIP3    H273505   2.066   2.714  12.105 -0.9793  0.0446 -0.0184
17364TIP3   OH273506   1.335   0.844   1.956  0.0893 -0.4250 -0.4601
17364TIP3    H173507   1.399   0.782   1.991  1.6882  1.1045 -0.5800
17364TIP3    H273508   1.260   0.789   1.933 -0.1445 -1.8181  3.0650
17365TIP3   OH273509   0.813   2.381  13.084 -0.1139  0.1429  0.3462
17365TIP3    H173510   0.904   2.351  13.095 -0.3663 -0.5458  0.5705
17365TIP3    H273511   0.760   2.310  13.120 -0.7276  0.8175  0.7884
17366TIP3   OH273512   3.558   5.434   3.717  0.3901  0.0417  0.0694
17366TIP3    H173513   3.623   5.365   3.705  0.8908  0.4855  0.1985
17366TIP3    H273514   3.528   5.455   3.629  0.0197 -0.5423  0.0516
17367TIP3   OH273515   2.243   6.265  11.456  0.1342 -0.1061  0.3411
17367TIP3    H173516   2.299   6.269  11.378 -1.3850  1.4231 -0.7246
17367TIP3    H273517   2.289   6.317  11.522  1.1258 -0.9058  0.3214
17368TIP3   OH273518   4.032   0.989   4.706 -0.5934  0.6584 -0.3623
17368TIP3    H173519   4.067   0.901   4.705  0.7367  1.1510  0.4486
17368TIP3    H273520   3.954   0.983   4.762 -1.9658 -0.4655 -2.2733
17369TIP3   OH273521   6.552   0.991  10.846  0.2691  0.3026 -0.4166
17369TIP3    H173522   6.608   0.999  10.768 -1.6388  1.1740 -1.7714
17369TIP3    H273523   6.596   1.046  10.912  2.0523 -0.6488 -0.7441
17370TIP3   OH273524   0.481   4.326  12.014 -0.8437  0.3211 -0.0081
17370TIP3    H173525   0.408   4.361  12.065 -0.7569 -1.0733  1.1446
17370TIP3    H273526   0.518   4.402  11.970 -1.2458  1.5118  1.6228
17371TIP3   OH273527   6.382   5.771  15.860  0.8665 -0.0870 -0.0463
17371TIP3    H173528   6.436   5.822  15.920  1.5153 -1.1808  0.3398
17371TIP3    H273529   6.407   5.801  15.773 -0.8766  2.2987  0.2019
17372TIP3   OH273530   2.329   6.262  15.411 -0.2863 -0.1322  0.0781
17372TIP3    H173531   2.382   6.275  15.490 -1.7859  0.2288  1.0740
17372TIP3    H273532   2.335   6.169  15.394  1.5753  0.0502 -0.5349
17373TIP3   OH273533   2.736   2.425   3.270  0.2201  0.0448 -0.3128
17373TIP3    H173534   2.708   2.486   3.202 -0.5450  0.8375  0.6917
17373TIP3    H273535   2.815   2.384   3.234  0.8171  1.6919 -0.9761
17374TIP3   OH273536   5.462   0.000  14.526  0.1744 -0.0517 -0.2603
17374TIP3    H173537   5.461   0.077  14.583 -2.2585 -0.5368  0.4482
17374TIP3    H273538   5.532   0.019  14.462 -0.6514  2.9741 -0.4328
17375TIP3   OH273539   0.705   0.388  12.695  0.1242 -0.0917  0.2173
17375TIP3    H173540   0.748   0.450  12.637 -0.1654 -0.8577 -0.8370
17375TIP3    H273541   0.765   0.313  12.699 -0.2655 -0.4055  0.2089
17376TIP3   OH273542   5.224   4.687  11.779  0.5500 -0.4803 -0.4102
17376TIP3    H173543   5.246   4.611  11.833 -0.7983 -0.3675  0.3578
17376TIP3    H273544   5.204   4.756  11.843 -2.4005 -0.7143 -0.9103
17377TIP3   OH273545   2.336   0.946   5.063 -0.1695  0.6051  0.0938
17377TIP3    H173546   2.263   0.962   5.123 -0.0344 -2.3833  1.2144
17377TIP3    H273547   2.413   0.939   5.119  0.1404 -1.0771 -0.4596
17378TIP3   OH273548   1.005   1.931   0.121 -0.0245 -0.4329 -0.1443
17378TIP3    H173549   1.097   1.951   0.140 -0.0211  1.2410 -1.6682
17378TIP3    H273550   0.972   1.892   0.202  1.8795 -0.6178  0.6045
17379TIP3   OH273551   6.731   2.543  10.971 -0.2949  0.2807 -1.0052
17379TIP3    H173552   6.661   2.566  11.032 -0.2650  1.0418 -1.2454
17379TIP3    H273553   6.801   2.507  11.027 -0.4697  0.4882 -0.6501
17380TIP3   OH273554   1.069   0.802   6.223 -0.6839  0.1436 -0.0214
17380TIP3    H173555   1.049   0.765   6.137 -0.9687 -0.6476  0.3749
17380TIP3    H273556   1.108   0.730   6.271 -0.5413  0.5805  0.5207
17381TIP3   OH273557   0.404   5.333   1.331 -0.2539  0.0169 -0.1704
17381TIP3    H173558   0.383   5.280   1.408  0.7122  0.5168  0.4595
17381TIP3    H273559   0.356   5.415   1.344  1.6448  0.9991  1.0667
17382TIP3   OH273560   6.752   0.532  12.171  0.2060 -0.1757 -0.2806
17382TIP3    H173561   6.779   0.456  12.120  0.2222  0.0215 -0.5715
17382TIP3    H273562   6.659   0.542  12.154 -0.0411 -0.7924  0.6413
17383TIP3   OH273563   1.564   6.548  13.392 -0.4480  0.2578 -0.4857
17383TIP3    H173564   1.558   6.577  13.301 -0.5427  0.4597 -0.4125
17383TIP3    H273565   1.651   6.576  13.420  0.2860 -1.3068 -1.0494
17384TIP3   OH273566   0.786   2.725   3.164 -0.4708 -0.2177  0.2851
17384TIP3    H173567   0.870   2.769   3.148 -0.4100 -0.5545 -0.3567
17384TIP3    H273568   0.774   2.730   3.259  0.2084 -0.0391  0.3667
17385TIP3   OH273569   3.828   5.881  16.341  0.5632 -0.4635  0.0730
17385TIP3    H173570   3.915   5.906  16.308  0.3764 -1.9381 -1.6593
17385TIP3    H273571   3.774   5.959  16.326  1.2023 -0.0780 -0.2780
17386TIP3   OH273572   3.214   3.571   3.691  0.2297 -0.0818  0.2853
17386TIP3    H173573   3.303   3.603   3.676 -0.0278  0.0209 -1.2387
17386TIP3    H273574   3.223   3.476   3.692  0.3249 -0.0850 -0.2425
17387TIP3   OH273575   0.625   1.111   5.317  0.4008  0.2504 -0.1750
17387TIP3    H173576   0.668   1.177   5.263 -1.0494 -0.0191 -1.7452
17387TIP3    H273577   0.557   1.074   5.261 -1.3138  0.0560  1.8860
17388TIP3   OH273578   0.311   4.950   1.281  0.4229  0.0870 -0.0745
17388TIP3    H173579   0.292   4.958   1.188 -1.1880 -0.2314  0.1961
17388TIP3    H273580   0.381   4.885   1.286  1.1728  0.7991 -1.1074
17389TIP3   OH273581   4.096   3.050   5.761  0.9764 -0.0202  0.4044
17389TIP3    H173582   4.083   3.118   5.695 -0.7805 -0.7259 -0.0343
17389TIP3    H273583   4.095   3.097   5.844 -1.5224  0.4198  0.1961
17390TIP3   OH273584   2.897   0.820   1.553  0.0150 -0.8287  0.2614
17390TIP3    H173585   2.970   0.877   1.531  0.1024 -0.3553  1.6529
17390TIP3    H273586   2.938   0.737   1.576  0.3770 -0.0320  2.8958
17391TIP3   OH273587   3.029   0.694   5.134 -0.3950  0.8804 -0.2570
17391TIP3    H173588   2.976   0.635   5.187 -0.7738  0.0516 -1.5235
17391TIP3    H273589   3.113   0.699   5.180 -0.4173 -0.4928 -0.0312
17392TIP3   OH273590   6.354   0.661  12.369 -0.1076  0.4769  0.1100
17392TIP3    H173591   6.390   0.590  12.315 -0.6041  1.4053 -1.5100
17392TIP3    H273592   6.397   0.740  12.337 -1.7145  1.2865 -0.1826
17393TIP3   OH273593   5.443   4.694   1.623  0.0084 -0.1658 -0.4948
17393TIP3    H173594   5.384   4.722   1.553 -0.5926  1.0455  0.4530
17393TIP3    H273595   5.524   4.670   1.578 -0.6439 -0.2350 -1.6693
17394TIP3   OH273596   1.757   5.785  12.576 -0.2171 -0.0617 -0.1009
17394TIP3    H173597   1.808   5.838  12.515 -0.4629  0.1394 -0.1378
17394TIP3    H273598   1.675   5.834  12.586 -0.7037 -0.7403 -0.6167
17395TIP3   OH273599   5.074   1.313  11.672  0.6504  0.2880  0.5972
17395TIP3    H173600   5.031   1.286  11.591 -2.5914  0.5629  2.0785
17395TIP3    H273601   5.163   1.276  11.666  0.3395 -0.1729 -2.7519
17396TIP3   OH273602   5.760   1.875   2.865 -0.1937  0.6378 -0.2157
17396TIP3    H173603   5.704   1.812   2.821 -0.2320  1.3028 -1.1430
17396TIP3    H273604   5.772   1.945   2.801  2.3425  0.1536 -0.3583
17397TIP3   OH273605   2.912   2.198   5.571 -0.3007 -0.8739  0.5070
17397TIP3    H173606   3.007   2.205   5.564 -0.2955 -0.1332  1.1749
17397TIP3    H273607   2.882   2.177   5.482  0.4190 -0.2840  0.1174
17398TIP3   OH273608   3.517   5.756  12.584  0.4770 -0.7269  0.0602
17398TIP3    H173609   3.499   5.662  12.593 -0.1231 -0.6547 -0.3341
17398TIP3    H273610   3.507   5.791  12.672  1.0677 -1.0911  0.2788
17399TIP3   OH273611   0.432   6.708  16.448 -0.2059  0.4371  0.1496
17399TIP3    H173612   0.399   6.725  16.536  1.6783  0.7891  0.8471
17399TIP3    H273613   0.494   6.778  16.431 -0.1384  0.0743 -1.2575
17400TIP3   OH273614   2.052   1.094  12.480  0.4795 -0.3108  0.2543
17400TIP3    H173615   2.021   1.098  12.570 -0.8884  2.1507 -0.2352
17400TIP3    H273616   2.101   1.175  12.467 -0.9524  0.3331 -1.6924
17401TIP3   OH273617   6.283   3.126   6.189 -0.5333  0.1865 -0.2508
17401TIP3    H173618   6.262   3.097   6.100  0.2202  1.0766 -0.7289
17401TIP3    H273619   6.348   3.195   6.178 -0.6604  0.5343  0.9796
17402TIP3   OH273620   3.465   1.847  14.085 -0.1616 -0.7252 -0.2555
17402TIP3    H173621   3.535   1.883  14.030 -0.3723  1.3821  0.7484
17402TIP3    H273622   3.394   1.911  14.077  0.0511  0.0597  2.9239
17403TIP3   OH273623   2.022   2.721  14.258 -0.6264  0.6755 -0.3771
17403TIP3    H173624   1.988   2.733  14.170 -0.2526 -0.2399 -0.6509
17403TIP3    H273625   2.049   2.809  14.285  0.7668  0.7289 -1.8152
17404TIP3   OH273626   0.005   0.740  17.062  0.2860  0.0403 -0.1075
17404TIP3    H173627   0.020   0.650  17.089  2.6205 -0.1604 -1.7404
17404TIP3    H273628  -0.081   0.739  17.020 -0.0932 -1.2292  0.6638
17405TIP3   OH273629   5.846   5.792   5.690 -0.3378 -0.1555  0.2123
17405TIP3    H173630   5.897   5.838   5.756  0.7361  0.4844 -1.0049
17405TIP3    H273631   5.897   5.713   5.671  0.0023  0.2563 -0.6741
17406TIP3   OH273632   5.514   0.296   5.440 -0.9923  0.3917 -0.0985
17406TIP3    H173633   5.497   0.346   5.519  0.1000  1.1287 -0.3063
17406TIP3    H273634   5.601   0.325   5.411 -0.8509 -0.7447 -0.8939
17407TIP3   OH273635   0.445   0.401   3.631  0.4640  0.6198 -0.7813
17407TIP3    H173636   0.364   0.386   3.680  1.1189 -0.2836  0.0350
17407TIP3    H273637   0.429   0.483   3.585 -0.9336  0.4496 -0.6560
17408TIP3   OH273638   2.609   6.535   5.005 -0.9212 -0.0133 -0.5902
17408TIP3    H173639   2.613   6.458   5.061  2.2510 -0.3191 -1.0493
17408TIP3    H273640   2.587   6.607   5.064  1.9774 -0.3751  1.1498
17409TIP3   OH273641   4.024   3.016   0.645  0.0956  0.5379  0.3723
17409TIP3    H173642   4.061   2.941   0.693 -0.6052 -0.9098 -1.2346
17409TIP3    H273643   3.970   2.976   0.577  0.0673  2.5247 -0.8416
17410TIP3   OH273644   0.895   2.523  13.335 -0.3906 -0.3692 -0.7421
17410TIP3    H173645   0.844   2.508  13.255 -0.3738  0.4866 -0.9192
17410TIP3    H273646   0.949   2.599  13.316 -1.5614  0.8880  0.6135
17411TIP3   OH273647   0.519   1.157  16.726 -0.4295  0.1316 -0.3531
17411TIP3    H173648   0.549   1.142  16.636  1.3670 -0.7054  0.3494
17411TIP3    H273649   0.484   1.072  16.754  2.0263 -0.5721  0.7968
17412TIP3   OH273650   3.288   0.916   3.015  0.0196 -0.1638  0.1300
17412TIP3    H173651   3.290   0.941   3.108  1.4012  0.9710 -0.1695
17412TIP3    H273652   3.229   0.981   2.975 -0.4020 -0.5191  0.1669
17413TIP3   OH273653   5.893   0.462  16.377  0.3182 -0.1932  0.4929
17413TIP3    H173654   5.932   0.508  16.303 -1.7275  0.7965 -0.0617
17413TIP3    H273655   5.872   0.530  16.440  0.5791 -0.8357  1.2915
17414TIP3   OH273656   6.728   6.460   0.521  0.4980  0.1922  0.3235
17414TIP3    H173657   6.644   6.428   0.553  1.0423  0.4249  2.0816
17414TIP3    H273658   6.772   6.383   0.488  1.5530 -0.9646  3.9403
17415TIP3   OH273659   6.338   6.609   0.391 -0.0911  0.3874  0.4039
17415TIP3    H173660   6.280   6.650   0.455 -0.8805 -1.5814  1.0296
17415TIP3    H273661   6.411   6.577   0.443 -0.5672 -0.9239  0.2892
17416TIP3   OH273662   0.874   1.525  10.877 -0.1951  0.2567 -0.0984
17416TIP3    H173663   0.864   1.571  10.793  0.6904 -0.5173 -0.6484
17416TIP3    H273664   0.868   1.594  10.943  0.8476  1.1350 -0.8832
17417TIP3   OH273665   4.166   5.604  14.061 -0.6064  0.1232  0.2049
17417TIP3    H173666   4.173   5.692  14.025 -1.4877  0.0640 -0.1461
17417TIP3    H273667   4.207   5.548  13.996 -0.4260  0.2316  0.2259
17418TIP3   OH273668   2.552   2.377  12.383  0.4447  0.7452 -0.1434
17418TIP3    H173669   2.499   2.348  12.309  1.9661  0.8981 -1.3262
17418TIP3    H273670   2.492   2.373  12.458 -1.0913  0.4785 -1.3413
17419TIP3   OH273671   5.955   5.251   6.172  0.0295  0.3675  0.0691
17419TIP3    H173672   6.045   5.220   6.169  0.5144  1.7383 -1.0626
17419TIP3    H273673   5.930   5.245   6.264  1.2629 -0.0516  0.3969
17420TIP3   OH273674   3.952   1.251   1.380  0.0083  0.6116 -0.3086
17420TIP3    H173675   3.910   1.272   1.463  1.1989 -0.6252  0.6394
17420TIP3    H273676   3.879   1.231   1.321 -0.7934 -1.4891  1.2758
17421TIP3   OH273677   2.090   2.628  16.352  0.0737 -0.5653  0.5587
17421TIP3    H173678   2.013   2.620  16.296 -0.0079 -0.3954  0.6442
17421TIP3    H273679   2.068   2.699  16.414  0.3957 -0.3396  0.4215
17422TIP3   OH273680   2.672   1.186   3.636  0.2041  0.5807 -0.0501
17422TIP3    H173681   2.746   1.165   3.693  0.1762  1.3300  0.2688
17422TIP3    H273682   2.625   1.256   3.682 -1.2940 -0.5573  0.2624
17423TIP3   OH273683   4.139   2.152  10.624 -0.1550 -0.5603 -0.2308
17423TIP3    H173684   4.235   2.148  10.633  0.0985  1.3109 -1.5037
17423TIP3    H273685   4.114   2.233  10.667 -1.1108 -0.7654 -0.3741
17424TIP3   OH273686   5.117   5.414   0.944  0.6124  0.4322 -0.2176
17424TIP3    H173687   5.182   5.357   0.985  0.5592  1.4416  1.3336
17424TIP3    H273688   5.042   5.357   0.928 -0.2027  0.3676  3.1359
17425TIP3   OH273689   1.708   1.592  13.419  0.2307  0.1939  0.1738
17425TIP3    H173690   1.781   1.629  13.469 -0.5008  0.0163  1.4413
17425TIP3    H273691   1.676   1.521  13.474 -1.3393  0.7276  0.0047
17426TIP3   OH273692   3.836   0.849  15.786  0.1041  0.1040 -0.6697
17426TIP3    H173693   3.772   0.914  15.813 -0.7907  0.0700 -2.5251
17426TIP3    H273694   3.915   0.899  15.766 -0.2181  0.4915 -0.9914
17427TIP3   OH273695   1.690   0.082   3.709 -0.0175  0.2013  0.0721
17427TIP3    H173696   1.760   0.051   3.767  2.1789  0.5265 -2.2118
17427TIP3    H273697   1.714   0.172   3.689 -1.2487  0.4044 -0.5819
17428TIP3   OH273698   4.707   3.398  12.410 -0.3895  0.2477 -0.4150
17428TIP3    H173699   4.762   3.408  12.332 -0.4463  2.4795 -0.2231
17428TIP3    H273700   4.712   3.304  12.430  3.0751  0.2711 -0.5609
17429TIP3   OH273701   4.165   1.332   2.259  0.0825  0.0323 -0.0226
17429TIP3    H173702   4.179   1.310   2.167 -1.2297 -1.0788  0.0020
17429TIP3    H273703   4.078   1.296   2.279  0.4480  0.0176  1.7203
17430TIP3   OH273704   6.229   6.381   3.858 -0.3125 -0.3382  0.0390
17430TIP3    H173705   6.134   6.371   3.845 -0.3026  0.8832 -1.2534
17430TIP3    H273706   6.256   6.299   3.898 -2.0084 -0.4851  1.0065
17431TIP3   OH273707   4.026   5.140   3.282 -0.0156 -0.1366  0.4149
17431TIP3    H173708   4.004   5.049   3.261 -0.1635 -0.0808  0.3334
17431TIP3    H273709   3.942   5.185   3.289  0.0838  0.1925 -0.4307
17432TIP3   OH273710   5.395   2.344   0.418 -0.0644 -0.3560 -0.0826
17432TIP3    H173711   5.380   2.375   0.329 -0.2308  2.6237  0.8701
17432TIP3    H273712   5.485   2.368   0.438 -0.2638 -0.3004  0.8080
17433TIP3   OH273713   4.541   0.350   5.615 -0.0622  0.5297 -0.0190
17433TIP3    H173714   4.457   0.341   5.570  0.1356 -0.8875 -0.1677
17433TIP3    H273715   4.574   0.436   5.589 -1.8565  1.5124  0.7518
17434TIP3   OH273716   4.442   5.539   1.244 -0.2680 -0.0686  0.2786
17434TIP3    H173717   4.368   5.517   1.300 -1.3308  0.1771 -0.9677
17434TIP3    H273718   4.495   5.459   1.240 -0.1593 -0.0715  1.6269
17435TIP3   OH273719   1.575   3.223  14.339  0.4009 -0.0515 -0.1559
17435TIP3    H173720   1.491   3.203  14.379  0.2038 -0.5741 -0.8203
17435TIP3    H273721   1.591   3.315  14.361  0.1873 -0.2565  0.9041
17436TIP3   OH273722   5.944   5.224   2.674 -0.6081  0.1245 -0.0094
17436TIP3    H173723   6.003   5.153   2.649 -0.8371 -1.5731  3.5932
17436TIP3    H273724   5.859   5.182   2.686 -0.6534  0.7747  2.6715
17437TIP3   OH273725   2.411   1.056  12.375 -0.3672 -0.7989 -0.0147
17437TIP3    H173726   2.506   1.070  12.381 -0.3665 -0.0075 -1.5595
17437TIP3    H273727   2.373   1.143  12.380 -1.1264 -1.1877  1.7432
17438TIP3   OH273728   2.795   4.914  16.199 -0.3274  0.2185  0.2765
17438TIP3    H173729   2.764   4.884  16.285  1.0260 -1.5586  0.2156
17438TIP3    H273730   2.874   4.963  16.218 -0.8896  1.2040  0.1357
17439TIP3   OH273731   4.923   4.185   1.983  0.6052  0.2717 -0.2217
17439TIP3    H173732   4.900   4.201   2.074 -1.6523  0.2266 -0.7363
17439TIP3    H273733   4.896   4.095   1.967 -1.3025  1.0091 -1.5332
17440TIP3   OH273734   5.948   5.787  13.942  0.2408  0.6703 -0.0916
17440TIP3    H173735   6.008   5.716  13.919 -1.4023 -0.7758 -0.1370
17440TIP3    H273736   5.956   5.795  14.037  0.1562  0.1018 -0.0265
17441TIP3   OH273737   3.316   0.940   1.912 -0.5075  0.4006  0.2826
17441TIP3    H173738   3.274   0.957   1.827 -1.0166  1.7664  0.7695
17441TIP3    H273739   3.366   1.020   1.929 -1.4027  0.6719  1.8170
17442TIP3   OH273740   5.422   0.467  16.830 -0.0111 -0.1781  0.3637
17442TIP3    H173741   5.511   0.502  16.822 -0.5612  1.0319 -0.8558
17442TIP3    H273742   5.382   0.518  16.901  0.1363 -0.4381  0.6344
17443TIP3   OH273743   6.813   4.588  13.432 -0.2482 -0.1558  0.7158
17443TIP3    H173744   6.729   4.592  13.385 -0.7784 -0.5961  1.5991
17443TIP3    H273745   6.877   4.568  13.364 -0.9324 -0.3359  0.1015
17444TIP3   OH273746   3.433   5.611   1.620 -0.1939  0.0842 -0.6608
17444TIP3    H173747   3.459   5.521   1.637 -0.4609  0.2119  0.5057
17444TIP3    H273748   3.507   5.648   1.571 -0.0685 -0.7465 -1.1174
17445TIP3   OH273749   0.423   0.589  13.250 -1.0122  0.4163  0.9883
17445TIP3    H173750   0.424   0.507  13.300  0.7597  1.6660  3.1368
17445TIP3    H273751   0.381   0.565  13.167  2.4875 -3.5527  0.0419
17446TIP3   OH273752   2.764   1.362   5.890 -0.3623  0.1022 -0.6088
17446TIP3    H173753   2.808   1.363   5.974 -0.9071 -1.9974 -0.2248
17446TIP3    H273754   2.715   1.444   5.887  0.4638  0.6654  0.6606
17447TIP3   OH273755   3.192   2.834   5.429 -0.2825 -0.0991 -0.1765
17447TIP3    H173756   3.185   2.743   5.456 -2.4456 -0.0896 -0.5634
17447TIP3    H273757   3.141   2.883   5.494 -0.6604  0.6127 -0.9871
17448TIP3   OH273758   0.158   1.257  14.538  0.1255 -0.3115 -0.6599
17448TIP3    H173759   0.081   1.259  14.481 -0.7838  0.3438  0.5347
17448TIP3    H273760   0.126   1.220  14.620  0.6903  1.3708  0.3711
17449TIP3   OH273761   5.305   3.519   3.577  0.1013  0.1244 -0.0353
17449TIP3    H173762   5.218   3.483   3.555  0.4375 -0.6603 -0.1200
17449TIP3    H273763   5.287   3.610   3.602 -0.7332  0.0101 -0.1609
17450TIP3   OH273764   4.425   1.541  14.629  0.0740 -0.0392  0.0509
17450TIP3    H173765   4.460   1.455  14.608  2.0892  0.8800 -0.5797
17450TIP3    H273766   4.348   1.523  14.684 -0.2471 -2.2415 -1.0284
17451TIP3   OH273767   6.545   2.040  12.108 -0.0434 -0.4675 -0.5495
17451TIP3    H173768   6.553   2.051  12.013 -2.7016  0.9758 -0.7057
17451TIP3    H273769   6.452   2.026  12.123  0.1600  0.2964  1.9373
17452TIP3   OH273770   3.049   2.067   4.667  0.6109 -0.2171 -0.1332
17452TIP3    H173771   3.010   2.154   4.658 -1.1985 -0.7458  1.8014
17452TIP3    H273772   3.101   2.072   4.747  0.2588 -0.9755  0.1495
17453TIP3   OH273773   5.457   5.276  13.934 -0.2088 -0.4391  0.3461
17453TIP3    H173774   5.523   5.271  13.865 -0.9387  0.6083 -0.4740
17453TIP3    H273775   5.497   5.329  14.002 -0.6062  1.2354 -0.6765
17454TIP3   OH273776   6.100   3.709  11.045 -0.3685 -0.9683  0.5440
17454TIP3    H173777   6.104   3.794  11.000 -0.0608  0.3180  2.8323
17454TIP3    H273778   6.149   3.649  10.989 -0.2102  0.4721 -0.9202
17455TIP3   OH273779   4.746   5.134   4.491 -0.3289 -0.7546  0.0405
17455TIP3    H173780   4.784   5.221   4.482 -0.6008 -0.5852  0.5158
17455TIP3    H273781   4.652   5.147   4.479 -0.2249 -1.2324 -1.5556
17456TIP3   OH273782   6.108   5.299   5.198 -0.0464  0.1633 -0.3093
17456TIP3    H173783   6.046   5.292   5.125  1.0705  0.4136 -1.3265
17456TIP3    H273784   6.060   5.266   5.274 -1.1387 -0.4282 -1.2181
17457TIP3   OH273785   4.838   2.462   2.366 -0.7711 -0.0283 -1.0553
17457TIP3    H173786   4.761   2.419   2.329  0.4575 -1.1177 -2.4716
17457TIP3    H273787   4.900   2.467   2.293  1.4559 -1.5107  0.6072
17458TIP3   OH273788   5.051   3.196  15.817  0.1614  0.1024 -0.4966
17458TIP3    H173789   4.990   3.155  15.879  1.1670 -0.0034  0.4587
17458TIP3    H273790   5.021   3.287  15.811  1.5969  0.8454  2.2641
17459TIP3   OH273791   1.299   3.201  12.864 -0.3163  0.0690  0.3894
17459TIP3    H173792   1.374   3.150  12.833 -0.3991  0.0540  0.2173
17459TIP3    H273793   1.225   3.140  12.860 -0.5175  0.3467 -0.2891
17460TIP3   OH273794   5.133   0.865   2.144  0.0690 -0.6172 -0.1306
17460TIP3    H173795   5.143   0.777   2.181  1.7310 -0.3162  0.2403
17460TIP3    H273796   5.197   0.868   2.072  1.4981  0.8879  1.1072
17461TIP3   OH273797   1.439   6.031  11.855  0.5891  0.2975  0.5472
17461TIP3    H173798   1.345   6.023  11.843  0.6526 -0.8024  0.7012
17461TIP3    H273799   1.476   5.955  11.811  1.3069 -0.0803  1.7526
17462TIP3   OH273800   1.944   2.013   1.197  0.5265  0.1605  0.5225
17462TIP3    H173801   1.960   1.928   1.237 -1.4800 -0.2650  0.5406
17462TIP3    H273802   2.010   2.071   1.236  1.9147 -1.3534  0.5112
17463TIP3   OH273803   5.276   2.919  15.140 -0.1083  0.4830  0.0276
17463TIP3    H173804   5.220   2.923  15.217 -0.4687 -1.9503 -0.0150
17463TIP3    H273805   5.227   2.864  15.078  1.1579  0.5054 -1.0502
17464TIP3   OH273806   2.507   2.864  16.252 -0.1242  0.3258  0.4048
17464TIP3    H173807   2.496   2.793  16.189  0.0352 -1.0010  1.8236
17464TIP3    H273808   2.433   2.854  16.312 -0.2288  1.5153  0.5034
17465TIP3   OH273809   4.216   2.614  11.656 -0.2067 -0.1564 -0.4928
17465TIP3    H173810   4.147   2.661  11.703  0.3226 -0.3485  0.5043
17465TIP3    H273811   4.257   2.681  11.601 -0.9523  0.0318 -0.8266
17466TIP3   OH273812   1.563   2.077   1.976  0.7407 -0.6603  0.2705
17466TIP3    H173813   1.565   1.993   1.930 -3.3645 -0.0338 -1.4316
17466TIP3    H273814   1.515   2.059   2.057  1.8116 -0.3426  0.9955
17467TIP3   OH273815   6.794   6.471   5.376 -0.1820  0.0609 -0.8559
17467TIP3    H173816   6.750   6.547   5.413  0.9338 -0.1835  1.1171
17467TIP3    H273817   6.877   6.505   5.343 -0.8194  0.1286 -2.4660
17468TIP3   OH273818   5.112   3.254  16.982  0.8182  0.3299 -0.5480
17468TIP3    H173819   5.120   3.249  17.078  0.6223  1.0954 -0.4796
17468TIP3    H273820   5.196   3.292  16.954  0.0074  2.3726 -0.4310
17469TIP3   OH273821   0.651   1.672  14.182  0.0399 -0.4396 -0.3368
17469TIP3    H173822   0.628   1.587  14.219  1.6154 -0.9278 -0.3665
17469TIP3    H273823   0.742   1.661  14.153 -0.1699  0.8423 -1.6112
17470TIP3   OH273824   4.085   5.831   6.225 -0.1813 -0.1399 -0.5313
17470TIP3    H173825   4.108   5.743   6.255 -2.3412  0.0116  1.9087
17470TIP3    H273826   4.032   5.816   6.146 -0.3591 -1.0195 -0.2605
17471TIP3   OH273827   2.370   1.648   5.855 -0.3181 -0.4569  0.0501
17471TIP3    H173828   2.354   1.743   5.859  0.5458 -0.3399  1.8498
17471TIP3    H273829   2.375   1.621   5.947 -0.5174 -2.2562 -0.4341
17472TIP3   OH273830   4.870   0.073   0.831  0.3070 -0.4909 -0.0198
17472TIP3    H173831   4.887   0.156   0.877  1.0465 -1.0869  0.8173
17472TIP3    H273832   4.896   0.089   0.741  1.1357 -0.0312  0.2959
17473TIP3   OH273833   1.515   2.736   1.880 -0.0040  0.1424 -0.5748
17473TIP3    H173834   1.588   2.686   1.842 -0.3803  1.2572 -2.9804
17473TIP3    H273835   1.441   2.674   1.878  0.2420 -0.1527 -0.6998
17474TIP3   OH273836   3.868   2.572   4.529  0.4890 -0.6102  0.1104
17474TIP3    H173837   3.892   2.529   4.447  1.4986 -1.1977  0.6807
17474TIP3    H273838   3.932   2.642   4.539  0.6128 -0.7792  0.5648
17475TIP3   OH273839   1.365   4.026  13.943  0.3154  0.0897  0.2668
17475TIP3    H173840   1.347   3.967  14.016  0.8636  0.0005  0.3345
17475TIP3    H273841   1.320   4.107  13.966 -0.8847 -0.4472 -0.0648
17476TIP3   OH273842   0.893   4.814  15.502 -0.2684 -0.1595 -0.2274
17476TIP3    H173843   0.893   4.845  15.412 -1.2712 -0.9501 -0.5251
17476TIP3    H273844   0.847   4.882  15.551  0.0597  0.1554 -0.3563
17477TIP3   OH273845   3.365   1.981   2.964  0.5282  0.2981  0.2802
17477TIP3    H173846   3.298   1.981   3.032  1.6216 -0.3594  1.3950
17477TIP3    H273847   3.327   2.032   2.893 -1.1491 -0.0578  0.8760
17478TIP3   OH273848   5.523   2.002   0.066 -0.1707  0.2910 -0.4308
17478TIP3    H173849   5.479   1.958  -0.007  1.1943  0.0637 -1.1436
17478TIP3    H273850   5.577   2.070   0.026  1.1450 -0.2885  0.2798
17479TIP3   OH273851   6.082   1.505  12.586 -0.1041  0.0599  0.5839
17479TIP3    H173852   6.037   1.477  12.506 -0.6985  0.3313  0.8172
17479TIP3    H273853   6.169   1.466  12.579  0.1727  0.8278 -0.6418
17480TIP3   OH273854   5.102   6.768   0.140 -0.0909 -0.0059 -0.5007
17480TIP3    H173855   5.049   6.713   0.082 -0.6617 -0.6313  0.5968
17480TIP3    H273856   5.192   6.736   0.128 -0.6237 -2.5425  1.5417
17481TIP3   OH273857   4.572   5.707   4.399  0.2053  0.3569  0.2577
17481TIP3    H173858   4.480   5.722   4.421  0.4621  0.7268  1.1202
17481TIP3    H273859   4.575   5.711   4.303 -0.6891  0.2338  0.2198
17482TIP3   OH273860   6.107   4.867  14.024 -0.5534  0.3062  0.5128
17482TIP3    H173861   6.071   4.934  14.081 -1.0833 -0.7068  1.4086
17482TIP3    H273862   6.051   4.869  13.946  0.2550  1.7816 -0.0588
17483TIP3   OH273863   5.823   5.093  15.016  0.0917 -0.0246  0.0449
17483TIP3    H173864   5.876   5.172  15.015  1.4807 -0.8371  2.2068
17483TIP3    H273865   5.747   5.115  15.070 -1.1351  0.6838 -1.8492
17484TIP3   OH273866   0.594   4.204   1.741 -0.2962 -0.3796 -0.0636
17484TIP3    H173867   0.576   4.159   1.824 -0.8881 -2.0367 -1.0300
17484TIP3    H273868   0.681   4.173   1.715 -0.2011 -0.0330 -0.1535
17485TIP3   OH273869   6.767   6.517  12.830  0.0486 -0.1016  0.1267
17485TIP3    H173870   6.747   6.588  12.892 -0.2786 -0.2340  0.1717
17485TIP3    H273871   6.782   6.562  12.747 -0.1326  0.0223  0.1601
17486TIP3   OH273872   5.225   1.817   1.935 -0.2886 -0.8703  0.5848
17486TIP3    H173873   5.292   1.758   1.968  0.6784 -1.2989 -1.9372
17486TIP3    H273874   5.273   1.882   1.885 -1.5320  0.8138  1.4755
17487TIP3   OH273875   6.467   6.268  13.144 -0.0340 -0.0321  0.1464
17487TIP3    H173876   6.550   6.291  13.102  0.3740 -1.0151  0.3872
17487TIP3    H273877   6.492   6.243  13.233 -0.7409  0.8386  0.5925
17488TIP3   OH273878   4.461   3.702  12.039  0.2189  0.7578  0.5570
17488TIP3    H173879   4.502   3.684  12.124 -0.1367 -1.3891  0.3224
17488TIP3    H273880   4.368   3.686  12.054  0.2362 -0.3577 -0.3788
17489TIP3   OH273881   5.659   5.235  12.467 -0.4518 -0.1518  0.7222
17489TIP3    H173882   5.680   5.286  12.389  0.1816 -0.1413  0.8928
17489TIP3    H273883   5.640   5.147  12.433 -3.4493  0.5982  0.2227
17490TIP3   OH273884   6.316   4.120   5.387  0.2224 -0.4097  0.2863
17490TIP3    H173885   6.375   4.087   5.455 -0.0013 -1.8121 -0.1751
17490TIP3    H273886   6.296   4.044   5.333  1.0588  0.8083 -1.8813
17491TIP3   OH273887   0.672   5.708   3.794 -0.2818 -0.1850 -0.5812
17491TIP3    H173888   0.673   5.786   3.849 -1.2125  0.3597 -1.3102
17491TIP3    H273889   0.582   5.702   3.763  0.1172 -0.7428 -1.6710
17492TIP3   OH273890   6.299   5.759  16.353  0.1413 -0.3252  0.2259
17492TIP3    H173891   6.257   5.839  16.385  0.4841 -0.1602  0.2674
17492TIP3    H273892   6.381   5.790  16.314 -0.0709 -0.5706 -0.4253
17493TIP3   OH273893   0.097   3.559  13.336 -0.6322 -0.2981 -0.7175
17493TIP3    H173894   0.190   3.561  13.356 -0.4618 -0.6456 -1.4323
17493TIP3    H273895   0.055   3.532  13.417  0.0747 -2.1394 -0.9132
17494TIP3   OH273896   0.071   2.262  12.182  0.1916 -0.1158 -0.1047
17494TIP3    H173897   0.116   2.312  12.250  1.6447 -0.2641 -0.9203
17494TIP3    H273898   0.015   2.201  12.231  1.2635 -0.2841  0.9677
17495TIP3   OH273899   2.145   1.631  16.786 -0.3201 -0.7949 -0.0002
17495TIP3    H173900   2.240   1.617  16.779 -0.4997 -2.1700  0.0146
17495TIP3    H273901   2.112   1.616  16.698 -0.7262 -2.2064  0.3700
17496TIP3   OH273902   0.781   4.839   4.271 -0.2710  0.5099 -0.1420
17496TIP3    H173903   0.779   4.744   4.283 -0.3926  0.3675 -1.1730
17496TIP3    H273904   0.734   4.874   4.347  2.5208 -0.0340  2.0116
17497TIP3   OH273905   5.486   5.670   0.681  0.3934 -0.3314 -0.3306
17497TIP3    H173906   5.396   5.643   0.696  0.4874  0.2451  1.5986
17497TIP3    H273907   5.480   5.760   0.649  0.2380 -1.1328 -2.7436
17498TIP3   OH273908   5.544   2.488  14.981 -0.3586 -0.3548  0.2727
17498TIP3    H173909   5.637   2.476  15.000  0.0720 -1.0880 -1.8846
17498TIP3    H273910   5.512   2.399  14.965 -1.1653 -0.0265  0.0080
17499TIP3   OH273911   0.061   4.356  14.464 -0.4466 -0.2626 -0.2963
17499TIP3    H173912   0.146   4.382  14.500 -0.0550 -1.9421  0.0448
17499TIP3    H273913   0.000   4.422  14.498  0.5689  0.4582  0.1825
17500TIP3   OH273914   4.881   0.678   4.580  0.6456  0.2426  0.2152
17500TIP3    H173915   4.936   0.601   4.596  0.8446  0.6209  1.4432
17500TIP3    H273916   4.895   0.734   4.656 -1.3937  0.3820  0.5537
17501TIP3   OH273917   4.090   3.232   2.266  0.2967  0.0078  0.5034
17501TIP3    H173918   4.184   3.229   2.280  0.1198 -1.3540  1.6346
17501TIP3    H273919   4.077   3.302   2.202  2.0715  0.1362  0.2474
17502TIP3   OH273920   3.588   4.209   2.919  0.1828  1.1506 -0.0196
17502TIP3    H173921   3.616   4.185   3.007 -0.8331  0.2148  0.0661
17502TIP3    H273922   3.649   4.164   2.861 -1.0209 -0.8100  0.1637
17503TIP3   OH273923   2.376   1.547   6.136  0.2655  0.3479 -0.0235
17503TIP3    H173924   2.291   1.510   6.162  0.3976  0.3512  0.4170
17503TIP3    H273925   2.441   1.494   6.182  0.4863  0.5997 -0.0424
17504TIP3   OH273926   0.221   3.215   2.590  0.3894  0.3342 -0.3970
17504TIP3    H173927   0.199   3.308   2.586 -1.4751 -0.0375  0.4998
17504TIP3    H273928   0.249   3.193   2.501  0.3186  1.6229 -0.7533
17505TIP3   OH273929   2.684   4.783   5.674 -0.3416  0.8091 -0.3215
17505TIP3    H173930   2.773   4.752   5.657 -0.5776 -0.0193 -0.0876
17505TIP3    H273931   2.680   4.797   5.769 -0.8267 -0.3637 -0.1554
17506TIP3   OH273932   0.141   0.148   0.080 -0.3469 -0.1276 -0.0835
17506TIP3    H173933   0.229   0.113   0.064 -0.7512 -0.7699 -0.9601
17506TIP3    H273934   0.150   0.199   0.160  1.2606  1.3609 -1.1424
17507TIP3   OH273935   1.726   2.078   4.951 -0.1426 -0.2325 -0.0920
17507TIP3    H173936   1.742   2.122   5.034 -0.4678 -0.2340 -0.0275
17507TIP3    H273937   1.729   2.148   4.885  1.4527 -0.4215 -0.2436
17508TIP3   OH273938   5.890   3.805   5.637 -0.3557 -0.3444  0.2752
17508TIP3    H173939   5.883   3.732   5.698  1.4518 -0.6366  0.1856
17508TIP3    H273940   5.839   3.778   5.561  0.0517 -1.3819  0.3601
17509TIP3   OH273941   0.981   4.666   1.619  0.3335 -0.6462 -0.2094
17509TIP3    H173942   1.005   4.692   1.709 -0.0908 -1.0992  0.0385
17509TIP3    H273943   0.966   4.572   1.625 -0.3491 -0.5676 -0.6137
17510TIP3   OH273944   1.523   1.038  12.355  0.2444 -0.2157  0.5198
17510TIP3    H173945   1.490   0.950  12.338 -0.8897  0.3036 -0.1337
17510TIP3    H273946   1.618   1.029  12.351  0.2805 -0.6719 -4.1752
17511TIP3   OH273947   0.300   5.770  11.097 -1.1375  0.3261 -0.2685
17511TIP3    H173948   0.239   5.777  11.023 -1.9723  0.4387  0.4153
17511TIP3    H273949   0.248   5.796  11.173 -0.2321  0.4076  0.3358
17512TIP3   OH273950   2.025   4.314   6.250  0.0181  0.6136 -0.1673
17512TIP3    H173951   2.071   4.240   6.211 -1.5306 -0.5484  0.1356
17512TIP3    H273952   2.045   4.308   6.343  0.3810  0.9481 -0.2208
17513TIP3   OH273953   6.392   0.932   5.514  0.0480 -0.2225  0.0649
17513TIP3    H173954   6.405   0.989   5.437  2.4038 -0.4745  0.2279
17513TIP3    H273955   6.321   0.974   5.562 -0.9498  0.3842 -1.8244
17514TIP3   OH273956   0.842   5.383  14.701  0.2599  0.3559 -0.6667
17514TIP3    H173957   0.750   5.362  14.721  0.2533  1.4711  0.6129
17514TIP3    H273958   0.840   5.415  14.611 -0.6773  0.6919 -0.5400
17515TIP3   OH273959   4.551   0.491  12.572 -0.2005  0.3036  0.3912
17515TIP3    H173960   4.506   0.414  12.538 -0.5912  1.4878 -1.9359
17515TIP3    H273961   4.636   0.458  12.601 -0.4027 -1.0120 -0.4305
17516TIP3   OH273962   4.574   3.916   5.692 -0.1320 -0.5191 -0.0437
17516TIP3    H173963   4.580   3.940   5.599 -0.5350 -0.0481  0.0474
17516TIP3    H273964   4.662   3.887   5.715  0.2990  0.5773 -0.2394
17517TIP3   OH273965   4.722   5.008   3.489 -0.1128  0.2190  0.2170
17517TIP3    H173966   4.690   5.064   3.559 -0.8508 -0.5060  0.4781
17517TIP3    H273967   4.644   4.959   3.460  0.4330 -0.3870 -0.2559
17518TIP3   OH273968   0.443   5.005  11.315 -0.1747 -0.0014 -0.0780
17518TIP3    H173969   0.371   5.068  11.315  0.0693  0.2776  0.5199
17518TIP3    H273970   0.467   4.995  11.407 -0.8238 -1.6823 -0.0489
17519TIP3   OH273971   3.720   0.338   5.432 -0.2882  0.2331 -0.1414
17519TIP3    H173972   3.708   0.427   5.401 -0.1067  0.7686  1.2662
17519TIP3    H273973   3.637   0.295   5.415 -0.5022  0.7755 -0.4833
17520TIP3   OH273974   5.261   5.698  10.438  0.2488  0.1477  0.2298
17520TIP3    H173975   5.329   5.654  10.489  0.9117 -0.3293 -1.0012
17520TIP3    H273976   5.179   5.663  10.470  0.6895 -0.6764  0.4763
17521TIP3   OH273977   4.969   6.538   1.068 -0.0947  0.2297 -0.2180
17521TIP3    H173978   4.953   6.617   1.120 -0.4483  0.4082 -0.5875
17521TIP3    H273979   5.028   6.567   0.998 -1.7142  0.6273 -1.4627
17522TIP3   OH273980   5.354   1.390  12.808 -0.6603  0.8761  0.3840
17522TIP3    H173981   5.442   1.376  12.773 -0.8187  1.0947 -0.1166
17522TIP3    H273982   5.351   1.337  12.888 -0.9171 -1.1990 -0.9209
17523TIP3   OH273983   4.510   5.808  11.203  0.0457  0.0504  0.0266
17523TIP3    H173984   4.492   5.857  11.123  0.7983  1.5246  0.7067
17523TIP3    H273985   4.601   5.782  11.195 -0.3122 -1.1784 -0.2658
17524TIP3   OH273986   4.358   1.004  11.460 -0.1464  0.3515 -0.1226
17524TIP3    H173987   4.271   1.020  11.496 -0.2732 -1.8608  0.7189
17524TIP3    H273988   4.348   1.015  11.365 -1.1782  0.7021  0.0230
17525TIP3   OH273989   0.351   4.372  16.461  0.2875 -0.0035  0.4161
17525TIP3    H173990   0.302   4.355  16.541 -0.0145 -0.5722  0.1168
17525TIP3    H273991   0.443   4.373  16.489  0.5476 -3.9570  0.2541
17526TIP3   OH273992   6.411   5.158   4.134  0.3443 -0.3025 -0.2353
17526TIP3    H173993   6.445   5.115   4.213  0.1312  0.8959  0.5218
17526TIP3    H273994   6.487   5.203   4.096 -0.0943  1.3816  0.8024
17527TIP3   OH273995   4.825   3.254   1.767 -0.0063 -0.2451  0.1320
17527TIP3    H173996   4.820   3.207   1.683 -1.3300 -0.2667  0.1992
17527TIP3    H273997   4.761   3.210   1.823  0.1973  0.3619  0.8555
17528TIP3   OH273998   0.524   3.702  16.042  0.0860 -0.1215 -0.1150
17528TIP3    H173999   0.448   3.731  15.992 -0.6461 -0.0073  1.0367
17528TIP3    H274000   0.590   3.770  16.028 -0.2021  0.0462 -0.6831
17529TIP3   OH274001   5.139   1.520   2.349  0.1370 -0.2322  0.1926
17529TIP3    H174002   5.223   1.564   2.357  0.9658 -1.9516  1.6112
17529TIP3    H274003   5.137   1.485   2.260 -0.1526  1.7878 -0.6509
17530TIP3   OH274004   4.465   5.209  14.468 -0.2733  0.2426 -0.8013
17530TIP3    H174005   4.554   5.194  14.437 -0.4820  0.9468 -1.8064
17530TIP3    H274006   4.417   5.235  14.390 -1.4797 -0.5771 -0.3516
17531TIP3   OH274007   4.919   6.675   2.157 -0.0374  0.0332 -0.3449
17531TIP3    H174008   4.829   6.662   2.128  0.4038 -0.2957 -1.6386
17531TIP3    H274009   4.940   6.764   2.131 -0.3300  0.5086  0.9671
17532TIP3   OH274010   0.216   3.651   0.819 -0.2650 -0.4734 -0.2886
17532TIP3    H174011   0.265   3.688   0.892  0.4030 -1.1479 -0.3877
17532TIP3    H274012   0.282   3.627   0.754 -0.6754 -1.5774 -0.3359
17533TIP3   OH274013   4.899   2.242  13.704  0.0799  0.0610  0.1177
17533TIP3    H174014   4.909   2.248  13.799 -2.4765 -0.5735  0.5053
17533TIP3    H274015   4.953   2.167  13.679  0.0449 -0.3486  1.2189
17534TIP3   OH274016   3.784   4.896  16.150 -0.0233 -0.0253 -0.0412
17534TIP3    H174017   3.838   4.948  16.090 -1.9646 -0.2744 -2.1388
17534TIP3    H274018   3.740   4.961  16.205 -0.6883  0.4386 -1.0968
17535TIP3   OH274019   0.018   0.766  11.218  0.0655  0.1932 -0.4005
17535TIP3    H174020  -0.048   0.787  11.153 -2.0599 -1.7298  0.9888
17535TIP3    H274021   0.088   0.830  11.203 -2.1126  2.3782 -1.9022
17536TIP3   OH274022   2.759   6.294  14.087 -0.2480  0.2346 -0.1937
17536TIP3    H174023   2.665   6.303  14.071 -0.2574  3.5374  0.9589
17536TIP3    H274024   2.765   6.224  14.153 -1.5906 -1.7684 -2.0725
17537TIP3   OH274025   2.686   4.752   2.555  0.4500  0.1781 -0.2075
17537TIP3    H174026   2.690   4.815   2.483  0.0221 -1.2045 -1.4986
17537TIP3    H274027   2.771   4.709   2.554 -0.6238 -2.1226 -2.1175
17538TIP3   OH274028   4.483   3.116   1.596  0.5246 -0.4779  0.3533
17538TIP3    H174029   4.395   3.096   1.566  0.4790  1.3713 -0.8867
17538TIP3    H274030   4.531   3.143   1.518  1.3425  1.3512  1.4072
17539TIP3   OH274031   5.371   1.992  11.752  0.0772  0.0868  0.3034
17539TIP3    H174032   5.428   2.009  11.677  0.9979 -1.4142  0.6352
17539TIP3    H274033   5.390   1.902  11.778 -0.5190  0.4307  2.0961
17540TIP3   OH274034   3.089   4.433   0.155  0.1710 -0.6732  0.1248
17540TIP3    H174035   3.140   4.393   0.085  0.6710  0.1898 -0.0153
17540TIP3    H274036   3.152   4.485   0.205 -0.5746  0.5506 -0.1528
17541TIP3   OH274037   5.177   2.936   2.354 -0.0970 -0.0265 -0.0523
17541TIP3    H174038   5.176   2.859   2.297 -0.9671 -1.0682  1.3205
17541TIP3    H274039   5.252   2.987   2.323  1.2038 -1.9760 -0.2943
17542TIP3   OH274040   1.525   3.724   0.993 -0.4325 -0.0769 -0.2760
17542TIP3    H174041   1.611   3.725   0.950 -1.0046 -0.6358 -1.4692
17542TIP3    H274042   1.491   3.813   0.981  0.2182  0.3319  0.7465
17543TIP3   OH274043   5.684   4.507  12.905 -0.3713 -0.3644 -0.3849
17543TIP3    H174044   5.710   4.461  12.985  0.6373  1.2622  0.2811
17543TIP3    H274045   5.689   4.441  12.836 -0.5656 -1.6315  0.7775
17544TIP3   OH274046   1.836   1.699  12.177 -0.1848  0.0838 -0.2457
17544TIP3    H174047   1.888   1.647  12.238  0.3024 -0.2557 -0.9424
17544TIP3    H274048   1.822   1.642  12.102  0.1237  0.8556 -0.9101
17545TIP3   OH274049   6.404   4.025  11.985 -0.3201  0.6364  0.2811
17545TIP3    H174050   6.324   4.009  11.935 -0.5494  1.5355  0.3386
17545TIP3    H274051   6.384   3.995  12.074  0.3500 -1.7089 -0.2756
17546TIP3   OH274052   6.226   6.441  14.164  0.1427  0.3547 -0.2374
17546TIP3    H174053   6.292   6.373  14.149 -0.4946 -0.5503  0.9325
17546TIP3    H274054   6.175   6.410  14.239 -2.8169  0.0716 -2.1729
17547TIP3   OH274055   6.330   1.085  12.853  0.1062  0.0776 -0.4231
17547TIP3    H174056   6.396   1.127  12.907 -0.7306  0.1736  0.5392
17547TIP3    H274057   6.250   1.133  12.870 -0.2628 -0.1459 -1.4505
17548TIP3   OH274058   4.549   1.616   2.129  0.4653 -0.4933  0.3827
17548TIP3    H174059   4.622   1.556   2.146  1.0780 -0.4477 -1.7531
17548TIP3    H274060   4.483   1.561   2.086  0.4028  0.0224 -0.1979
17549TIP3   OH274061   4.164   3.477  10.665 -0.2431  0.2425  0.3482
17549TIP3    H174062   4.235   3.514  10.718 -0.8961 -0.9676  2.1593
17549TIP3    H274063   4.171   3.522  10.581  1.4712  1.5191  1.1143
17550TIP3   OH274064   6.635   3.617  15.508  0.5025 -0.5216  0.0828
17550TIP3    H174065   6.615   3.617  15.602  0.5721  1.4054  0.1513
17550TIP3    H274066   6.723   3.579  15.502  1.0236  0.4769  0.9731
17551TIP3   OH274067   5.103   3.348  13.049  0.1831  0.5383  0.3020
17551TIP3    H174068   5.095   3.441  13.029  1.9066  0.3806 -1.3986
17551TIP3    H274069   5.093   3.304  12.965 -0.7651 -0.8729  1.0931
17552TIP3   OH274070   0.262   3.870  14.903  0.1216 -0.8410  0.3707
17552TIP3    H174071   0.245   3.889  14.995 -1.1318  2.3941 -0.3696
17552TIP3    H274072   0.176   3.848  14.867 -0.0816  1.1978 -0.5729
17553TIP3   OH274073   6.007   0.973  12.900  0.2684  0.3420 -0.5348
17553TIP3    H174074   6.028   0.946  12.990 -1.0213  1.9946  0.3233
17553TIP3    H274075   5.927   0.925  12.878 -0.0430  0.7695 -0.3551
17554TIP3   OH274076   3.204   1.865   0.365  0.3354  0.3580  0.1411
17554TIP3    H174077   3.257   1.854   0.445  0.8806 -0.2128 -0.2902
17554TIP3    H274078   3.248   1.810   0.300 -1.1865 -0.6720 -0.0538
17555TIP3   OH274079   5.522   6.064  10.834  0.1958  0.4792  0.5540
17555TIP3    H174080   5.603   6.059  10.784  1.1905  1.4717  1.9956
17555TIP3    H274081   5.504   5.973  10.858  1.0067  0.2634  0.3864
17556TIP3   OH274082   3.383   1.525   2.848 -0.2930  0.1281 -0.3964
17556TIP3    H174083   3.469   1.566   2.850 -0.1368 -0.1909 -0.5501
17556TIP3    H274084   3.340   1.555   2.928  0.7215 -1.3455  0.7602
17557TIP3   OH274085   5.477   2.682  14.802 -0.3055  0.2590  0.2514
17557TIP3    H174086   5.496   2.624  14.876  3.1175  1.4040  0.4051
17557TIP3    H274087   5.420   2.750  14.839 -0.9463 -0.6854  1.0738
17558TIP3   OH274088   5.948   0.812   1.606 -0.0387  0.0192 -0.4037
17558TIP3    H174089   5.941   0.884   1.543 -0.0197 -1.1500 -1.7868
17558TIP3    H274090   5.953   0.856   1.691 -2.4171  1.6164 -0.9685
17559TIP3   OH274091   1.682   1.893   0.678 -0.0068 -0.3715 -0.0483
17559TIP3    H174092   1.755   1.869   0.735 -1.2656  1.0448  2.3008
17559TIP3    H274093   1.607   1.846   0.713 -0.6046 -0.4922 -1.3974
17560TIP3   OH274094   3.138   4.336   2.819  0.5527 -0.4616  0.0860
17560TIP3    H174095   3.140   4.244   2.845  0.1815 -0.1487  1.3103
17560TIP3    H274096   3.063   4.372   2.867 -0.4201  0.0936 -1.7520
17561TIP3   OH274097   1.493   0.162   5.587  0.2655 -0.6723 -0.7925
17561TIP3    H174098   1.422   0.197   5.640  0.7191 -1.8476  0.6416
17561TIP3    H274099   1.472   0.190   5.498 -1.9380 -0.9022 -0.4030
17562TIP3   OH274100   3.197   1.545   6.269 -0.0620 -0.4035  0.6439
17562TIP3    H174101   3.261   1.590   6.324  0.0891  1.0173 -0.6201
17562TIP3    H274102   3.114   1.552   6.316 -0.2131  1.9880  0.1384
17563TIP3   OH274103   1.395   3.383  16.209 -0.4489  0.0588 -0.1224
17563TIP3    H174104   1.310   3.340  16.198 -0.1758 -0.8834  1.0950
17563TIP3    H274105   1.457   3.323  16.167 -0.3850  0.8145 -1.1351
17564TIP3   OH274106   6.039   0.159   6.310  0.1493 -0.1408  0.2565
17564TIP3    H174107   6.125   0.142   6.348 -0.8298 -0.2810  2.5930
17564TIP3    H274108   6.015   0.078   6.266  0.8652 -0.4036  0.3488
17565TIP3   OH274109   0.012   2.320  10.494 -0.4510  1.2136 -0.4205
17565TIP3    H174110  -0.064   2.307  10.551  1.6178  0.2257  2.3133
17565TIP3    H274111   0.032   2.233  10.460 -0.1055  1.3210 -0.4987
17566TIP3   OH274112   1.958   1.275  14.197  0.1247  0.3904 -0.2770
17566TIP3    H174113   1.967   1.209  14.128  0.8593  0.2312 -0.0340
17566TIP3    H274114   1.891   1.335  14.164 -2.3201 -1.7404  0.4836
17567TIP3   OH274115   0.321   3.306  13.920 -0.0026  0.2595  0.1060
17567TIP3    H174116   0.375   3.289  13.843  0.4373  0.5465  0.3467
17567TIP3    H274117   0.375   3.363  13.975 -0.3815  0.2007  0.5449
17568TIP3   OH274118   3.733   0.884   5.161 -0.1088  0.0983  0.1739
17568TIP3    H174119   3.667   0.858   5.097  0.3562  1.4655 -0.9252
17568TIP3    H274120   3.817   0.868   5.118  0.2075  1.8058  0.0501
17569TIP3   OH274121   1.916   3.416  14.689  0.2768 -0.0523  0.0858
17569TIP3    H174122   1.829   3.386  14.662 -1.4638  2.9917  1.8131
17569TIP3    H274123   1.952   3.343  14.739 -1.5928 -1.1528 -0.0806
17570TIP3   OH274124   0.217   0.316  13.839  0.4789 -0.7531  0.5458
17570TIP3    H174125   0.250   0.346  13.924  0.6744 -0.3789  0.3422
17570TIP3    H274126   0.135   0.272  13.859 -0.3599  0.8050  0.7618
17571TIP3   OH274127   3.528   2.472   1.640  0.3938 -0.2434  0.0748
17571TIP3    H174128   3.467   2.546   1.639 -0.6582 -1.0619 -1.7642
17571TIP3    H274129   3.480   2.402   1.683  0.0831 -0.8099 -1.1412
17572TIP3   OH274130   1.778   6.416   5.837 -0.5824  0.0461  0.4510
17572TIP3    H174131   1.819   6.491   5.881 -0.1585  0.3997 -0.5291
17572TIP3    H274132   1.752   6.358   5.909  0.2155  0.5477  1.1655
17573TIP3   OH274133   0.876   3.277  12.890  0.1603  0.2539 -0.0540
17573TIP3    H174134   0.871   3.201  12.833  0.4237 -0.7043  1.1475
17573TIP3    H274135   0.960   3.318  12.868  1.3605 -1.4221  1.1783
17574TIP3   OH274136   4.341   1.874  11.968 -0.0869 -0.0835 -0.1088
17574TIP3    H174137   4.383   1.917  11.894 -1.4327  0.2298 -0.7289
17574TIP3    H274138   4.410   1.866  12.034  0.9868  0.1673 -1.1640
17575TIP3   OH274139   4.910   3.943   5.879 -0.4606  0.3367 -0.7181
17575TIP3    H174140   4.999   3.907   5.867 -0.0333  0.2378  2.0620
17575TIP3    H274141   4.919   4.003   5.954 -2.7435  0.3190 -0.3807
17576TIP3   OH274142   3.171   2.571   5.532  0.1569  0.0555  0.1217
17576TIP3    H174143   3.223   2.529   5.464  1.1596  1.0619  0.2414
17576TIP3    H274144   3.080   2.556   5.505  0.5249 -0.5066 -0.8513
17577TIP3   OH274145   0.678   0.789  14.469 -0.1070  0.0918 -0.5902
17577TIP3    H174146   0.773   0.781  14.461  0.1563  1.0750  1.0899
17577TIP3    H274147   0.659   0.879  14.442 -0.3446  0.3986  0.5580
17578TIP3   OH274148   4.545   2.586   4.461 -0.3142  0.0828 -0.2999
17578TIP3    H174149   4.462   2.542   4.441  0.4535 -1.7862  0.3620
17578TIP3    H274150   4.611   2.537   4.413  0.8132 -0.7705  1.9435
17579TIP3   OH274151   1.350   2.173  12.052  0.7310 -0.2976 -0.5095
17579TIP3    H174152   1.358   2.240  11.985 -1.0976  1.1882  0.6541
17579TIP3    H274153   1.297   2.105  12.011 -0.1546  0.4743 -0.6754
17580TIP3   OH274154   4.923   1.251   3.396  0.2716  0.2083 -0.2557
17580TIP3    H174155   4.961   1.243   3.484 -0.7823  1.8023  0.3936
17580TIP3    H274156   4.829   1.238   3.408  0.2283 -0.5975 -1.3306
17581TIP3   OH274157   1.109   3.759   3.058  0.1063 -0.4130  0.5249
17581TIP3    H174158   1.038   3.806   3.102 -1.2724 -0.4749 -1.5345
17581TIP3    H274159   1.123   3.806   2.976  0.9867 -1.6592 -0.0716
17582TIP3   OH274160   4.832   3.254  16.272 -0.1734 -0.4372 -0.0128
17582TIP3    H174161   4.771   3.181  16.273  0.3991 -0.9195  1.0267
17582TIP3    H274162   4.836   3.283  16.364  0.3083  0.3090 -0.2599
17583TIP3   OH274163   2.241   5.879   3.767 -0.5138 -0.4309 -0.4942
17583TIP3    H174164   2.211   5.952   3.712 -0.2723 -0.8622 -1.2043
17583TIP3    H274165   2.175   5.874   3.837 -0.1037  0.9777  0.0405
17584TIP3   OH274166   0.486   5.329  12.292 -0.0565 -0.6777  0.4154
17584TIP3    H174167   0.523   5.417  12.281 -2.9078  0.3704 -3.1049
17584TIP3    H274168   0.557   5.270  12.270  0.7147  1.0474 -2.2713
17585TIP3   OH274169   3.477   3.210   5.654 -0.4676  0.2344 -0.2869
17585TIP3    H174170   3.388   3.235   5.629 -0.5194 -1.3069 -1.8144
17585TIP3    H274171   3.520   3.293   5.675 -2.2417  1.0079  0.4803
17586TIP3   OH274172   3.103   5.050   3.198 -0.1142 -0.3248 -0.4933
17586TIP3    H174173   3.141   5.049   3.286 -2.7173  0.6143  0.7668
17586TIP3    H274174   3.056   4.967   3.191 -2.0059  0.6407  0.0910
17587TIP3   OH274175   3.713   1.436  15.328  0.0971 -0.1628  0.5315
17587TIP3    H174176   3.798   1.477  15.315 -1.1306  2.4307  0.1603
17587TIP3    H274177   3.672   1.487  15.398 -0.8697 -1.8892  1.2969
17588TIP3   OH274178   2.936   6.710   1.018 -0.2417 -1.1885 -0.3640
17588TIP3    H174179   2.993   6.653   0.966 -0.1563 -1.3322 -0.1137
17588TIP3    H274180   2.868   6.737   0.957  0.0913 -1.0161 -0.6668
17589TIP3   OH274181   0.534   1.352  12.326 -0.2213  0.1306 -0.7394
17589TIP3    H174182   0.587   1.273  12.341 -0.4650 -0.1356 -1.2437
17589TIP3    H274183   0.464   1.322  12.267 -0.8957  0.4859 -0.1405
17590TIP3   OH274184   2.051   3.275  12.866 -0.6094 -0.6664  0.4546
17590TIP3    H174185   1.966   3.289  12.907 -2.1326 -0.9424 -2.3788
17590TIP3    H274186   2.062   3.350  12.808  1.2392 -0.5200  0.9230
17591TIP3   OH274187   5.817   2.994  16.627  0.1431  0.4943  0.5489
17591TIP3    H174188   5.741   2.938  16.610 -0.8704  2.0749 -0.3383
17591TIP3    H274189   5.780   3.082  16.635  1.7457  1.1149  1.5158
17592TIP3   OH274190   0.726   4.883   1.725 -0.7593  0.4804 -0.2294
17592TIP3    H174191   0.797   4.861   1.785 -0.9328  0.0768 -0.1636
17592TIP3    H274192   0.657   4.917   1.782 -1.4756 -1.2576 -0.0035
17593TIP3   OH274193   3.213   1.231  15.890 -0.1410  0.2375 -0.2741
17593TIP3    H174194   3.177   1.287  15.959  1.4013  0.0442  0.7333
17593TIP3    H274195   3.274   1.288  15.843  1.0769 -0.4292  0.4549
17594TIP3   OH274196   5.019   1.632  13.097  0.0115 -0.2187  0.0744
17594TIP3    H174197   5.058   1.548  13.123 -0.8963 -0.9621 -0.9065
17594TIP3    H274198   5.063   1.653  13.015 -0.8131 -0.5022 -0.4551
17595TIP3   OH274199   1.542   5.255   3.443  0.1421 -0.1402 -0.6249
17595TIP3    H174200   1.557   5.171   3.486  3.1101  0.3543 -0.4718
17595TIP3    H274201   1.558   5.321   3.511  0.7119  0.5688 -1.4221
17596TIP3   OH274202   3.075   5.158  16.640 -0.4089  0.0517 -0.0005
17596TIP3    H174203   3.092   5.099  16.713  0.0117  0.9224  0.6222
17596TIP3    H274204   3.020   5.108  16.581  0.0480 -1.0064  0.4503
17597TIP3   OH274205   3.923   2.312  16.155  0.0801 -0.5979  0.0053
17597TIP3    H174206   3.916   2.249  16.227  0.9920 -0.4171  0.2621
17597TIP3    H274207   3.928   2.397  16.198 -1.2447 -0.3216 -0.3433
17598TIP3   OH274208   4.437   6.208  12.703  0.0935  0.1763 -0.9086
17598TIP3    H174209   4.425   6.302  12.715 -2.3683 -0.0838 -0.8577
17598TIP3    H274210   4.395   6.189  12.619 -1.3267 -1.1623  0.0548
17599TIP3   OH274211   3.032   5.902   5.114  0.0736 -0.3696 -0.0775
17599TIP3    H174212   3.063   5.883   5.202  0.7952 -0.4965 -0.3463
17599TIP3    H274213   3.079   5.840   5.058  0.1188  0.1363 -0.6184
17600TIP3   OH274214   0.816   4.777   2.815  0.1293 -0.2002 -0.1308
17600TIP3    H174215   0.721   4.783   2.822  0.1841  2.0502 -0.3201
17600TIP3    H274216   0.833   4.689   2.783 -1.8656 -0.7506  0.2072
17601TIP3   OH274217   2.643   6.323   3.266  0.2186  0.2282 -0.2901
17601TIP3    H174218   2.693   6.243   3.283  0.9384  0.8574  0.6215
17601TIP3    H274219   2.568   6.317   3.325  1.6632  1.4470  1.8223
17602TIP3   OH274220   1.220   2.903  14.032 -0.3577 -0.3409  0.0623
17602TIP3    H174221   1.142   2.915  14.087 -0.6916  0.0589 -0.4969
17602TIP3    H274222   1.189   2.852  13.957 -0.7268  2.1046 -1.5489
17603TIP3   OH274223   4.417   5.370  16.217 -0.2854  0.3028  0.1035
17603TIP3    H174224   4.384   5.403  16.134 -0.0670  0.2180 -0.0160
17603TIP3    H274225   4.421   5.275  16.206 -2.2528  0.0683  0.9070
17604TIP3   OH274226   1.013   5.230   1.209 -0.0138  0.1737 -0.2493
17604TIP3    H174227   0.929   5.206   1.247  0.7619  0.2536  1.6394
17604TIP3    H274228   0.993   5.300   1.148 -1.3169  0.1836  0.1654
17605TIP3   OH274229   3.963   3.649  10.765 -0.5774 -0.0451  0.2178
17605TIP3    H174230   4.011   3.582  10.716 -0.3057  0.8415 -0.7618
17605TIP3    H274231   3.928   3.602  10.841  2.7541 -0.5199  1.6190
17606TIP3   OH274232   1.846   0.506   2.670 -0.4282  0.4679  0.0171
17606TIP3    H174233   1.810   0.591   2.695 -1.3225 -0.2593  1.2859
17606TIP3    H274234   1.776   0.463   2.622 -0.5138 -0.1240  0.6600
17607TIP3   OH274235   4.715   0.748  15.520 -0.1140  0.7096  0.2148
17607TIP3    H174236   4.743   0.832  15.555  1.0067  0.6644 -0.4852
17607TIP3    H274237   4.713   0.689  15.595  0.7784  0.9647  0.4505
17608TIP3   OH274238   5.385   1.585   2.403 -0.1880  0.2151 -0.0950
17608TIP3    H174239   5.360   1.572   2.495 -0.1315  0.0811 -0.0979
17608TIP3    H274240   5.480   1.588   2.404 -0.1549 -0.5472 -0.2427
17609TIP3   OH274241   6.419   0.444   2.763 -0.4961  0.0497 -0.4331
17609TIP3    H174242   6.363   0.436   2.841 -0.8057 -1.6823 -0.7825
17609TIP3    H274243   6.498   0.395   2.785 -0.1195  0.4864 -0.8053
17610TIP3   OH274244   4.254   5.522   0.571 -0.8566 -0.2603 -0.2667
17610TIP3    H174245   4.281   5.447   0.623 -1.2069  0.5051  1.0636
17610TIP3    H274246   4.337   5.562   0.542 -0.6122  0.0716  0.8503
17611TIP3   OH274247   4.095   6.546   2.915  0.4904  0.4951 -1.1317
17611TIP3    H174248   4.103   6.499   2.998 -0.2558  0.9413 -0.7985
17611TIP3    H274249   4.134   6.487   2.850 -1.1489 -0.9594 -0.8566
17612TIP3   OH274250   0.695   1.122   3.507 -0.5543 -0.0682  0.4800
17612TIP3    H174251   0.689   1.135   3.601 -2.8367 -2.1718  0.7301
17612TIP3    H274252   0.650   1.198   3.470  0.1164  0.6320  1.0612
17613TIP3   OH274253   0.704   3.340  10.931  0.3544 -0.1174  0.0494
17613TIP3    H174254   0.616   3.347  10.894 -0.0457 -0.0671  0.9737
17613TIP3    H274255   0.708   3.411  10.995  2.3390  2.1692 -2.4057
17614TIP3   OH274256   2.973   4.021   3.510  0.6042 -0.2599 -0.1762
17614TIP3    H174257   2.888   4.053   3.480  0.1921 -1.4738 -0.3638
17614TIP3    H274258   2.958   3.929   3.530  1.5601 -0.1706  1.0831
17615TIP3   OH274259   3.351   4.147  11.571  0.7203  0.3974  0.1040
17615TIP3    H174260   3.416   4.134  11.502 -0.3843  1.6169 -1.2285
17615TIP3    H274261   3.388   4.103  11.647  1.7149 -1.5244 -1.4022
17616TIP3   OH274262   6.352   0.708  11.628  0.6085 -0.2581 -0.3493
17616TIP3    H174263   6.420   0.774  11.639  2.0613 -1.4232 -1.7458
17616TIP3    H274264   6.293   0.744  11.562  1.1415 -0.1481 -0.7723
17617TIP3   OH274265   1.391   6.112   3.768  0.1645 -0.4508 -0.2087
17617TIP3    H174266   1.322   6.055   3.733 -0.0639 -0.4582  0.2347
17617TIP3    H274267   1.379   6.107   3.863 -0.4141  0.9985 -0.1733
17618TIP3   OH274268   1.391   2.953   1.728 -0.8817 -0.6716  0.0137
17618TIP3    H174269   1.455   2.895   1.768 -1.5680 -0.2355  1.8592
17618TIP3    H274270   1.321   2.960   1.793 -2.4923 -0.5961 -1.6450
17619TIP3   OH274271   1.934   3.422  15.437  0.6726 -0.8211  0.2754
17619TIP3    H174272   1.973   3.413  15.350 -0.1452 -0.4732 -0.1353
17619TIP3    H274273   1.982   3.360  15.491  0.7991 -1.4697 -0.5607
17620TIP3   OH274274   5.491   2.193   4.804  0.7225 -0.1121  0.7079
17620TIP3    H174275   5.531   2.279   4.820  1.4216 -0.5831  1.5626
17620TIP3    H274276   5.556   2.130   4.834  0.1504 -0.9506  0.2409
17621TIP3   OH274277   2.050   4.397   1.260 -0.3706 -0.6184 -0.0702
17621TIP3    H174278   2.040   4.320   1.316 -1.1948 -0.0468  0.6018
17621TIP3    H274279   2.073   4.467   1.320  0.5782 -0.3775 -0.7080
17622TIP3   OH274280   1.453   2.614  12.932 -0.0971  0.0973  0.2785
17622TIP3    H174281   1.487   2.703  12.926 -1.1781  0.4712 -0.9743
17622TIP3    H274282   1.420   2.595  12.844 -2.3090 -0.5118  1.1528
17623TIP3   OH274283   6.159   2.952   3.601 -0.0469  0.2125 -0.3256
17623TIP3    H174284   6.181   3.014   3.531  2.1582 -0.7960 -0.5949
17623TIP3    H274285   6.105   2.885   3.558  0.8540 -0.1217 -0.9476
17624TIP3   OH274286   2.457   0.656  13.867 -0.0570  0.3920 -0.1002
17624TIP3    H174287   2.413   0.740  13.878 -0.4719  0.5625 -2.5086
17624TIP3    H274288   2.423   0.621  13.784  0.5357 -1.8928  0.5276
17625TIP3   OH274289   4.379   6.800   0.370  0.0306 -0.1218 -0.0186
17625TIP3    H174290   4.298   6.833   0.330 -1.0273 -1.1488  1.1809
17625TIP3    H274291   4.369   6.705   0.371  1.2181 -0.2568  0.2326
17626TIP3   OH274292   0.052   3.247  15.058 -0.4369  0.6123 -0.0573
17626TIP3    H174293   0.007   3.332  15.060 -1.4875  0.0715 -0.2968
17626TIP3    H274294   0.048   3.220  14.966 -0.0210  0.3375  0.0034
17627TIP3   OH274295   0.794   0.231  13.492  0.4677  0.5575 -0.3751
17627TIP3    H174296   0.845   0.171  13.546  0.0689  0.0868 -0.5190
17627TIP3    H274297   0.755   0.292  13.554 -0.7115 -0.5081 -0.0172
17628TIP3   OH274298   5.248   1.214   2.808  0.2267 -0.0508  0.0817
17628TIP3    H174299   5.272   1.121   2.799  1.3587  0.2369 -0.1013
17628TIP3    H274300   5.193   1.232   2.732  2.3034  0.0996 -1.4829
17629TIP3   OH274301   6.533   1.855  15.146 -0.4213 -0.1736  0.5944
17629TIP3    H174302   6.513   1.948  15.145 -2.7640 -0.5956  2.1575
17629TIP3    H274303   6.532   1.829  15.054 -0.6793  1.1554  0.2071
17630TIP3   OH274304   4.795   6.778   2.597  0.0883 -0.4801 -0.4909
17630TIP3    H174305   4.848   6.831   2.657  0.4472  0.2411 -1.4198
17630TIP3    H274306   4.858   6.733   2.542 -0.1891 -2.4441  0.7068
17631TIP3   OH274307   0.898   2.312   0.825 -0.6147  0.8462  0.0471
17631TIP3    H174308   0.827   2.372   0.849 -1.1236 -0.0697  0.9417
17631TIP3    H274309   0.861   2.225   0.841  0.9243  0.3596  1.1965
17632TIP3   OH274310   4.038   4.012  12.857  0.6143  0.3663  0.6022
17632TIP3    H174311   4.064   3.962  12.934  0.7529 -0.2335  0.1718
17632TIP3    H274312   3.975   3.956  12.812 -2.7455  2.3442  2.3783
17633TIP3   OH274313   2.538   0.035  15.365 -0.1407  0.0924  0.4800
17633TIP3    H174314   2.459   0.067  15.408 -0.5329 -0.6796  0.3589
17633TIP3    H274315   2.599   0.109  15.368 -0.4780  0.3431  1.5471
17634TIP3   OH274316   0.875   1.168  14.943 -0.3045  0.5802  0.3954
17634TIP3    H174317   0.903   1.225  15.014 -1.0905  0.9876  0.3842
17634TIP3    H274318   0.950   1.165  14.883  0.0084  0.9992  0.7643
17635TIP3   OH274319   4.156   6.820  13.917 -0.6248  0.1610 -0.4441
17635TIP3    H174320   4.112   6.818  13.832 -1.4367 -2.2108 -0.0383
17635TIP3    H274321   4.093   6.859  13.976 -1.0993 -0.5948 -0.4373
17636TIP3   OH274322   1.776   3.196  10.773 -0.0159  0.4254  0.3541
17636TIP3    H174323   1.805   3.193  10.681 -0.5594  0.0760  0.1910
17636TIP3    H274324   1.772   3.289  10.794 -0.5737  0.5319 -0.2007
17637TIP3   OH274325   2.063   0.906   1.380 -0.0253  0.2303  0.6530
17637TIP3    H174326   2.027   0.835   1.433 -2.2218  1.4422  0.8646
17637TIP3    H274327   2.069   0.981   1.440  3.4015  0.0466  0.7725
17638TIP3   OH274328   0.650   1.370  14.061  0.1996  0.2470  0.0475
17638TIP3    H174329   0.577   1.332  14.013 -0.6716  0.3110  1.2587
17638TIP3    H274330   0.658   1.316  14.140  0.9287  0.7438  0.3301
17639TIP3   OH274331   5.145   1.633   4.284 -0.2698 -0.0689  0.3184
17639TIP3    H174332   5.156   1.644   4.378  0.6445  1.7739  0.0463
17639TIP3    H274333   5.054   1.659   4.267 -0.1627  0.5206  0.6014
17640TIP3   OH274334   4.833   5.127   2.270  0.0294  0.1642  0.0790
17640TIP3    H174335   4.784   5.203   2.301  1.9258  0.7347  1.8561
17640TIP3    H274336   4.875   5.156   2.189  2.1726  1.7188  1.6344
17641TIP3   OH274337   6.491   3.209   0.227  0.0179  0.4433  0.1943
17641TIP3    H174338   6.538   3.293   0.227 -0.6430  0.8420  1.2452
17641TIP3    H274339   6.429   3.217   0.300  0.1493 -1.0766  0.4942
17642TIP3   OH274340   5.358   5.690   0.272  0.0057 -0.1871  0.2630
17642TIP3    H174341   5.446   5.657   0.292 -0.3606  0.2195  2.8362
17642TIP3    H274342   5.353   5.774   0.317 -1.5549  0.0434 -0.2751
17643TIP3   OH274343   2.283   1.760  16.529  0.1575 -0.1394  0.4161
17643TIP3    H174344   2.205   1.802  16.565 -0.4908 -0.6179 -0.3995
17643TIP3    H274345   2.263   1.747  16.436  1.3462  0.0386  0.1179
17644TIP3   OH274346   3.231   6.810  10.269  0.1313  0.0451  0.0747
17644TIP3    H174347   3.192   6.870  10.333 -1.7257 -0.8846 -0.1238
17644TIP3    H274348   3.320   6.843  10.257 -0.4332  2.0200  0.8814
17645TIP3   OH274349   2.767   1.478   1.480 -0.1305  0.5735  0.4179
17645TIP3    H174350   2.699   1.412   1.494  1.7286 -1.5409  0.0891
17645TIP3    H274351   2.777   1.520   1.566 -0.8682 -0.0848  0.8400
17646TIP3   OH274352   4.856   2.586  15.986  0.1165 -0.2795 -0.1263
17646TIP3    H174353   4.806   2.662  15.957 -1.0076 -1.1078 -0.4044
17646TIP3    H274354   4.905   2.618  16.063 -0.8946  0.5310  0.2002
17647TIP3   OH274355   1.440   1.553   2.462 -0.3222 -0.2851 -0.2122
17647TIP3    H174356   1.399   1.545   2.548 -0.0739  1.3847  0.0922
17647TIP3    H274357   1.405   1.480   2.412 -1.5649 -0.4673  0.8705
17648TIP3   OH274358   5.837   3.821  13.005 -0.1471 -0.4226 -0.3338
17648TIP3    H174359   5.816   3.907  13.041 -2.5128 -0.3770 -1.6421
17648TIP3    H274360   5.764   3.766  13.032  1.1557 -1.9727  0.1772
17649TIP3   OH274361   0.577   1.883   1.683  0.4505  0.1596  0.2655
17649TIP3    H174362   0.606   1.966   1.645 -2.2103  2.2566  2.4186
17649TIP3    H274363   0.552   1.830   1.607 -0.5946  2.5028 -1.1663
17650TIP3   OH274364   6.317   2.925   5.342 -0.1287  0.3634 -0.2152
17650TIP3    H174365   6.263   2.918   5.420  1.1024 -1.6836  0.5348
17650TIP3    H274366   6.348   3.016   5.341 -3.1233  1.4752 -0.4504
17651TIP3   OH274367   6.763   5.783  12.281  0.0550 -0.0488  0.1081
17651TIP3    H174368   6.758   5.813  12.371 -1.7998  1.0714 -0.3024
17651TIP3    H274369   6.697   5.714  12.275  0.6573 -0.6069 -0.2317
17652TIP3   OH274370   1.894   1.742  13.603 -0.0154 -0.0120  0.0834
17652TIP3    H174371   1.918   1.817  13.657  0.0804 -0.9806  1.4357
17652TIP3    H274372   1.977   1.700  13.581 -0.0661  0.2726 -0.6891
17653TIP3   OH274373   6.233   4.026   1.145  0.2436 -0.4055 -0.1619
17653TIP3    H174374   6.194   3.945   1.179  1.2503 -0.7382  0.2199
17653TIP3    H274375   6.241   4.010   1.051 -1.8155  0.2178 -0.5134
17654TIP3   OH274376   1.814   0.250   1.200 -0.3197 -0.0514  0.4247
17654TIP3    H174377   1.860   0.167   1.207 -1.7029 -1.0080 -1.0672
17654TIP3    H274378   1.735   0.239   1.252 -0.3587  0.4582  0.4845
17655TIP3   OH274379   4.003   4.980   0.105 -0.4983  0.1033  0.0152
17655TIP3    H174380   4.056   4.912   0.064 -1.2473 -0.1463 -0.5459
17655TIP3    H274381   3.913   4.955   0.087 -0.8660  0.0119  1.7480
17656TIP3   OH274382   3.883   3.752  12.435 -0.9688  0.2461 -0.4107
17656TIP3    H174383   3.821   3.822  12.414 -0.1061  1.5772  1.1570
17656TIP3    H274384   3.885   3.751  12.531 -0.1059 -1.1974 -0.4148
17657TIP3   OH274385   6.681   1.852  10.568 -0.2783 -0.3866 -0.1799
17657TIP3    H174386   6.673   1.856  10.663  0.7683  1.2745 -0.1090
17657TIP3    H274387   6.720   1.767  10.550  1.6278  0.1542  1.0893
17658TIP3   OH274388   0.840   4.509   5.605  0.2377 -0.4554  0.6247
17658TIP3    H174389   0.785   4.545   5.675  0.7993  0.7802  0.4468
17658TIP3    H274390   0.894   4.582   5.577  1.1667 -1.3628 -0.0013
17659TIP3   OH274391   0.917   6.132   2.416  0.1399  0.1667 -0.1579
17659TIP3    H174392   1.010   6.127   2.437  0.4770 -1.3012 -1.8264
17659TIP3    H274393   0.913   6.140   2.321 -1.4538 -0.9133 -0.2195
17660TIP3   OH274394   0.082   3.857  13.021  0.4846  0.7550  0.4399
17660TIP3    H174395   0.118   3.813  12.944  1.4218  1.4726  0.4553
17660TIP3    H274396   0.074   3.948  12.995 -0.8916  0.7054  0.6093
17661TIP3   OH274397   6.676   3.960  11.891 -0.1650  0.0827  0.0894
17661TIP3    H174398   6.585   3.975  11.919 -0.2042  0.2336 -0.1216
17661TIP3    H274399   6.729   3.996  11.963 -0.2685  0.3684  0.0229
17662TIP3   OH274400   6.436   5.353   5.638  0.0699  0.2629  0.1000
17662TIP3    H174401   6.413   5.446   5.631  0.0420  0.5768  2.9836
17662TIP3    H274402   6.485   5.347   5.720 -1.5585 -2.5386  1.0250
17663TIP3   OH274403   4.082   2.769   1.365  1.0087 -0.1982  0.0177
17663TIP3    H174404   4.103   2.807   1.450 -0.7980 -0.6542  0.7162
17663TIP3    H274405   4.124   2.683   1.366  1.2783 -0.0667  0.2942
17664TIP3   OH274406   6.579   2.481   3.318  0.0723  0.0664  0.2097
17664TIP3    H174407   6.590   2.468   3.412  0.7802  0.0332  0.1311
17664TIP3    H274408   6.634   2.556   3.297 -1.5824  1.3104  0.1320
17665TIP3   OH274409   6.779   4.125  16.105 -0.4068 -0.5126 -0.5539
17665TIP3    H174410   6.749   4.211  16.133 -0.5400 -1.2358  1.6643
17665TIP3    H274411   6.874   4.133  16.100 -0.4393 -0.1708 -0.5890
17666TIP3   OH274412   6.034   6.814  10.344  0.0022 -0.3807  0.3683
17666TIP3    H174413   5.960   6.754  10.332  0.2065 -0.4571 -0.5604
17666TIP3    H274414   6.000   6.900  10.320 -0.5562  0.0769  2.5782
17667TIP3   OH274415   4.789   6.501  15.152 -0.1265  0.0484 -0.6751
17667TIP3    H174416   4.767   6.452  15.073  0.6342 -0.2312 -0.7195
17667TIP3    H274417   4.880   6.478  15.170 -0.3703 -0.0985  0.4317
17668TIP3   OH274418   0.725   0.931  11.033 -0.3949 -0.3993 -0.0508
17668TIP3    H174419   0.765   0.975  11.108 -2.9896  1.5501  0.3250
17668TIP3    H274420   0.749   0.986  10.958 -0.3191 -0.6147 -0.1835
17669TIP3   OH274421   2.521   4.108   1.070  0.0385  0.4578  1.1091
17669TIP3    H174422   2.594   4.144   1.121  0.6124  2.8105 -1.1550
17669TIP3    H274423   2.456   4.179   1.069  0.3002  0.7800 -1.7739
17670TIP3   OH274424   6.224   1.962   3.619  0.2375  0.0489  0.4249
17670TIP3    H174425   6.203   2.042   3.570 -3.4932 -1.0423 -0.1320
17670TIP3    H274426   6.205   1.985   3.710 -0.3982 -0.0207  0.3199
17671TIP3   OH274427   6.671   0.926  14.398 -0.0978 -0.5613  0.2243
17671TIP3    H174428   6.692   0.905  14.489 -0.1546 -0.2469  0.3117
17671TIP3    H274429   6.693   1.019  14.389  0.0595 -0.6305 -0.1289
17672TIP3   OH274430   0.973   2.992  13.592 -0.1100 -0.2481  0.3431
17672TIP3    H174431   0.966   3.087  13.602 -0.6384 -0.1357 -0.9172
17672TIP3    H274432   0.883   2.961  13.588  0.0573 -0.8488  1.0763
17673TIP3   OH274433   4.559   6.501   1.963 -0.3057  0.1886  0.1925
17673TIP3    H174434   4.653   6.499   1.947 -0.1518  0.3882  1.0595
17673TIP3    H274435   4.527   6.418   1.927  0.3841 -0.4417  1.0006
17674TIP3   OH274436   4.703   3.719  13.709 -0.2915  0.1085  0.3014
17674TIP3    H174437   4.758   3.646  13.678 -0.0965  0.0832  0.7037
17674TIP3    H274438   4.643   3.678  13.771 -1.6231 -0.0994 -1.0716
17675TIP3   OH274439   0.480   2.822  12.582  0.4485 -0.3333  0.3611
17675TIP3    H174440   0.429   2.745  12.607  1.1695 -1.3603 -1.1337
17675TIP3    H274441   0.425   2.867  12.517  0.2058  0.1990  0.9257
17676TIP3   OH274442   6.591   4.829  12.366 -0.5838 -0.3310 -0.3744
17676TIP3    H174443   6.551   4.743  12.381  0.1453 -0.3691  1.8368
17676TIP3    H274444   6.580   4.875  12.450  1.6339  0.6246 -0.5388
17677TIP3   OH274445   6.606   2.296   0.275 -0.2656  0.6513  0.4106
17677TIP3    H174446   6.525   2.335   0.308  0.8982  2.1556  1.6362
17677TIP3    H274447   6.651   2.368   0.232  1.5801  0.5250  2.0192
17678TIP3   OH274448   1.004   4.259  16.640  0.1542  0.4974  0.4170
17678TIP3    H174449   1.041   4.216  16.716 -0.8852  0.9127  1.1777
17678TIP3    H274450   0.991   4.350  16.667 -0.1596  0.6694 -0.2771
17679TIP3   OH274451   2.625   3.530  16.039 -0.3361  0.0116 -0.5121
17679TIP3    H174452   2.638   3.439  16.014  0.7803 -0.3613  1.2195
17679TIP3    H274453   2.645   3.581  15.960  0.8171 -1.1614 -0.9967
17680TIP3   OH274454   0.648   4.307   0.796  0.3001 -0.6621 -0.0638
17680TIP3    H174455   0.653   4.227   0.744 -0.6333 -0.6722 -0.1547
17680TIP3    H274456   0.653   4.378   0.732 -0.0911 -0.6693 -0.1091
17681TIP3   OH274457   4.937   6.440   6.346 -0.0084  0.2880  0.0176
17681TIP3    H174458   4.959   6.441   6.253 -2.3266  2.7761 -0.6028
17681TIP3    H274459   4.864   6.379   6.353  1.1190 -1.0811  0.5626
17682TIP3   OH274460   1.845   6.693   5.932 -0.1180 -0.5162 -0.6938
17682TIP3    H174461   1.874   6.724   6.018  0.0813 -0.7000 -0.6924
17682TIP3    H274462   1.774   6.752   5.908 -1.3936 -1.5529  0.4045
17683TIP3   OH274463   3.936   0.577   5.152  0.5312 -0.1452 -0.0872
17683TIP3    H174464   3.984   0.603   5.074 -0.2918  1.2613 -0.1577
17683TIP3    H274465   3.845   0.568   5.123  0.4167 -0.8247  0.4568
17684TIP3   OH274466   6.279   4.142   5.707  0.7023  0.2956  0.4946
17684TIP3    H174467   6.204   4.201   5.694  1.0099  1.0497  1.9824
17684TIP3    H274468   6.243   4.055   5.693 -0.5693  0.6178  1.5703
17685TIP3   OH274469   4.129   2.814  11.821 -0.8112  0.4749 -0.0984
17685TIP3    H174470   4.063   2.839  11.886 -0.9561  0.9167 -0.4107
17685TIP3    H274471   4.096   2.849  11.739 -1.0233 -0.7748 -0.5633
17686TIP3   OH274472   3.753   3.204  11.926 -0.2775 -0.4054 -0.2965
17686TIP3    H174473   3.707   3.269  11.979  0.6959  0.2700 -0.2415
17686TIP3    H274474   3.700   3.125  11.933 -1.5500  0.4003 -0.4390
17687TIP3   OH274475   0.174   0.542  15.063 -0.0797  0.2086  0.0603
17687TIP3    H174476   0.154   0.605  15.133  0.5002  1.4090 -0.8182
17687TIP3    H274477   0.195   0.596  14.987  0.3576 -1.0569 -0.7590
17688TIP3   OH274478   3.884   1.100  17.001 -0.5551  0.0872  0.5505
17688TIP3    H174479   3.847   1.171  16.950 -0.7380 -0.5091 -0.1618
17688TIP3    H274480   3.825   1.026  16.987 -1.0013  0.0857  2.1696
17689TIP3   OH274481   1.884   4.252  16.447  0.2514 -0.1245 -0.6000
17689TIP3    H174482   1.834   4.238  16.367  1.2933  3.0102 -1.9703
17689TIP3    H274483   1.966   4.205  16.434  0.6833  0.8870 -1.7492
17690TIP3   OH274484   5.299   4.328  11.049  0.2742  0.0849 -0.0967
17690TIP3    H174485   5.323   4.419  11.060  0.1991  0.5739 -3.0926
17690TIP3    H274486   5.268   4.300  11.135 -0.3635  3.0762  0.7376
17691TIP3   OH274487   6.570   2.530   4.666 -0.2682 -0.1902 -0.1678
17691TIP3    H174488   6.591   2.520   4.573 -0.1055 -0.2263 -0.1271
17691TIP3    H274489   6.475   2.526   4.669 -0.2426 -0.9550 -0.2455
17692TIP3   OH274490   6.261   2.959   0.376 -0.0627  0.2769 -0.3994
17692TIP3    H174491   6.237   2.870   0.403  0.5549  0.4506  0.7982
17692TIP3    H274492   6.189   2.987   0.319 -0.7520 -0.6288 -0.0021
17693TIP3   OH274493   2.455   6.179   4.968  0.2866  0.6135  0.1514
17693TIP3    H174494   2.538   6.166   4.923  0.3152 -0.2018  0.4222
17693TIP3    H274495   2.477   6.172   5.061 -0.0334  0.7006  0.2367
17694TIP3   OH274496   0.910   2.854  14.940  0.0874  0.0290  0.8529
17694TIP3    H174497   0.951   2.880  15.022 -3.6307  3.2251  1.9880
17694TIP3    H274498   0.923   2.928  14.882  0.9273 -1.3618 -0.8187
17695TIP3   OH274499   0.185   5.659  16.934  0.3814  0.0274  0.6077
17695TIP3    H174500   0.104   5.680  16.887  1.6141  1.9409 -0.8344
17695TIP3    H274501   0.168   5.686  17.024 -0.4265  0.8718  0.2233
17696TIP3   OH274502   3.447   3.898  16.132  0.8426 -0.3706 -0.0022
17696TIP3    H174503   3.534   3.900  16.171  0.3110  0.0292  1.2027
17696TIP3    H274504   3.387   3.915  16.205 -0.0644  3.5160 -1.4060
17697TIP3   OH274505   1.123   3.344  12.735  0.2399 -0.9238  0.8193
17697TIP3    H174506   1.119   3.293  12.654  0.1988  0.6063 -0.1842
17697TIP3    H274507   1.195   3.304  12.784  0.5136 -1.6480 -0.1274
17698TIP3   OH274508   1.418   5.485   2.854 -0.3613 -0.1493  0.5793
17698TIP3    H174509   1.409   5.568   2.902 -2.3201  0.3145 -0.4617
17698TIP3    H274510   1.339   5.436   2.878  0.5605 -1.5403  0.8327
17699TIP3   OH274511   1.204   4.019  16.675 -0.1650 -0.3833 -0.1271
17699TIP3    H174512   1.300   4.022  16.672 -0.1585 -0.8295 -0.4047
17699TIP3    H274513   1.183   4.022  16.768  0.2135 -2.8280  0.0970
17700TIP3   OH274514   0.883   2.978   1.619  0.4714  0.1539 -0.1129
17700TIP3    H174515   0.850   2.888   1.621  0.9506 -0.0385 -0.6221
17700TIP3    H274516   0.978   2.969   1.627  0.6670  0.5063 -1.6598
17701TIP3   OH274517   4.515   0.142   4.339 -0.3502  0.0732 -0.4787
17701TIP3    H174518   4.424   0.136   4.310 -0.2567 -1.4530 -0.5280
17701TIP3    H274519   4.510   0.139   4.434 -0.3090 -0.9281 -0.5014
17702TIP3   OH274520   3.444   5.387   4.888  0.1005 -0.5602  0.1446
17702TIP3    H174521   3.437   5.415   4.797 -1.2643 -2.6208 -0.4699
17702TIP3    H274522   3.474   5.464   4.935  1.8873  0.2831 -2.1800
17703TIP3   OH274523   2.373   1.148   5.337 -0.0788 -0.4706 -0.0974
17703TIP3    H174524   2.411   1.145   5.250  1.1636 -0.5780  0.4268
17703TIP3    H274525   2.423   1.216   5.383 -0.3057 -0.8325  0.7122
17704TIP3   OH274526   2.811   3.178  11.121 -0.5040  0.7523 -0.3874
17704TIP3    H174527   2.721   3.178  11.089 -0.2818  1.3186 -1.0428
17704TIP3    H274528   2.813   3.246  11.188 -0.8062  0.0267  0.3758
17705TIP3   OH274529   3.676   3.763   3.398 -0.5371 -0.5991  0.3797
17705TIP3    H174530   3.605   3.821   3.372 -0.4486 -0.2012  0.9827
17705TIP3    H274531   3.728   3.815   3.460 -0.5835 -1.3903  1.1117
17706TIP3   OH274532   3.326   0.844  11.474  0.4256 -0.6289 -0.5541
17706TIP3    H174533   3.392   0.902  11.512 -0.6535  1.5079 -1.7544
17706TIP3    H274534   3.340   0.851  11.379  1.2037 -3.5657 -0.7332
17707TIP3   OH274535   5.925   5.356  11.947 -0.0063 -0.3306 -0.2345
17707TIP3    H174536   5.944   5.419  12.017  2.3464 -0.8952 -0.3024
17707TIP3    H274537   5.834   5.375  11.922 -0.2159  1.2636  1.5310
17708TIP3   OH274538   3.481   1.911  15.566  0.7599  0.3796 -0.1286
17708TIP3    H174539   3.526   1.987  15.605  3.0252 -1.4499  1.0370
17708TIP3    H274540   3.532   1.890  15.488  1.9863 -1.6765  1.1626
17709TIP3   OH274541   3.453   3.666   2.762 -0.1866  0.1084  0.0659
17709TIP3    H174542   3.377   3.716   2.791  1.6133  1.8351  2.1161
17709TIP3    H274543   3.479   3.708   2.680  0.0682  1.2406  0.7037
17710TIP3   OH274544   0.600   6.420  12.145  0.1065 -0.0811 -0.4010
17710TIP3    H174545   0.624   6.329  12.163 -1.3823 -0.6034 -0.8556
17710TIP3    H274546   0.635   6.437  12.057 -1.5153 -1.0128 -1.2912
17711TIP3   OH274547   5.746   6.041   0.272 -0.1278 -0.4745  0.2121
17711TIP3    H174548   5.819   5.985   0.297  1.6303  1.3300 -0.6349
17711TIP3    H274549   5.735   6.027   0.178  0.2294  0.4674  0.0226
17712TIP3   OH274550   4.064   1.296  11.966 -0.1031  0.2709 -0.1492
17712TIP3    H174551   4.027   1.211  11.992 -0.1484  0.2269 -0.3554
17712TIP3    H274552   4.158   1.279  11.958 -0.1355  0.1929 -0.3738
17713TIP3   OH274553   5.200   6.010   2.318  0.3060 -0.1133 -0.5789
17713TIP3    H174554   5.149   5.983   2.241 -1.0559 -1.4221  0.7068
17713TIP3    H274555   5.287   5.974   2.303  0.5135  0.9741 -2.1917
17714TIP3   OH274556   6.134   4.185   0.075  0.4633  0.6445 -0.1061
17714TIP3    H174557   6.053   4.201   0.124 -0.0139 -1.9791  0.1065
17714TIP3    H274558   6.179   4.117   0.125  1.2750 -0.1681 -1.8356
17715TIP3   OH274559   3.914   5.963  11.171  0.0491 -0.0947 -0.0046
17715TIP3    H174560   4.006   5.944  11.190  0.0879  0.6416  0.5735
17715TIP3    H274561   3.912   6.055  11.146 -0.4803 -0.2085 -0.4059
17716TIP3   OH274562   1.757   2.097   6.012 -0.1808  0.5492 -0.4189
17716TIP3    H174563   1.754   2.158   5.938  0.5465  1.0631 -0.0327
17716TIP3    H274564   1.674   2.110   6.057 -0.6461  0.2089 -1.1571
17717TIP3   OH274565   3.087   5.460  16.950  0.0586 -0.6096  0.0049
17717TIP3    H174566   3.032   5.537  16.944  0.9221  0.4689  3.4117
17717TIP3    H274567   3.026   5.386  16.951 -0.7869 -0.0863 -3.1405
17718TIP3   OH274568   1.996   0.274   3.733  0.9047 -0.1980  0.8101
17718TIP3    H174569   2.022   0.200   3.678 -0.4430  0.2109 -0.4668
17718TIP3    H274570   2.056   0.345   3.708  0.1744  0.0445 -0.3374
17719TIP3   OH274571   1.225   1.018   5.425 -0.6016  0.0282  0.1329
17719TIP3    H174572   1.239   1.112   5.411  1.3352 -0.3418 -0.6985
17719TIP3    H274573   1.279   0.997   5.501 -0.0808 -0.6295 -0.4081
17720TIP3   OH274574   2.354   5.342   5.319 -0.4656 -0.2658 -0.0188
17720TIP3    H174575   2.422   5.329   5.253  0.1677 -3.0443  1.0425
17720TIP3    H274576   2.387   5.414   5.373 -0.3708  1.1469 -1.8589
17721TIP3   OH274577   5.491   0.514  14.053 -0.4670  0.7223 -0.3599
17721TIP3    H174578   5.423   0.447  14.050 -0.6078  0.8538 -0.1034
17721TIP3    H274579   5.450   0.592  14.014 -0.7035  1.0135  0.4605
17722TIP3   OH274580   2.754   4.642  15.277 -0.3921  0.2376 -0.3733
17722TIP3    H174581   2.796   4.727  15.288 -1.9632  1.1971 -1.4529
17722TIP3    H274582   2.826   4.583  15.254  0.6891  1.3190  0.1452
17723TIP3   OH274583   3.574   4.610  14.195  0.1807 -0.2027 -0.4834
17723TIP3    H174584   3.545   4.651  14.277  0.1882  0.2165 -0.6884
17723TIP3    H274585   3.513   4.644  14.129  0.6191  0.0315 -0.7749
17724TIP3   OH274586   6.090   6.285  12.695  0.1160 -0.3986 -0.2834
17724TIP3    H174587   6.106   6.328  12.611  2.3603  0.6817  0.6203
17724TIP3    H274588   6.046   6.351  12.748  0.0967 -0.5494 -0.1100
17725TIP3   OH274589   2.609   0.815  11.805 -0.1441  0.2663  0.4137
17725TIP3    H174590   2.549   0.888  11.792  0.5670  1.0401  1.3978
17725TIP3    H274591   2.696   0.853  11.793  0.1892 -0.7403 -0.5300
17726TIP3   OH274592   1.193   5.600  15.914 -0.1874 -0.1302 -0.3508
17726TIP3    H174593   1.183   5.693  15.932  0.8337  0.0998 -0.9091
17726TIP3    H274594   1.280   5.592  15.875 -1.0575 -1.0399 -2.2295
17727TIP3   OH274595   5.441   4.202   0.543 -0.0367  0.1033 -0.6051
17727TIP3    H174596   5.403   4.115   0.558  1.4623 -0.2851  1.4536
17727TIP3    H274597   5.377   4.263   0.578 -0.6294 -0.2105 -1.1058
17728TIP3   OH274598   6.721   3.046  13.118  0.2861  0.0004  0.2217
17728TIP3    H174599   6.737   3.068  13.210  0.3527 -0.1227  0.2397
17728TIP3    H274600   6.808   3.043  13.079  0.3286 -0.9541  0.3807
17729TIP3   OH274601   3.867   6.443   2.646  0.6372 -0.0593 -0.1089
17729TIP3    H174602   3.784   6.457   2.692  1.0319 -0.0821  0.6262
17729TIP3    H274603   3.863   6.351   2.619  0.7777 -0.2976  0.6611
17730TIP3   OH274604   0.558   1.825  12.283  0.1842  0.1007 -0.2790
17730TIP3    H174605   0.493   1.808  12.214  0.3928  0.3565 -0.5408
17730TIP3    H274606   0.537   1.762  12.351 -0.5911  0.4442 -0.1909
17731TIP3   OH274607   5.703   3.866  16.901  0.1453  0.2829 -0.1753
17731TIP3    H174608   5.766   3.803  16.867  0.4320  0.0967  0.6835
17731TIP3    H274609   5.643   3.814  16.955  1.1096  0.8818  1.5512
17732TIP3   OH274610   5.887   5.479   2.806  0.1990  0.0027 -0.0378
17732TIP3    H174611   5.957   5.520   2.857  0.2630 -0.1820  0.0238
17732TIP3    H274612   5.922   5.392   2.784  0.6332  0.4838 -1.3319
17733TIP3   OH274613   2.251   0.208   1.687 -0.1718 -0.2248 -0.6976
17733TIP3    H174614   2.342   0.228   1.664  0.4909  1.2675  2.6604
17733TIP3    H274615   2.251   0.114   1.704  1.3070  0.0679  1.1825
17734TIP3   OH274616   3.327   3.989  13.846  0.3415  0.8373 -0.1949
17734TIP3    H174617   3.271   4.047  13.898  1.5427  2.0095 -0.1617
17734TIP3    H274618   3.416   4.011  13.874  0.8300 -2.2396  1.1189
17735TIP3   OH274619   1.322   0.758  14.855 -0.0736  0.7812  0.2951
17735TIP3    H174620   1.271   0.686  14.818  2.0697  0.2458 -1.8592
17735TIP3    H274621   1.369   0.795  14.781  1.6474  2.0871  1.9275
17736TIP3   OH274622   3.041   5.410  11.084 -0.2051  0.0009  0.2415
17736TIP3    H174623   3.070   5.423  10.993  0.7477  0.0963  0.5442
17736TIP3    H274624   2.967   5.469  11.094 -1.1996 -1.0077 -0.8717
17737TIP3   OH274625   2.674   4.000   2.173  0.1358 -0.2972  0.1348
17737TIP3    H174626   2.686   3.964   2.261  1.2273 -2.5124 -0.8268
17737TIP3    H274627   2.758   3.984   2.129 -0.5238  0.3536 -1.4357
17738TIP3   OH274628   5.816   2.071  16.023 -0.3595  0.1010 -0.1849
17738TIP3    H174629   5.790   2.066  15.931 -0.6208  0.0476 -0.1081
17738TIP3    H274630   5.860   2.156  16.031 -0.6087  0.2415 -0.2919
17739TIP3   OH274631   4.281   2.489   1.404 -0.3880 -0.0494  0.2832
17739TIP3    H174632   4.368   2.480   1.441 -0.3091 -0.4406  0.0080
17739TIP3    H274633   4.232   2.414   1.439 -0.2439 -0.5634 -0.5841
17740TIP3   OH274634   5.503   2.641   2.433 -0.1171  0.3508 -0.1529
17740TIP3    H174635   5.421   2.610   2.470  0.9776 -0.3133  1.8160
17740TIP3    H274636   5.506   2.734   2.456  0.8821 -0.2065  2.1675
17741TIP3   OH274637   2.158   6.815  13.318  0.3862 -1.0424 -0.1220
17741TIP3    H174638   2.241   6.821  13.364 -0.0042  1.8802  0.4019
17741TIP3    H274639   2.177   6.850  13.230 -0.4861  0.9254  0.4197
17742TIP3   OH274640   6.547   6.368  12.700  0.1209 -0.1398  0.2588
17742TIP3    H174641   6.614   6.421  12.744  0.7591 -0.6920 -0.0313
17742TIP3    H274642   6.491   6.338  12.771  0.2163  0.2762  0.5173
17743TIP3   OH274643   5.194   5.471  11.500 -0.2197  0.1065  0.3761
17743TIP3    H174644   5.098   5.469  11.500 -0.2407  0.8116 -0.1951
17743TIP3    H274645   5.217   5.497  11.589 -0.6148  1.5050  0.0938
17744TIP3   OH274646   5.408   1.902  14.200 -0.0678  0.1762  0.5669
17744TIP3    H174647   5.381   1.884  14.290 -0.3644  0.1026  0.4628
17744TIP3    H274648   5.460   1.826  14.175 -0.0764  0.1471  0.6390
17745TIP3   OH274649   5.820   6.547   0.331  0.4651  0.1583 -0.1331
17745TIP3    H174650   5.843   6.456   0.351  0.8515  0.4727  0.9080
17745TIP3    H274651   5.726   6.552   0.350  0.7644  0.3742  1.4026
17746TIP3   OH274652   1.044   2.834  15.858 -0.3781  0.5386  0.5062
17746TIP3    H174653   0.991   2.877  15.925 -0.5051  1.8076 -0.3728
17746TIP3    H274654   1.000   2.854  15.776  0.9555  0.8718 -0.1623
17747TIP3   OH274655   0.850   3.503   4.637 -0.5698 -0.3373  0.0501
17747TIP3    H174656   0.791   3.531   4.568 -0.5632  1.8261  0.8522
17747TIP3    H274657   0.798   3.443   4.691 -0.9688 -1.0170 -1.0637
17748TIP3   OH274658   5.307   4.579  11.405 -0.3151 -0.0518  0.3090
17748TIP3    H174659   5.231   4.615  11.450 -0.0318  2.2219 -0.8661
17748TIP3    H274660   5.380   4.634  11.433  0.3234 -0.2727 -0.8533
17749TIP3   OH274661   1.368   5.945  16.120 -0.1317  0.3859 -0.4739
17749TIP3    H174662   1.340   6.015  16.181  2.4064  0.1979  1.0271
17749TIP3    H274663   1.342   5.864  16.164  0.8633  0.2777 -0.0698
17750TIP3   OH274664   3.758   6.268   0.965 -0.3371  0.0541  0.0454
17750TIP3    H174665   3.850   6.285   0.942 -0.2250 -1.2698 -0.5460
17750TIP3    H274666   3.728   6.205   0.899 -1.6344  0.3633  0.3248
17751TIP3   OH274667   0.114   1.664   5.546  0.6045 -0.2111 -0.2558
17751TIP3    H174668   0.150   1.629   5.464 -2.5222  0.1278 -1.9690
17751TIP3    H274669   0.095   1.586   5.599  2.1402 -0.4656 -0.0409
17752TIP3   OH274670   3.395   1.319   5.114  0.2333  0.1934 -0.2948
17752TIP3    H174671   3.338   1.362   5.051 -0.8615 -0.1125  0.4569
17752TIP3    H274672   3.456   1.267   5.060 -0.7738 -0.1886 -1.1036
17753TIP3   OH274673   1.869   2.983  15.689  0.1096 -0.2813  0.1965
17753TIP3    H174674   1.802   2.932  15.643 -0.6058 -0.0590  0.9589
17753TIP3    H274675   1.930   2.919  15.723  0.1783 -0.5013 -0.3269
17754TIP3   OH274676   2.915   5.938  13.294  0.5231  0.2332  0.0917
17754TIP3    H174677   2.960   5.996  13.232  2.0793 -1.3972 -0.3746
17754TIP3    H274678   2.822   5.950  13.274  0.8744  1.6012 -0.8522
17755TIP3   OH274679   1.306   5.004  11.121 -0.1533 -0.6997  0.1334
17755TIP3    H174680   1.296   4.910  11.136 -0.1914 -1.0497 -1.8563
17755TIP3    H274681   1.246   5.024  11.050 -1.0323  1.1110  1.3107
17756TIP3   OH274682   5.412   6.446  15.664 -0.3930 -0.2717 -0.3504
17756TIP3    H174683   5.323   6.439  15.698 -0.2444 -0.5579 -0.0059
17756TIP3    H274684   5.443   6.531  15.695 -0.4095 -0.3446 -0.1299
17757TIP3   OH274685   2.073   6.657  14.310  0.4271  0.9274  0.4328
17757TIP3    H174686   2.063   6.652  14.215  0.3800  0.0989  0.4746
17757TIP3    H274687   2.166   6.676  14.323  0.8599 -0.8893  0.2449
17758TIP3   OH274688   3.233   0.767   3.549  0.5539 -0.0192 -0.1055
17758TIP3    H174689   3.294   0.841   3.543 -0.1594  0.4701 -1.4830
17758TIP3    H274690   3.291   0.691   3.555  1.2976  0.5578  0.4116
17759TIP3   OH274691   5.183   2.880  13.596  0.1895  0.2371  0.4548
17759TIP3    H174692   5.094   2.857  13.570 -0.4133  0.8589  1.8508
17759TIP3    H274693   5.198   2.966  13.556  0.0331  0.2874  0.5039
17760TIP3   OH274694   5.295   4.441  14.440  0.5830  0.0670 -0.1077
17760TIP3    H174695   5.323   4.352  14.461 -2.2828 -1.1542 -0.8855
17760TIP3    H274696   5.348   4.465  14.364  1.2657 -1.0586 -0.0144
17761TIP3   OH274697   6.001   2.548   4.126  0.3524  0.5695 -0.2175
17761TIP3    H174698   6.030   2.556   4.217 -0.6361 -0.1773  0.1832
17761TIP3    H274699   6.077   2.574   4.074  0.8702  1.2055  0.8170
17762TIP3   OH274700   5.830   2.849   5.705 -0.2676  0.1076 -0.1239
17762TIP3    H174701   5.790   2.892   5.780  1.2808  0.3860  0.5616
17762TIP3    H274702   5.875   2.773   5.742 -0.1479 -0.1961 -0.8734
17763TIP3   OH274703   1.545   4.489   5.311 -0.4941 -0.0716 -0.0461
17763TIP3    H174704   1.578   4.432   5.241  1.0127  0.0783  0.4949
17763TIP3    H274705   1.624   4.513   5.361 -1.5414 -0.3656  1.8420
17764TIP3   OH274706   1.951   0.635  16.573 -0.2459 -0.2447 -0.3601
17764TIP3    H174707   1.950   0.540  16.587 -0.7247 -0.1745  0.0844
17764TIP3    H274708   1.945   0.673  16.660 -0.5802  0.1945 -0.5690
17765TIP3   OH274709   1.174   5.798   0.275 -0.0945 -0.3023 -0.0708
17765TIP3    H174710   1.262   5.764   0.263  0.3373  0.7243  0.0759
17765TIP3    H274711   1.186   5.879   0.325 -0.9927  0.5411 -1.1706
17766TIP3   OH274712   3.757   4.916   0.010  0.1307 -0.0159 -0.2770
17766TIP3    H174713   3.756   4.922  -0.085 -1.0823 -2.3284 -0.4616
17766TIP3    H274714   3.701   4.842   0.031  1.3417 -0.3475  2.1887
17767TIP3   OH274715   5.832   4.680  11.893 -0.3422  0.0526 -0.4310
17767TIP3    H174716   5.773   4.696  11.967 -1.5690  1.9547 -1.7335
17767TIP3    H274717   5.802   4.740  11.825  2.2087  0.0437 -1.6737
17768TIP3   OH274718   1.235   5.523  13.390 -0.1902  0.3372 -0.2360
17768TIP3    H174719   1.305   5.459  13.406  0.5863  1.0381 -0.7266
17768TIP3    H274720   1.154   5.474  13.401  0.3892 -0.6982 -0.5005
17769TIP3   OH274721   0.886   0.072  12.418 -0.3517 -0.0760  0.3849
17769TIP3    H174722   0.883   0.165  12.399  0.5545  0.0179  0.6653
17769TIP3    H274723   0.892   0.030  12.332 -1.9050  0.0418  0.1821
17770TIP3   OH274724   0.115   5.960  12.473  0.0024 -0.1792 -0.1307
17770TIP3    H174725   0.045   5.983  12.534 -0.9253 -2.9392 -0.0200
17770TIP3    H274726   0.162   5.888  12.516  0.6791 -0.7440 -1.7337
17771TIP3   OH274727   2.550   4.361  15.699  0.1101 -0.5493 -0.2290
17771TIP3    H174728   2.464   4.396  15.673  0.3011  0.3568  0.2831
17771TIP3    H274729   2.612   4.404  15.641  0.3521 -0.0150  0.4121
17772TIP3   OH274730   4.429   6.600  15.626  0.0706  0.0173 -0.1156
17772TIP3    H174731   4.337   6.617  15.647 -0.3500 -1.8848 -0.2303
17772TIP3    H274732   4.473   6.683  15.644 -1.9454  1.5903 -1.8913
17773TIP3   OH274733   6.011   4.699   3.324 -0.3434 -0.6316  0.5381
17773TIP3    H174734   6.039   4.774   3.271 -1.5591 -0.8905 -0.4952
17773TIP3    H274735   6.093   4.663   3.358  0.3483  0.4508  0.0826
17774TIP3   OH274736   3.035   1.991   0.979  0.1020 -0.2069  0.3013
17774TIP3    H174737   3.019   2.069   1.032  1.2294  0.3511 -0.1542
17774TIP3    H274738   2.953   1.942   0.984 -0.7114  1.1115  0.4039
17775TIP3   OH274739   4.135   5.665   0.941  0.1674 -0.0288 -0.3318
17775TIP3    H174740   4.042   5.646   0.953  0.0597 -0.0347 -1.1596
17775TIP3    H274741   4.159   5.715   1.020 -0.9315  1.4037 -0.8503
17776TIP3   OH274742   4.185   6.167   0.395  0.0867 -0.8606  0.3684
17776TIP3    H174743   4.139   6.244   0.361  4.7902  1.4164 -1.8416
17776TIP3    H274744   4.180   6.103   0.323 -0.0305 -0.8212  0.3407
17777TIP3   OH274745   6.209   5.702   2.688  0.0833  0.0952  0.6754
17777TIP3    H174746   6.297   5.738   2.700  0.1995 -0.2124  0.7420
17777TIP3    H274747   6.162   5.770   2.640  0.5544 -0.0266  0.0405
17778TIP3   OH274748   0.626   0.994  13.071  0.0314  0.4335 -0.5236
17778TIP3    H174749   0.627   0.917  13.128  1.4603 -0.7529 -2.0461
17778TIP3    H274750   0.637   1.068  13.131 -0.7685 -0.5540  0.9214
17779TIP3   OH274751   4.370   4.767  12.498  0.1611 -0.6565  0.4368
17779TIP3    H174752   4.412   4.711  12.564 -1.6710 -2.2209  0.3386
17779TIP3    H274753   4.388   4.724  12.415  1.8975  0.9651 -0.0994
17780TIP3   OH274754   4.565   6.019  15.548 -0.0135  0.5734 -0.1742
17780TIP3    H174755   4.600   5.991  15.632  1.6507 -1.0762 -1.3303
17780TIP3    H274756   4.555   6.114  15.555  1.1460  0.5959  1.4895
17781TIP3   OH274757   0.467   2.439  14.384 -0.3150  0.1126  0.2852
17781TIP3    H174758   0.470   2.535  14.379 -5.5530  0.4600 -2.6101
17781TIP3    H274759   0.435   2.421  14.472  1.1931  0.8595  1.0403
17782TIP3   OH274760   1.659   5.762  14.282 -0.7477  0.3881 -0.0420
17782TIP3    H174761   1.567   5.741  14.267 -0.4390 -0.8035 -0.4255
17782TIP3    H274762   1.706   5.705  14.221  0.2207  1.3767 -0.2372
17783TIP3   OH274763   6.054   3.849  12.645 -0.1086  0.0258  0.3646
17783TIP3    H174764   5.970   3.863  12.688 -0.2069  0.0127  0.1769
17783TIP3    H274765   6.032   3.812  12.560  0.1483 -1.2211  0.8156
17784TIP3   OH274766   0.256   3.480   1.123  0.2578 -0.1751 -0.2921
17784TIP3    H174767   0.299   3.563   1.104 -0.6759  0.2590 -0.5714
17784TIP3    H274768   0.162   3.501   1.127  0.1293 -0.9174  1.2699
17785TIP3   OH274769   3.332   2.120  11.797 -0.0585 -0.5135  0.6845
17785TIP3    H174770   3.250   2.159  11.765  0.1149 -0.4956  0.2596
17785TIP3    H274771   3.398   2.189  11.785  0.3206 -1.0444 -0.3992
17786TIP3   OH274772   6.665   2.335  11.761  0.0040 -0.5247 -0.7479
17786TIP3    H174773   6.679   2.419  11.719 -0.9896  0.0670  0.0663
17786TIP3    H274774   6.672   2.353  11.855  0.6796 -1.5292 -0.5899
17787TIP3   OH274775   0.809   6.221  16.224  0.1686 -0.5113 -0.5447
17787TIP3    H174776   0.889   6.168  16.226  0.4540 -0.0503  1.2887
17787TIP3    H274777   0.837   6.309  16.247 -0.5577  0.1601 -2.0567
17788TIP3   OH274778   4.101   5.305  11.599 -0.1359 -0.0580 -0.2288
17788TIP3    H174779   4.027   5.249  11.576 -0.5451  0.5399 -0.3799
17788TIP3    H274780   4.133   5.268  11.682 -0.5607 -0.3558 -0.1897
17789TIP3   OH274781   3.810   6.526   1.687 -0.3082 -0.1374 -0.3073
17789TIP3    H174782   3.846   6.556   1.770  1.4840 -1.0275 -0.7046
17789TIP3    H274783   3.883   6.532   1.626 -1.6592  0.7771 -1.9189
17790TIP3   OH274784   6.316   6.260  16.625  0.2191  0.5255  0.1763
17790TIP3    H174785   6.401   6.283  16.662 -0.3409 -1.0201  2.5948
17790TIP3    H274786   6.324   6.168  16.601 -0.4419  0.6779 -0.6963
17791TIP3   OH274787   3.679   6.081   0.748  0.0368 -0.3294 -0.0832
17791TIP3    H174788   3.764   6.039   0.734  0.8918  0.6183  1.9751
17791TIP3    H274789   3.618   6.008   0.756  0.5426 -1.0191 -1.9487
17792TIP3   OH274790   2.630   5.695   2.584 -0.5056 -0.2360  0.6752
17792TIP3    H174791   2.657   5.682   2.493 -1.6920  0.4628  0.2006
17792TIP3    H274792   2.562   5.629   2.599  0.0815 -0.7228  1.2463
17793TIP3   OH274793   0.071   1.167  14.941 -0.0157  0.1632  0.1003
17793TIP3    H174794   0.096   1.137  14.853  0.9410 -2.3716  1.1385
17793TIP3    H274795  -0.007   1.220  14.927 -1.9382 -2.9074 -2.0279
17794TIP3   OH274796   4.631   1.728   5.868  0.4553 -0.1031  0.0245
17794TIP3    H174797   4.719   1.731   5.831  1.1715  0.2572  1.6588
17794TIP3    H274798   4.623   1.640   5.905 -0.1646 -0.3827 -0.7358
17795TIP3   OH274799   0.362   0.921  13.384 -0.3400 -0.1702  0.8949
17795TIP3    H174800   0.358   1.006  13.427  2.7921  1.7643 -2.1003
17795TIP3    H274801   0.441   0.880  13.420  0.2728 -0.0959 -0.3011
17796TIP3   OH274802   2.053   2.977  14.371 -0.3878  0.6283  0.4919
17796TIP3    H174803   2.131   3.000  14.422 -0.6956  0.2677  1.1489
17796TIP3    H274804   1.981   2.988  14.433 -1.0327  2.3486 -0.4967
17797TIP3   OH274805   4.507   5.623   0.566 -0.3660 -0.0198 -0.8641
17797TIP3    H174806   4.566   5.581   0.503  0.8422 -0.0648  0.2809
17797TIP3    H274807   4.538   5.713   0.573 -1.3737  0.3899 -1.3652
17798TIP3   OH274808   3.279   0.234   1.723 -0.1106  0.2961 -0.1587
17798TIP3    H174809   3.340   0.284   1.670  0.9552 -1.5772 -0.8099
17798TIP3    H274810   3.281   0.276   1.809  1.2879  0.9206 -0.4769
17799TIP3   OH274811   6.669   3.629   2.760  0.4891  0.4114  0.5929
17799TIP3    H174812   6.751   3.581   2.775  0.6063 -0.0365 -1.2068
17799TIP3    H274813   6.601   3.562   2.768  0.5907  0.0507 -1.1164
17800TIP3   OH274814   5.756   2.969   4.647  0.1934 -0.1175  0.5454
17800TIP3    H174815   5.807   2.993   4.569 -0.9425  0.5960 -0.0086
17800TIP3    H274816   5.789   2.882   4.671  1.9212  0.4772  0.4479
17801TIP3   OH274817   2.941   6.163   4.627  0.1040  0.1638 -0.1713
17801TIP3    H174818   2.941   6.106   4.703  1.4781  2.7268  1.9026
17801TIP3    H274819   3.025   6.146   4.583 -0.6582 -1.2608 -1.1569
17802TIP3   OH274820   3.778   3.738   2.135  0.2250 -0.0096 -0.8616
17802TIP3    H174821   3.717   3.799   2.175  0.7543 -0.9041  1.4958
17802TIP3    H274822   3.855   3.791   2.113  0.7739  0.2172  1.3668
17803TIP3   OH274823   4.786   2.212   1.817  0.0826  0.9395 -0.1566
17803TIP3    H174824   4.794   2.187   1.725 -0.5011  2.1793 -0.5665
17803TIP3    H274825   4.753   2.302   1.815 -2.5558  0.1068  1.2673
17804TIP3   OH274826   0.554   0.987  15.255  0.3291  0.1860  0.4374
17804TIP3    H174827   0.611   0.948  15.189  0.7860  0.6544  0.5554
17804TIP3    H274828   0.501   1.051  15.207 -0.5976 -0.7297  0.1962
17805TIP3   OH274829   2.049   0.519  15.708  0.5426  0.0048  0.7537
17805TIP3    H174830   2.012   0.510  15.621  0.5392  0.2424  0.7297
17805TIP3    H274831   2.141   0.542  15.693  0.1958  1.5396  0.7952
17806TIP3   OH274832   3.255   2.669   9.891 -0.2785  0.0207  0.7061
17806TIP3    H174833   3.225   2.749   9.934 -1.1360  0.2025 -0.2052
17806TIP3    H274834   3.313   2.700   9.822  2.7271 -0.3438  2.8531
17807TIP3   OH274835   6.002   4.206  16.370  0.1120 -0.5470  0.6183
17807TIP3    H174836   6.054   4.252  16.304  0.8486 -2.2990 -0.0831
17807TIP3    H274837   5.925   4.261  16.383 -0.5860 -0.5983 -2.4880
17808TIP3   OH274838   5.173   4.954  15.951  0.3870 -0.2019  0.2050
17808TIP3    H174839   5.267   4.966  15.960  0.2296  0.4712  1.1485
17808TIP3    H274840   5.159   4.939  15.858  1.2392  1.4158 -0.2118
17809TIP3   OH274841   6.812   3.607  15.755  0.6357 -0.0107 -0.2455
17809TIP3    H174842   6.897   3.583  15.717  0.9781  0.3738  0.2799
17809TIP3    H274843   6.826   3.693  15.793  0.6398 -0.8799  1.8431
17810TIP3   OH274844   3.139   1.015   4.677  0.1743 -0.3010  0.8318
17810TIP3    H174845   3.200   0.988   4.609  0.3372 -0.2763  0.9685
17810TIP3    H274846   3.107   1.101   4.648 -1.9635 -1.5216 -0.6957
17811TIP3   OH274847   4.642   3.237  10.887  0.0928 -0.1958 -0.2316
17811TIP3    H174848   4.651   3.332  10.891  1.5603 -0.3421  0.5095
17811TIP3    H274849   4.732   3.204  10.899 -0.5620 -1.7006  0.8055
17812TIP3   OH274850   1.374   2.429  13.365  0.3121  0.6536 -0.5335
17812TIP3    H174851   1.339   2.456  13.450  1.0725  1.5129 -0.4749
17812TIP3    H274852   1.338   2.493  13.304  0.2200  0.3760 -0.7701
17813TIP3   OH274853   4.994   5.764   6.014 -0.2579 -0.4516 -0.3258
17813TIP3    H174854   5.011   5.677   6.050 -0.4310 -0.6468 -0.7125
17813TIP3    H274855   5.019   5.824   6.084  0.7768 -0.7730 -0.3933
17814TIP3   OH274856   3.199   6.166   0.215 -0.1346 -0.2000  0.1167
17814TIP3    H174857   3.276   6.192   0.164 -0.8041  1.0175 -0.2944
17814TIP3    H274858   3.224   6.082   0.254  1.3781  0.1372 -0.0674
17815TIP3   OH274859   3.236   5.180   4.648  0.4142 -0.6991 -0.3886
17815TIP3    H174860   3.285   5.262   4.649 -1.7457  0.7084 -0.8650
17815TIP3    H274861   3.287   5.122   4.591  2.0543  0.2561  0.0471
17816TIP3   OH274862   5.612   0.163   0.357 -0.0945  0.5491  0.0951
17816TIP3    H174863   5.703   0.137   0.369 -0.9176 -2.2479  1.0691
17816TIP3    H274864   5.598   0.158   0.262  0.2032 -1.4158  0.1102
17817TIP3   OH274865   2.201   6.288  13.923 -0.1021 -0.6544  0.1448
17817TIP3    H174866   2.153   6.297  14.005  0.2886  1.0865  0.2193
17817TIP3    H274867   2.293   6.298  13.948  0.0039  0.1142 -0.5037
17818TIP3   OH274868   1.860   1.272  15.882  0.5427 -0.0705 -0.1487
17818TIP3    H174869   1.906   1.337  15.936 -0.5911 -1.1604  2.2408
17818TIP3    H274870   1.878   1.188  15.924 -2.0515 -0.7489 -0.2235
17819TIP3   OH274871   1.153   3.604   0.544 -0.2752  0.3890  0.0301
17819TIP3    H174872   1.220   3.632   0.606 -1.2707  0.2808  1.2087
17819TIP3    H274873   1.070   3.620   0.590 -0.9775 -2.5084 -0.0362
17820TIP3   OH274874   6.038   3.004  13.793  0.2510  0.1383 -0.1542
17820TIP3    H174875   5.957   2.984  13.840  0.5488 -0.6196  0.0623
17820TIP3    H274876   6.084   2.920  13.789  0.6095  0.3619 -1.0794
17821TIP3   OH274877   3.755   5.486  16.724  0.1581 -0.2254  0.3145
17821TIP3    H174878   3.661   5.471  16.732  0.2047 -0.8758 -0.2252
17821TIP3    H274879   3.764   5.546  16.650  0.2424 -1.4044 -0.6649
17822TIP3   OH274880   2.304   6.509  16.204  0.3160  0.3502  0.4786
17822TIP3    H174881   2.334   6.594  16.236 -2.3583  1.6227 -0.1931
17822TIP3    H274882   2.275   6.525  16.115 -0.3215 -1.2474  0.3696
17823TIP3   OH274883   3.963   6.466  13.956 -0.2818 -0.0688  0.2950
17823TIP3    H174884   3.869   6.448  13.960 -0.6292  1.4098 -0.4189
17823TIP3    H274885   3.998   6.428  14.036 -1.6888  0.3946  1.1695
17824TIP3   OH274886   0.730   5.340   2.701 -0.3805 -0.2274  0.8108
17824TIP3    H174887   0.711   5.416   2.757  0.0212  0.2320  0.3249
17824TIP3    H274888   0.777   5.376   2.626 -0.8346 -0.8589  0.2158
17825TIP3   OH274889   4.789   3.395   1.370  0.7641  0.3425 -0.2130
17825TIP3    H174890   4.741   3.427   1.446  0.2390 -1.5211  0.2848
17825TIP3    H274891   4.768   3.457   1.301 -2.3855 -0.3398 -0.0123
17826TIP3   OH274892   4.859   1.468   3.832 -0.1968 -0.2194  0.0571
17826TIP3    H174893   4.883   1.481   3.924  0.3105 -0.6467 -0.0103
17826TIP3    H274894   4.800   1.393   3.832 -0.8700  0.3057  0.1264
17827TIP3   OH274895   3.184   6.104   4.298  0.0156  0.7476 -0.2648
17827TIP3    H174896   3.250   6.051   4.253  0.6392 -0.7451  2.2359
17827TIP3    H274897   3.214   6.109   4.388 -3.3140 -0.0760  1.0433
17828TIP3   OH274898   3.238   3.326  12.399 -0.1377 -0.8164  0.5914
17828TIP3    H174899   3.163   3.295  12.349 -0.1277 -0.4193  0.3281
17828TIP3    H274900   3.308   3.336  12.335 -1.0242  2.9207 -0.0093
17829TIP3   OH274901   4.360   5.299   4.882 -0.1132 -0.2802  0.5458
17829TIP3    H174902   4.353   5.393   4.897  0.8696 -0.2826  1.0977
17829TIP3    H274903   4.413   5.266   4.954  0.0925 -1.1600  0.0195
17830TIP3   OH274904   5.734   2.060  10.819 -0.2262  0.5936 -0.2689
17830TIP3    H174905   5.666   2.039  10.883  0.7122  0.0632  0.6043
17830TIP3    H274906   5.694   2.041  10.734 -0.5941 -1.5266  0.3073
17831TIP3   OH274907   0.795   3.784   3.640 -0.3055 -0.3768 -0.1482
17831TIP3    H174908   0.739   3.787   3.718 -1.6529 -1.6233 -1.0196
17831TIP3    H274909   0.884   3.787   3.674 -0.8432 -1.6228  1.5019
17832TIP3   OH274910   0.860   2.802   2.182  0.5624 -0.0842  0.3657
17832TIP3    H174911   0.882   2.768   2.095  0.1272  1.7879 -0.5150
17832TIP3    H274912   0.767   2.781   2.194  0.7102 -0.6542  0.5466
17833TIP3   OH274913   1.466   2.766  16.806 -0.2822  0.4312 -0.2900
17833TIP3    H174914   1.539   2.738  16.752 -0.7513  1.0392 -1.2694
17833TIP3    H274915   1.493   2.850  16.843 -0.2424  0.3597 -0.1566
17834TIP3   OH274916   6.639   0.992  15.565 -0.1752  0.1131  0.0745
17834TIP3    H174917   6.640   1.086  15.550  0.0877  0.0228 -0.5118
17834TIP3    H274918   6.547   0.968  15.567 -0.2485  0.4508  0.6665
17835TIP3   OH274919   6.413   6.602  14.051 -0.0142 -0.7657 -0.5674
17835TIP3    H174920   6.502   6.573  14.072  0.6399  1.8019  0.5875
17835TIP3    H274921   6.358   6.556  14.115  0.9115  0.0199  0.8624
17836TIP3   OH274922   1.196   4.595   0.345 -0.0978 -0.0269 -0.1367
17836TIP3    H174923   1.141   4.672   0.332  1.2311  0.8116 -1.1161
17836TIP3    H274924   1.169   4.534   0.277 -1.9805 -0.9887  1.3733
17837TIP3   OH274925   5.440   1.676   0.393 -0.8680 -0.8205  0.5556
17837TIP3    H174926   5.408   1.759   0.360 -1.9379 -1.2203  0.5501
17837TIP3    H274927   5.476   1.631   0.317  0.3396 -0.1081  0.6746
17838TIP3   OH274928   6.184   2.481   0.957  0.2208 -0.0065  0.3699
17838TIP3    H174929   6.165   2.454   0.867 -1.3714 -2.0825  1.2475
17838TIP3    H274930   6.197   2.399   1.005  2.0428  1.0772  1.8662
17839TIP3   OH274931   5.431   1.505   5.268 -0.1859 -0.0247 -0.3220
17839TIP3    H174932   5.444   1.582   5.213  0.6942  0.7704  0.9261
17839TIP3    H274933   5.487   1.521   5.344 -0.3598 -1.6898  0.1845
17840TIP3   OH274934   2.112   6.706   4.897 -0.5926  0.3801 -0.2179
17840TIP3    H174935   2.046   6.713   4.966 -2.2640  0.7394 -1.7883
17840TIP3    H274936   2.132   6.796   4.873 -1.3701  0.2765 -1.3801
17841TIP3   OH274937   3.503   0.870  13.918  0.2988 -0.1518 -0.7792
17841TIP3    H174938   3.413   0.899  13.908  0.5532  0.3929 -1.5992
17841TIP3    H274939   3.555   0.937  13.873  1.3639  1.1397  2.1021
17842TIP3   OH274940   5.973   5.391  16.546  0.0113  0.7504 -0.3685
17842TIP3    H174941   5.961   5.484  16.530 -0.6369  0.6516 -0.4490
17842TIP3    H274942   6.069   5.380  16.550  0.0842  1.5005  0.1779
17843TIP3   OH274943   3.246   2.281  13.389  0.8854 -0.2144 -0.6440
17843TIP3    H174944   3.216   2.203  13.342 -1.6492 -0.6043  1.3735
17843TIP3    H274945   3.300   2.328  13.326  1.2238 -2.8120 -2.4449
17844TIP3   OH274946   4.680   0.777   0.581 -0.2852 -0.3259 -0.4278
17844TIP3    H174947   4.590   0.759   0.553 -0.8644  1.0868  0.4106
17844TIP3    H274948   4.691   0.870   0.566  0.5064 -0.1809  0.9310
17845TIP3   OH274949   1.505   4.350  14.191  0.3135  0.0047 -0.3052
17845TIP3    H174950   1.417   4.386  14.207  0.3807  0.2921 -0.5602
17845TIP3    H274951   1.538   4.402  14.118  1.1773  0.7059  0.5710
17846TIP3   OH274952   0.520   3.818   3.214 -0.2895 -0.2189  0.0893
17846TIP3    H174953   0.553   3.729   3.219  0.0020 -0.2096 -1.2421
17846TIP3    H274954   0.565   3.865   3.284 -1.8401 -1.5002  2.0747
17847TIP3   OH274955   1.758   4.429   1.350 -0.6835 -0.5157  0.2429
17847TIP3    H174956   1.704   4.372   1.405 -0.4120  1.9962  3.3843
17847TIP3    H274957   1.848   4.398   1.365 -0.5814  0.3465  1.5612
17848TIP3   OH274958   6.493   0.681   0.396  0.2262  0.7975  0.3440
17848TIP3    H174959   6.440   0.759   0.412  0.1228  0.5434  1.2859
17848TIP3    H274960   6.543   0.702   0.317  0.5127  1.9764  0.8133
17849TIP3   OH274961   3.194   2.269   5.219  0.7018  0.1780 -0.4221
17849TIP3    H174962   3.142   2.219   5.282  1.1504  1.0185  0.6482
17849TIP3    H274963   3.130   2.323   5.173  0.3314 -0.6852 -0.9374
17850TIP3   OH274964   3.826   4.098   2.804 -0.2725 -0.6712  0.1364
17850TIP3    H174965   3.857   4.019   2.849  0.4847 -0.5914 -0.2192
17850TIP3    H274966   3.843   4.080   2.711  0.8940  0.3227  0.1311
17851TIP3   OH274967   0.043   4.002  15.680  0.1681 -0.4005 -0.3738
17851TIP3    H174968   0.004   3.977  15.597 -1.2184  0.7872 -0.1346
17851TIP3    H274969  -0.025   3.983  15.745  1.2258 -1.3177  0.5062
17852TIP3   OH274970   3.527   4.652   3.625 -0.1361 -0.7817  0.3051
17852TIP3    H174971   3.566   4.657   3.538 -0.2212 -1.0975  0.2453
17852TIP3    H274972   3.470   4.728   3.630  0.5226 -0.2805  0.4136
17853TIP3   OH274973   6.271   1.250   4.247  0.3607  0.3965  0.6920
17853TIP3    H174974   6.291   1.156   4.249 -1.9590 -0.3010 -2.2387
17853TIP3    H274975   6.346   1.289   4.202  0.1132 -0.5026 -0.5401
17854TIP3   OH274976   4.074   4.361  12.277  0.2695 -0.0416  0.6102
17854TIP3    H174977   4.107   4.414  12.350 -0.1332 -0.0297  0.7885
17854TIP3    H274978   4.094   4.271  12.301  2.7325  0.1115 -0.5896
17855TIP3   OH274979   5.055   4.887  11.409 -0.0338  0.2415 -0.1276
17855TIP3    H174980   5.121   4.925  11.468  1.9521 -0.5764 -1.6935
17855TIP3    H274981   5.049   4.795  11.436  1.2184 -0.2525 -1.3719
17856TIP3   OH274982   0.142   5.384  14.923 -0.1259 -0.5283 -0.7615
17856TIP3    H174983   0.191   5.331  14.860 -1.1097 -1.7127 -0.5715
17856TIP3    H274984   0.181   5.364  15.008  0.4010  0.1340 -0.8369
17857TIP3   OH274985   1.923   6.560  12.604 -0.9486 -0.3821 -0.0605
17857TIP3    H174986   1.888   6.543  12.691  0.4810 -0.1970  0.5881
17857TIP3    H274987   1.895   6.649  12.584  0.0547  0.1870  0.9333
17858TIP3   OH274988   4.984   2.758  13.418 -0.1204 -0.2993 -0.3857
17858TIP3    H174989   4.926   2.812  13.365  0.8792  2.5653  1.1978
17858TIP3    H274990   5.037   2.709  13.355  0.1107  1.9482 -2.0292
17859TIP3   OH274991   5.723   6.571   0.609  0.1080  0.2399 -0.1316
17859TIP3    H174992   5.686   6.647   0.654  0.0321  0.6401 -0.8594
17859TIP3    H274993   5.814   6.596   0.593  0.0092  0.2925 -0.6167
17860TIP3   OH274994   5.464   2.290   5.252  0.4058 -0.1860  0.0848
17860TIP3    H174995   5.555   2.274   5.227 -0.1224  0.3902 -2.5218
17860TIP3    H274996   5.442   2.374   5.211 -1.6699 -0.9628 -0.5258
17861TIP3   OH274997   2.571   0.710   0.794 -0.0413 -0.1586 -0.2445
17861TIP3    H174998   2.533   0.708   0.882 -1.0032 -3.1246 -0.6123
17861TIP3    H274999   2.497   0.693   0.735  1.0119 -0.8684 -1.4103
17862TIP3   OH275000   1.823   4.387   2.094 -0.4376  0.0645 -0.3906
17862TIP3    H175001   1.912   4.376   2.060  0.2785 -2.2061  1.9598
17862TIP3    H275002   1.818   4.480   2.118  1.9509 -0.0883  0.9976
17863TIP3   OH275003   3.449   2.049   0.442 -0.2399  0.6716  0.0248
17863TIP3    H175004   3.486   1.961   0.434 -0.2190  0.7421 -0.6604
17863TIP3    H275005   3.492   2.086   0.519 -0.1261  0.1436  0.2181
17864TIP3   OH275006   1.657   1.373  10.514 -0.3596 -0.3050  0.5238
17864TIP3    H175007   1.639   1.425  10.436  3.1645 -0.5373 -0.6435
17864TIP3    H275008   1.652   1.435  10.586  0.3538  0.9229 -0.4257
17865TIP3   OH275009   3.897   5.452   0.130 -0.0499 -0.2510  0.9583
17865TIP3    H175010   3.953   5.392   0.080  0.2531 -0.7327  1.8604
17865TIP3    H275011   3.955   5.490   0.196 -0.6207 -0.2212  1.4511
17866TIP3   OH275012   2.043   1.977  10.861 -0.7351 -0.1482 -0.0923
17866TIP3    H175013   2.096   2.051  10.889 -0.6426 -0.3396  0.2552
17866TIP3    H275014   2.049   1.915  10.934 -0.9022 -0.4475 -0.3299
17867TIP3   OH275015   1.893   5.418   1.596 -0.4163  0.1102  0.3285
17867TIP3    H175016   1.834   5.396   1.668 -1.0421  0.2898 -0.1298
17867TIP3    H275017   1.930   5.334   1.569  0.6421  0.1497  1.5483
17868TIP3   OH275018   2.158   2.191  11.828  0.2506 -0.5224 -0.0994
17868TIP3    H175019   2.249   2.217  11.841  1.0893 -2.8738 -0.7196
17868TIP3    H275020   2.129   2.242  11.753  0.4140  1.6147  1.2208
17869TIP3   OH275021   1.968   5.665   3.061  0.3541  0.0937  0.2057
17869TIP3    H175022   1.983   5.758   3.042 -0.7017  0.7208  2.1253
17869TIP3    H275023   1.999   5.654   3.151 -2.1549 -0.6702  1.0547
17870TIP3   OH275024   3.682   3.537  14.726  0.1360  0.4348 -0.0785
17870TIP3    H175025   3.682   3.566  14.817 -1.9269  3.0019 -0.7783
17870TIP3    H275026   3.664   3.443  14.731  0.6217  0.4009  2.1506
17871TIP3   OH275027   0.363   3.205   1.577 -0.0003  0.5692  0.2727
17871TIP3    H175028   0.388   3.276   1.516  1.5910 -0.3843 -0.2576
17871TIP3    H275029   0.398   3.234   1.661  2.0812 -0.2157 -0.2413
17872TIP3   OH275030   3.118   1.505   3.338 -0.0138 -0.1146  0.1039
17872TIP3    H175031   3.088   1.442   3.404 -0.3772 -0.7190 -0.6271
17872TIP3    H275032   3.039   1.525   3.287 -0.0345  1.3753  0.6736
17873TIP3   OH275033   3.295   3.980   5.130  0.1510 -1.0247 -0.6258
17873TIP3    H175034   3.323   4.071   5.146 -1.2924 -0.5659 -0.6293
17873TIP3    H275035   3.374   3.928   5.149  0.4833  0.0628  1.3019
17874TIP3   OH275036   6.090   5.151   1.411 -0.4459 -0.0969 -0.1349
17874TIP3    H175037   6.155   5.192   1.355 -0.2117  1.7498  1.3809
17874TIP3    H275038   6.140   5.088   1.463 -0.3481 -0.5064 -0.7108
17875TIP3   OH275039   3.391   4.308   2.648 -0.3175  0.1022 -0.0999
17875TIP3    H175040   3.465   4.367   2.665 -1.2363  0.7214  2.0887
17875TIP3    H275041   3.339   4.311   2.728 -1.7292 -1.7952 -0.8707
17876TIP3   OH275042   4.969   6.741  12.206 -0.7179  0.2410 -0.1170
17876TIP3    H175043   4.883   6.740  12.249  0.2202  0.1017  1.8739
17876TIP3    H275044   5.027   6.781  12.271  0.4383  1.8036 -2.0388
17877TIP3   OH275045   2.035   5.935  11.155 -0.1219  0.1076  0.6097
17877TIP3    H175046   2.007   5.950  11.065 -0.6081  0.0511  0.7472
17877TIP3    H275047   2.113   5.880  11.147 -0.5119 -0.3987  0.2412
17878TIP3   OH275048   2.071   0.792  13.474  0.4822  0.2900  0.1656
17878TIP3    H175049   1.979   0.767  13.460  0.2402  0.2368  1.7022
17878TIP3    H275050   2.120   0.735  13.414 -0.2862 -1.9405  1.5113
17879TIP3   OH275051   1.631   4.209   0.077 -0.0640 -0.0910 -0.0021
17879TIP3    H175052   1.536   4.208   0.086  0.0678 -2.4926  2.8394
17879TIP3    H275053   1.647   4.181  -0.014 -2.0489 -0.0156 -0.4145
17880TIP3   OH275054   6.060   2.460  13.479 -0.2664 -0.6200  0.4766
17880TIP3    H175055   6.094   2.413  13.403  2.1643 -0.5490  1.4267
17880TIP3    H275056   5.990   2.404  13.513 -0.5647 -1.2335 -1.0889
17881TIP3   OH275057   1.668   6.623  13.965  0.3210 -0.1951 -0.1973
17881TIP3    H175058   1.650   6.700  14.019 -1.7210 -0.7697  0.0452
17881TIP3    H275059   1.617   6.553  14.006  0.1921 -1.0866 -1.8010
17882TIP3   OH275060   3.647   2.246   4.030  0.5006  0.2843  0.5351
17882TIP3    H175061   3.602   2.288   3.957 -1.0261  0.3185  1.4424
17882TIP3    H275062   3.725   2.208   3.992  0.6143  1.7569 -0.7896
17883TIP3   OH275063   3.344   0.352   0.653  0.9401  0.1940  0.7276
17883TIP3    H175064   3.253   0.373   0.635 -0.1265 -3.1700  1.4616
17883TIP3    H275065   3.386   0.352   0.567  0.0338  0.8657  0.2727
17884TIP3   OH275066   3.188   3.233   1.285  0.2395  0.1064 -0.6282
17884TIP3    H175067   3.116   3.172   1.268 -0.1499 -0.6937  3.0720
17884TIP3    H275068   3.264   3.194   1.241 -0.6613 -1.4185 -0.9068
17885TIP3   OH275069   5.983   4.366   2.741  0.4856 -0.5214 -0.7029
17885TIP3    H175070   5.951   4.413   2.664  0.9966  0.2647 -0.4473
17885TIP3    H275071   6.068   4.406   2.760  0.3624 -0.6934  0.2798
17886TIP3   OH275072   1.292   3.030  15.972  0.0041  0.2660 -0.1268
17886TIP3    H175073   1.320   3.100  15.913 -0.3311  0.3973 -0.1282
17886TIP3    H275074   1.265   2.959  15.914  3.0229 -1.0044 -0.2007
17887TIP3   OH275075   0.310   3.574  11.569 -0.1221  0.3929 -0.6711
17887TIP3    H175076   0.312   3.663  11.604 -0.0700  1.7271 -3.7488
17887TIP3    H275077   0.218   3.549  11.571 -0.0297  0.0227  1.1377
17888TIP3   OH275078   4.927   6.420  11.628 -0.3825 -0.6044 -0.2258
17888TIP3    H175079   4.837   6.418  11.598 -0.9283  2.0329  0.9583
17888TIP3    H275080   4.937   6.505  11.671  2.4644 -1.0949  0.3346
17889TIP3   OH275081   2.548   6.628  15.722 -0.2036  0.4365  0.0952
17889TIP3    H175082   2.483   6.560  15.737  0.0233  0.4791  1.3736
17889TIP3    H275083   2.590   6.603  15.639 -0.7045 -0.4981  0.1100
17890TIP3   OH275084   6.460   3.316   2.401 -0.8137  0.1153 -0.5085
17890TIP3    H175085   6.491   3.226   2.410 -1.3992  0.0110  0.6811
17890TIP3    H275086   6.523   3.368   2.452  0.2268  0.5712 -2.1758
17891TIP3   OH275087   3.641   1.768   2.285  0.1372  0.0246 -0.5551
17891TIP3    H175088   3.643   1.857   2.318  2.7274  0.3604 -1.4472
17891TIP3    H275089   3.731   1.737   2.291 -0.6132 -2.4183 -0.6177
17892TIP3   OH275090   1.762   4.223   2.346 -0.5594 -0.6009 -0.0456
17892TIP3    H175091   1.830   4.241   2.282 -1.6891 -2.5643 -1.9113
17892TIP3    H275092   1.700   4.295   2.336  0.1092  0.0028  0.0762
17893TIP3   OH275093   2.123   3.366   5.433  0.5314 -0.2726  0.0092
17893TIP3    H175094   2.206   3.329   5.401  0.2842 -1.4040  0.6188
17893TIP3    H275095   2.106   3.440   5.375  1.0484 -1.1258 -1.2693
17894TIP3   OH275096   3.404   5.012   1.345  0.8384 -0.0633  0.5098
17894TIP3    H175097   3.362   5.092   1.375  1.9177  0.3058  1.1022
17894TIP3    H275098   3.333   4.949   1.335 -0.1738  1.2374 -0.9273
17895TIP3   OH275099   1.505   1.665   1.095  0.8182 -0.0230  0.6075
17895TIP3    H175100   1.510   1.573   1.119  0.7641 -0.5084 -1.1073
17895TIP3    H275101   1.595   1.696   1.101  1.0702 -0.5765 -0.1816
17896TIP3   OH275102   3.613   2.755  14.451 -0.2726 -0.3130 -0.2932
17896TIP3    H175103   3.686   2.736  14.510 -0.0820 -0.1966 -0.4862
17896TIP3    H275104   3.639   2.837  14.407 -0.4970 -0.2975 -0.3973
17897TIP3   OH275105   5.403   0.693  12.766  0.4522  0.5082 -0.2443
17897TIP3    H175106   5.444   0.687  12.680  0.6266  0.7170 -0.1770
17897TIP3    H275107   5.465   0.651  12.825  0.7351  1.1307 -0.0895
17898TIP3   OH275108   4.639   5.358   4.041 -0.6356 -0.2140  0.0364
17898TIP3    H175109   4.634   5.416   3.966 -0.9619  0.6366  0.6956
17898TIP3    H275110   4.733   5.345   4.056 -0.5446  0.5818  0.1980
17899TIP3   OH275111   0.161   3.375  10.315 -0.6159  0.2168 -0.3203
17899TIP3    H175112   0.193   3.392  10.227  0.2846 -0.8520 -0.2270
17899TIP3    H275113   0.240   3.367  10.368 -1.1170  0.0339  0.4160
17900TIP3   OH275114   5.330   3.593  12.838  0.1275 -0.4995 -0.3955
17900TIP3    H175115   5.384   3.668  12.815 -0.3688 -0.1445 -0.4135
17900TIP3    H275116   5.392   3.528  12.870  0.6063 -0.2379 -0.7705
17901TIP3   OH275117   4.777   4.538  16.956  0.4226 -0.0100  1.1019
17901TIP3    H175118   4.761   4.624  16.917  1.2122 -0.2062  0.2961
17901TIP3    H275119   4.760   4.549  17.049  1.6513  1.3345  1.2029
17902TIP3   OH275120   4.730   4.428   5.303 -0.1483  0.1762  0.1644
17902TIP3    H175121   4.760   4.387   5.384 -1.0325 -2.1252 -0.6002
17902TIP3    H275122   4.637   4.441   5.316 -0.2885 -0.1716 -0.4556
17903TIP3   OH275123   4.207   5.372  13.873 -0.0283  0.2565  0.4966
17903TIP3    H175124   4.275   5.304  13.868  0.1851  0.5195 -0.2130
17903TIP3    H275125   4.129   5.324  13.900  0.2042 -0.2117  0.3572
17904TIP3   OH275126   4.355   1.051   1.928 -0.3405  0.6949  0.5579
17904TIP3    H175127   4.336   1.132   1.974 -1.5593  1.0900 -0.5774
17904TIP3    H275128   4.302   1.055   1.848 -0.0193 -0.9665  0.2093
17905TIP3   OH275129   0.608   2.662   2.957  0.1071 -0.0774  0.0440
17905TIP3    H175130   0.598   2.752   2.924  0.2343 -0.1205 -0.1152
17905TIP3    H275131   0.695   2.661   2.997 -0.4403  0.2577  1.2961
17906TIP3   OH275132   4.294   4.571   5.775  0.2854  0.5590 -0.4720
17906TIP3    H175133   4.223   4.598   5.833 -0.0871  0.3842 -0.8418
17906TIP3    H275134   4.314   4.481   5.801  0.5326  0.6839 -0.2165
17907TIP3   OH275135   3.233   2.556   3.510  0.4076  0.0069  0.6022
17907TIP3    H175136   3.238   2.645   3.547  1.8103  0.0414  0.3998
17907TIP3    H275137   3.173   2.510   3.568  0.4914  0.8003  1.3510
17908TIP3   OH275138   3.170   2.626   0.348  0.0921 -0.3634 -0.3555
17908TIP3    H175139   3.241   2.569   0.379  1.2355  0.1229 -1.9230
17908TIP3    H275140   3.109   2.567   0.304  0.7130 -0.5295 -1.0105
17909TIP3   OH275141   0.941   0.027  13.633 -0.1276 -0.1510  0.1632
17909TIP3    H175142   0.939  -0.067  13.654  2.3692 -0.3771 -0.3437
17909TIP3    H275143   1.034   0.049  13.629 -0.6466  2.5199  0.8568
17910TIP3   OH275144   0.641   3.908   3.460 -0.0308 -0.0159  0.4484
17910TIP3    H175145   0.595   3.931   3.540  0.2153 -0.1533  0.6277
17910TIP3    H275146   0.711   3.849   3.488  0.4095  0.3909  0.2065
17911TIP3   OH275147   1.707   3.646   5.537  0.7563  0.6625  0.1214
17911TIP3    H175148   1.794   3.611   5.556  0.8303 -0.0365 -1.3201
17911TIP3    H275149   1.709   3.664   5.443 -1.0068 -0.4758 -0.1727
17912TIP3   OH275150   0.740   0.428   2.740 -0.1706  0.0158  0.3551
17912TIP3    H175151   0.787   0.345   2.750 -0.7217 -0.5762 -1.4697
17912TIP3    H275152   0.809   0.494   2.738  0.5036 -0.6729 -0.5781
17913TIP3   OH275153   2.894   2.686   1.449 -0.4445  0.3911 -0.5862
17913TIP3    H175154   2.832   2.613   1.440 -0.1871  0.1485 -0.4156
17913TIP3    H275155   2.969   2.648   1.495 -2.0600  1.7552  3.6348
17914TIP3   OH275156   6.023   6.559   0.124  0.2088 -0.3702  0.2372
17914TIP3    H175157   6.032   6.466   0.105 -0.9367 -0.6578  0.9930
17914TIP3    H275158   5.953   6.564   0.189  0.4409  0.9985  0.4217
17915TIP3   OH275159   6.376   6.121   1.024 -0.1497  0.6119  0.8028
17915TIP3    H175160   6.292   6.165   1.012 -0.0207  0.4065 -1.1979
17915TIP3    H275161   6.440   6.192   1.032 -0.5451  0.7898  3.2462
17916TIP3   OH275162   2.366   4.479   6.231  0.0819 -0.2794 -0.2798
17916TIP3    H175163   2.287   4.507   6.278 -1.9773 -2.9128 -1.9062
17916TIP3    H275164   2.369   4.534   6.153 -0.0629 -0.0699 -0.1379
17917TIP3   OH275165   6.409   3.663   5.689 -0.0972 -0.0875  0.0386
17917TIP3    H175166   6.472   3.635   5.755  0.2611  1.2482  0.3051
17917TIP3    H275167   6.329   3.616   5.709  0.3150 -0.4819  0.7820
17918TIP3   OH275168   4.997   4.386  11.553 -0.5462 -0.9966 -0.1802
17918TIP3    H175169   4.997   4.301  11.510  0.7348 -1.5475  0.8330
17918TIP3    H275170   4.959   4.370  11.640 -1.3980 -0.2818 -0.4027
17919TIP3   OH275171   4.623   5.012   3.961 -0.3668 -0.2772  0.3652
17919TIP3    H175172   4.577   4.931   3.985 -0.5225 -0.8403 -1.6584
17919TIP3    H275173   4.715   4.993   3.979 -0.2929 -1.2789 -0.9255
17920TIP3   OH275174   0.185   4.434  16.773 -0.1073  0.3300 -0.7223
17920TIP3    H175175   0.230   4.393  16.847  1.9652  1.4191 -1.2911
17920TIP3    H275176   0.252   4.489  16.732 -1.7431  1.3173 -2.2186
17921TIP3   OH275177   4.888   5.470  16.175  0.1693 -0.6459  0.8053
17921TIP3    H175178   4.889   5.376  16.189 -0.3123 -1.0194 -1.3669
17921TIP3    H275179   4.926   5.482  16.088  1.5610  1.3117  1.5999
17922TIP3   OH275180   6.467   0.642  15.046  0.2323 -0.0261  0.1376
17922TIP3    H175181   6.468   0.712  14.981 -0.7006 -1.3349 -1.3437
17922TIP3    H275182   6.423   0.680  15.122  0.5372  1.2588 -0.3090
17923TIP3   OH275183   3.577   3.544   3.314 -0.2784 -0.1508  0.4054
17923TIP3    H175184   3.634   3.615   3.343  0.6366 -0.1712 -1.2488
17923TIP3    H275185   3.539   3.576   3.232 -1.3169 -0.8401  0.5965
17924TIP3   OH275186   3.300   2.014   1.342  0.6921 -0.0740 -0.2041
17924TIP3    H175187   3.294   1.966   1.260  1.1232 -0.9583  0.2724
17924TIP3    H275188   3.263   2.100   1.322  0.8336 -0.2621 -1.3343
17925TIP3   OH275189   4.298   3.569   5.368  0.0886 -0.3807  0.2698
17925TIP3    H175190   4.274   3.478   5.384 -0.0741 -0.5397 -0.7914
17925TIP3    H275191   4.281   3.582   5.274 -3.5654  1.7842  1.0066
17926TIP3   OH275192   2.960   2.991   3.302 -0.4134  0.0675  0.4392
17926TIP3    H175193   2.914   3.049   3.363 -0.4711  1.8253 -1.1683
17926TIP3    H275194   2.926   3.015   3.216  0.9537 -1.0743 -0.4692
17927TIP3   OH275195   5.438   0.667   2.545  0.3376  0.0480 -0.0326
17927TIP3    H175196   5.450   0.759   2.522 -1.7212  0.1305 -0.9990
17927TIP3    H275197   5.343   0.654   2.541  0.3250 -1.4305  2.8133
17928TIP3   OH275198   2.412   3.152  10.284 -0.2853 -0.2533  0.2138
17928TIP3    H175199   2.485   3.164  10.222 -0.5572 -0.7343 -0.2085
17928TIP3    H275200   2.450   3.105  10.358 -0.4176 -1.6315 -0.5533
17929TIP3   OH275201   5.679   4.673  14.972 -0.1861 -0.2431 -0.2975
17929TIP3    H175202   5.727   4.604  14.925 -0.5206 -0.5669 -0.1781
17929TIP3    H275203   5.605   4.626  15.012 -0.3792  0.1783 -0.1607
17930TIP3   OH275204   2.182   3.108   4.286  0.0841  0.0490 -0.2285
17930TIP3    H175205   2.170   3.203   4.295  0.9683  0.0148  2.0699
17930TIP3    H275206   2.135   3.085   4.206 -3.0966  1.9178  0.9397
17931TIP3   OH275207   4.085   1.017  12.590  0.2060  0.0328  0.2924
17931TIP3    H175208   4.138   1.066  12.654  2.1882  0.5998 -1.6607
17931TIP3    H275209   4.129   0.932  12.582 -1.5035 -1.0134  1.4760
17932TIP3   OH275210   5.774   0.902   4.022 -1.0552  0.1666 -0.3594
17932TIP3    H175211   5.681   0.882   4.025 -1.2201  0.8829 -0.5756
17932TIP3    H275212   5.787   0.946   3.938 -0.2209 -1.3579 -1.0826
17933TIP3   OH275213   0.748   2.657  16.115 -0.4988 -0.4001 -0.0970
17933TIP3    H175214   0.819   2.616  16.165 -0.3587  0.1678  0.1710
17933TIP3    H275215   0.673   2.600  16.131 -0.2117 -0.7755 -0.0471
17934TIP3   OH275216   5.507   4.875   6.604 -0.2860  0.2257  0.3506
17934TIP3    H175217   5.536   4.807   6.542 -0.0293  0.4335  0.2439
17934TIP3    H275218   5.422   4.903   6.569  0.8023  1.8561 -1.1366
17935TIP3   OH275219   6.383   3.388  12.919 -0.3521 -0.2276  0.0371
17935TIP3    H175220   6.327   3.428  12.853 -0.3891 -1.0564 -0.4311
17935TIP3    H275221   6.419   3.463  12.967 -1.5533  0.3294  0.1049
17936TIP3   OH275222   1.437   5.730   3.473  0.0484  0.3178 -0.2505
17936TIP3    H175223   1.355   5.696   3.437  0.3747 -0.2532 -0.4632
17936TIP3    H275224   1.461   5.802   3.415 -0.6115  0.8957  0.1667
17937TIP3   OH275225   4.194   4.441   3.133 -0.1437 -0.4336 -0.0309
17937TIP3    H175226   4.151   4.511   3.085  0.0365  0.7836  1.4770
17937TIP3    H275227   4.278   4.429   3.088  0.0684  0.7416  0.0052
17938TIP3   OH275228   3.733   4.650  13.745  0.2350 -0.3499  0.8500
17938TIP3    H175229   3.761   4.612  13.829 -1.4472 -1.8902  0.7704
17938TIP3    H275230   3.751   4.582  13.681  0.2379  0.2845  0.1719
17939TIP3   OH275231   0.893   2.099  14.602  0.5063 -0.3853 -0.6652
17939TIP3    H175232   0.897   2.118  14.696  1.0399 -1.1475 -0.5188
17939TIP3    H275233   0.807   2.129  14.575  1.4019  2.5712 -0.5675
17940TIP3   OH275234   2.291   2.828   5.766  0.8255 -0.5644  0.3794
17940TIP3    H175235   2.312   2.800   5.855 -0.1367 -4.0192 -0.3270
17940TIP3    H275236   2.322   2.919   5.761  0.0485  0.1059  4.4826
17941TIP3   OH275237   6.247   5.357  16.588  0.0812 -0.0169 -0.4876
17941TIP3    H175238   6.255   5.413  16.665 -0.0891  0.3220 -0.7104
17941TIP3    H275239   6.296   5.278  16.610  0.5324  0.3195 -0.2545
17942TIP3   OH275240   2.711   3.446  14.412  0.7670  0.5527 -0.1510
17942TIP3    H175241   2.677   3.478  14.328 -2.7233 -2.1206  0.0132
17942TIP3    H275242   2.685   3.354  14.414  2.1499  0.1125  3.2387
17943TIP3   OH275243   0.661   0.323  10.101  0.7682  0.4695  0.0805
17943TIP3    H175244   0.609   0.258  10.054  0.4031  1.5260 -1.0174
17943TIP3    H275245   0.702   0.274  10.172  0.1773 -0.8700 -0.4761
17944TIP3   OH275246   2.914   2.702  13.289  0.0743  0.1555  0.4809
17944TIP3    H175247   3.007   2.696  13.311  0.5422  0.3603 -1.2562
17944TIP3    H275248   2.869   2.662  13.363  1.6142 -1.2040  0.7403
17945TIP3   OH275249   6.792   5.278   6.411 -0.5112 -0.5033  0.0183
17945TIP3    H175250   6.886   5.280   6.429 -0.2472  0.8764 -1.2765
17945TIP3    H275251   6.782   5.214   6.342  0.1086  1.9707 -2.5625
17946TIP3   OH275252   2.356   0.814   2.323 -0.2956  0.7064  0.4627
17946TIP3    H175253   2.382   0.888   2.379  1.4550  0.4127  0.1078
17946TIP3    H275254   2.382   0.841   2.235 -2.2440  0.8032 -0.1292
17947TIP3   OH275255   2.682   5.408   4.344 -0.1673  0.0135 -0.2515
17947TIP3    H175256   2.683   5.489   4.293 -0.4903  0.1825  0.0006
17947TIP3    H275257   2.700   5.435   4.434  0.5790 -0.3052 -0.3011
17948TIP3   OH275258   3.315   4.681  13.643  0.1384 -0.2760  1.1971
17948TIP3    H175259   3.277   4.763  13.611  1.6464  0.0811  0.2248
17948TIP3    H275260   3.239   4.629  13.671 -1.0733  0.3729 -0.6907
17949TIP3   OH275261   2.385   3.812  13.579 -0.0219 -0.3899 -0.0328
17949TIP3    H175262   2.348   3.726  13.600  0.8016 -0.5978  0.5857
17949TIP3    H275263   2.439   3.797  13.501 -1.6876  0.0401 -1.3343
17950TIP3   OH275264   4.683   6.384   2.693  0.3807 -0.1820 -0.0441
17950TIP3    H175265   4.671   6.395   2.787 -2.2071 -0.4359 -0.2856
17950TIP3    H275266   4.640   6.460   2.654  3.0112  0.9125 -1.0366
17951TIP3   OH275267   1.013   0.853   4.876 -0.2741  0.2637 -0.1587
17951TIP3    H175268   1.044   0.797   4.948 -0.1113  2.3260  1.4794
17951TIP3    H275269   1.092   0.877   4.828 -0.2433 -0.2632 -0.3730
17952TIP3   OH275270   6.313   6.118  11.780  0.4193  0.4440 -0.4102
17952TIP3    H175271   6.251   6.188  11.758 -1.3384 -1.5743 -2.3224
17952TIP3    H275272   6.323   6.124  11.875 -0.8043  2.3650 -0.3513
17953TIP3   OH275273   3.305   1.125   5.919  0.4209  0.4448 -0.0696
17953TIP3    H175274   3.322   1.159   6.007  0.5450  2.4750 -0.8221
17953TIP3    H275275   3.343   1.038   5.919  3.7648  1.7573  0.7873
17954TIP3   OH275276   0.251   6.403  16.667 -0.1846 -0.4510  0.2059
17954TIP3    H175277   0.309   6.334  16.699 -0.2764 -0.6789 -0.1163
17954TIP3    H275278   0.242   6.385  16.573 -2.3709 -1.5976  0.5882
17955TIP3   OH275279   4.997   4.457   4.510  1.0688  0.0231 -0.3987
17955TIP3    H175280   4.950   4.417   4.583  1.1803 -2.3140 -1.5329
17955TIP3    H275281   5.089   4.455   4.538  0.8930  1.3930  0.3676
17956TIP3   OH275282   2.390   4.476  14.690 -0.0645  0.1579 -0.2261
17956TIP3    H175283   2.367   4.397  14.642 -1.5910 -0.0200  0.7439
17956TIP3    H275284   2.405   4.447  14.780  1.5267  0.6734 -0.2782
17957TIP3   OH275285   0.836   1.545  11.596  0.9866  0.4697  0.1247
17957TIP3    H175286   0.779   1.518  11.524 -0.3647 -0.7294  1.5843
17957TIP3    H275287   0.889   1.468  11.616  2.1124  1.1187 -0.2353
17958TIP3   OH275288   4.997   3.229  13.743  0.0771  0.5596 -0.1415
17958TIP3    H175289   5.087   3.245  13.713  0.4187 -2.2818 -0.9300
17958TIP3    H275290   4.967   3.155  13.690 -1.4962 -0.8040  2.4464
17959TIP3   OH275291   2.692   5.818   0.532  0.4807 -0.9795  0.2326
17959TIP3    H175292   2.663   5.828   0.623  0.6310 -1.9200  0.3860
17959TIP3    H275293   2.746   5.739   0.532  0.9306 -0.6880 -0.5703
17960TIP3   OH275294   1.240   6.523  12.525 -0.7499 -0.0505  0.7016
17960TIP3    H175295   1.153   6.527  12.565 -0.8288  2.0540  0.4092
17960TIP3    H275296   1.225   6.546  12.434  0.3434  2.5802  1.1072
17961TIP3   OH275297   1.330   2.433   2.431 -0.2839  0.0224 -0.8016
17961TIP3    H175298   1.239   2.411   2.416 -0.9933  1.3254  1.1120
17961TIP3    H275299   1.366   2.450   2.344 -2.1437  0.4779 -1.5308
17962TIP3   OH275300   4.697   5.911  12.248  0.4016 -0.1869 -0.2726
17962TIP3    H175301   4.629   5.852  12.215  0.6174 -1.0574  0.7969
17962TIP3    H275302   4.651   5.993  12.265 -0.2785 -0.5972 -0.0902
17963TIP3   OH275303   3.796   2.070   4.547  0.1066  0.1207  0.6477
17963TIP3    H175304   3.823   2.019   4.470 -1.0911 -2.1417  1.6355
17963TIP3    H275305   3.707   2.039   4.566 -1.0932  3.2981  0.8002
17964TIP3   OH275306   6.524   5.208   5.373  0.2249  0.0396 -0.0293
17964TIP3    H175307   6.514   5.126   5.422 -0.5512 -0.2688 -0.6845
17964TIP3    H275308   6.458   5.266   5.411 -1.2159 -0.5849 -1.4591
17965TIP3   OH275309   4.961   6.502  12.597 -0.1362  0.4002  0.3689
17965TIP3    H175310   5.051   6.478  12.574 -0.6508 -1.5488  0.1300
17965TIP3    H275311   4.970   6.563  12.670  1.3806  0.6017  0.0529
17966TIP3   OH275312   4.216   6.340   2.791  0.1617  0.8991 -0.3244
17966TIP3    H175313   4.286   6.334   2.856 -1.2577 -1.9170  1.0962
17966TIP3    H275314   4.261   6.327   2.707  1.7079  2.3071  0.2340
17967TIP3   OH275315   3.669   1.620  11.723 -0.0092  0.1135 -0.1464
17967TIP3    H175316   3.694   1.627  11.815 -1.3807 -1.9914  0.4707
17967TIP3    H275317   3.749   1.593  11.678  0.4406  0.2081  0.5922
17968TIP3   OH275318   4.638   5.459   0.373 -0.2160  0.4763  0.5414
17968TIP3    H175319   4.690   5.389   0.412 -1.0667  0.3508  1.4997
17968TIP3    H275320   4.677   5.474   0.287  1.1669  0.1430  1.0876
17969TIP3   OH275321   6.542   5.578   4.886 -0.5936 -0.1799  0.0122
17969TIP3    H175322   6.575   5.666   4.870  1.2272 -0.9351 -0.6594
17969TIP3    H275323   6.603   5.540   4.950 -1.6334 -0.8053  0.6773
17970TIP3   OH275324   6.157   4.793  16.876 -0.0715  0.0009  0.2680
17970TIP3    H175325   6.091   4.738  16.918  0.2483 -0.3054  0.3820
17970TIP3    H275326   6.111   4.874  16.854  0.0693  0.7391  2.4723
17971TIP3   OH275327   3.614   4.333  11.980  0.2435  0.5253 -0.0020
17971TIP3    H175328   3.586   4.342  11.889 -1.9030  1.3342  0.6749
17971TIP3    H275329   3.706   4.361  11.980  0.9119 -1.3784 -2.2094
17972TIP3   OH275330   4.025   2.346  11.995 -0.3334  0.2507 -0.1481
17972TIP3    H175331   4.048   2.330  11.904  1.4083 -1.0803  0.4706
17972TIP3    H275332   4.048   2.437  12.010 -0.9287  0.5715 -1.1004
17973TIP3   OH275333   1.147   0.820   2.312  0.2653 -0.0099  0.1007
17973TIP3    H175334   1.072   0.862   2.354  0.3264  0.3699 -0.1698
17973TIP3    H275335   1.110   0.742   2.269 -0.3601  1.2316 -1.7493
17974TIP3   OH275336   6.121   3.345   3.899 -0.1092  0.3773  0.1156
17974TIP3    H175337   6.143   3.436   3.881 -0.8072  0.5373  0.0504
17974TIP3    H275338   6.205   3.299   3.896  0.4515  1.2519  1.6091
17975TIP3   OH275339   2.348   1.415  14.952  0.0669  0.0482  0.0607
17975TIP3    H175340   2.363   1.381  14.863 -0.2450  0.2508 -0.0711
17975TIP3    H275341   2.356   1.339  15.009  1.6030  0.1375  0.0023
17976TIP3   OH275342   0.522   4.402  12.805  0.0215 -0.5766 -0.4439
17976TIP3    H175343   0.513   4.474  12.868 -0.0178  0.7867 -1.9243
17976TIP3    H275344   0.437   4.358  12.806 -0.2951  0.0306 -0.2393
17977TIP3   OH275345   1.345   5.828  11.068 -0.6785 -0.0291  0.4115
17977TIP3    H175346   1.420   5.860  11.119 -0.0871  3.7242 -2.4097
17977TIP3    H275347   1.382   5.758  11.014  0.7618  1.4383 -0.5884
17978TIP3   OH275348   0.934   2.851  16.395  0.1910  0.4140 -0.3098
17978TIP3    H175349   0.941   2.879  16.304 -0.2843  1.5300 -0.0188
17978TIP3    H275350   0.855   2.797  16.398 -0.8056  1.8141 -0.2402
17979TIP3   OH275351   2.072   0.063   4.073  0.1761 -0.1533  0.3793
17979TIP3    H175352   2.094   0.090   4.163 -0.5591 -1.5321  0.9976
17979TIP3    H275353   2.134  -0.007   4.053  1.1064  0.9234 -0.6652
17980TIP3   OH275354   2.874   1.226   0.794  0.4050  0.1881 -0.5584
17980TIP3    H175355   2.862   1.146   0.743  2.2169 -0.3154 -0.2686
17980TIP3    H275356   2.785   1.257   0.812 -0.3469 -1.8713 -0.4867
17981TIP3   OH275357   4.304   3.793   2.876  0.5027 -0.2315 -0.1889
17981TIP3    H175358   4.268   3.706   2.894  2.6860 -1.1941 -0.2048
17981TIP3    H275359   4.369   3.807   2.945  0.1244  1.4476 -0.1427
17982TIP3   OH275360   6.566   0.481  12.685  0.4023 -0.5070 -0.1741
17982TIP3    H175361   6.649   0.459  12.644  1.2527 -0.5325  1.4668
17982TIP3    H275362   6.571   0.575  12.704 -0.6734 -0.1307 -1.5983
17983TIP3   OH275363   4.282   0.697  10.671 -0.0939 -0.2447 -0.3152
17983TIP3    H175364   4.239   0.719  10.588  0.8549 -0.1505 -0.8057
17983TIP3    H275365   4.286   0.781  10.717  2.1117  0.4015 -1.5152
17984TIP3   OH275366   3.570   0.626  14.252  0.6854  0.3205 -0.0137
17984TIP3    H175367   3.475   0.626  14.240  0.5880 -2.6332  0.1696
17984TIP3    H275368   3.595   0.718  14.245 -2.0924  1.1005 -0.7258
17985TIP3   OH275369   0.153   1.629  15.349 -0.0023 -0.2416  0.2911
17985TIP3    H175370   0.104   1.605  15.270 -0.8310 -0.5269  0.8724
17985TIP3    H275371   0.240   1.652  15.318 -0.5946  0.5918 -0.8113
17986TIP3   OH275372   5.768   0.638  12.635 -0.4471  0.3838 -0.0085
17986TIP3    H175373   5.773   0.726  12.673  0.1335  1.1508 -1.7550
17986TIP3    H275374   5.674   0.622  12.624 -0.5345  1.5494 -1.2645
17987TIP3   OH275375   1.862   3.183   2.537 -0.4558  0.1838 -0.2461
17987TIP3    H175376   1.795   3.228   2.589  1.0371  2.9002 -0.5160
17987TIP3    H275377   1.838   3.202   2.446 -0.3710 -0.4514 -0.4040
17988TIP3   OH275378   4.764   4.442  13.525  0.0319 -0.3655  0.1871
17988TIP3    H175379   4.751   4.348  13.540  0.3614 -0.5271 -0.5011
17988TIP3    H275380   4.789   4.449  13.433 -0.3665  0.4435  0.1303
17989TIP3   OH275381   3.134   5.036   6.524 -0.8422  0.6778 -0.0876
17989TIP3    H175382   3.138   4.977   6.599 -1.2627  0.5734 -0.1445
17989TIP3    H275383   3.222   5.032   6.485 -0.8346  0.1728 -0.0267
17990TIP3   OH275384   3.198   1.318   4.553  0.2089  0.4332 -0.9931
17990TIP3    H175385   3.137   1.315   4.479 -1.2016 -2.5029  0.1577
17990TIP3    H275386   3.161   1.383   4.612  0.3174  1.4169 -1.9752
17991TIP3   OH275387   0.132   5.027   4.001 -0.7176  0.1492 -0.0408
17991TIP3    H175388   0.161   4.969   4.072 -1.2210 -0.7319 -0.5272
17991TIP3    H275389   0.085   5.097   4.044 -0.8526 -0.2738  0.5144
17992TIP3   OH275390   1.081   0.372   4.111 -0.2707 -0.6563 -0.4092
17992TIP3    H175391   1.064   0.392   4.019  0.2482  1.9987 -0.0001
17992TIP3    H275392   1.177   0.372   4.118 -0.1022  4.2390  0.9151
17993TIP3   OH275393   6.359   6.358  12.914  0.2953  0.0880  0.0431
17993TIP3    H175394   6.396   6.403  12.990  0.7099 -0.3455  0.1104
17993TIP3    H275395   6.294   6.298  12.951 -0.1145  0.4911 -0.0266
17994TIP3   OH275396   4.260   2.449   3.827 -0.1256 -0.5319 -0.7066
17994TIP3    H175397   4.267   2.520   3.763 -3.0546 -0.7184 -1.3580
17994TIP3    H275398   4.281   2.491   3.911 -0.2614  0.7202 -1.2760
17995TIP3   OH275399   4.370   2.816   1.198  0.2907  0.0664  0.3371
17995TIP3    H175400   4.295   2.875   1.195 -0.5338 -0.9948 -1.0757
17995TIP3    H275401   4.433   2.853   1.136  1.0723  1.0704  1.6735
17996TIP3   OH275402   1.794   5.975   5.858  0.1059  0.1075  0.5356
17996TIP3    H175403   1.720   6.027   5.890  0.5869 -0.4549  2.7097
17996TIP3    H275404   1.842   5.950   5.937  0.7232 -2.3669 -0.5192
17997TIP3   OH275405   3.934   5.799  13.556  0.0810 -0.1062 -0.4249
17997TIP3    H175406   3.876   5.825  13.484  0.3014  1.6776 -0.0101
17997TIP3    H275407   3.875   5.774  13.626 -0.1418 -0.9726 -0.9062
17998TIP3   OH275408   0.858   3.967  11.178 -0.7384  0.7765 -0.0365
17998TIP3    H175409   0.840   3.884  11.222 -1.5588 -0.0673 -1.8924
17998TIP3    H275410   0.789   3.975  11.112  0.1385  2.2606 -0.8156
17999TIP3   OH275411   3.972   1.787  14.307  0.6833  0.1152  0.2231
17999TIP3    H175412   3.981   1.696  14.333  1.4372  0.1610  0.1442
17999TIP3    H275413   3.897   1.788  14.248 -0.0683 -0.2466  1.1442
18000TIP3   OH275414   4.561   0.027   1.179  0.2817  0.2735 -0.0969
18000TIP3    H175415   4.546  -0.007   1.090  0.4034  1.0328 -0.4148
18000TIP3    H275416   4.474   0.045   1.213  0.0836 -1.9786  0.7518
18001TIP3   OH275417   5.584   5.890  13.654  0.0710  0.4958 -0.6626
18001TIP3    H175418   5.537   5.843  13.585  0.4394  1.4306 -1.5675
18001TIP3    H275419   5.515   5.916  13.715 -0.2316 -0.5420 -0.5389
18002TIP3   OH275420   5.783   2.311  15.317  0.3571 -0.2867  0.7578
18002TIP3    H175421   5.834   2.349  15.388  1.0258 -0.5416  0.4222
18002TIP3    H275422   5.765   2.221  15.345  1.2523 -0.6218  0.2953
18003TIP3   OH275423   5.114   5.887  10.864 -0.3638  0.3893  0.0756
18003TIP3    H175424   5.168   5.829  10.919  1.5650  0.7197 -1.3765
18003TIP3    H275425   5.110   5.968  10.914  0.2433  0.2661  0.3447
18004TIP3   OH275426   4.544   2.690  13.878  0.6328 -0.5094  0.1283
18004TIP3    H175427   4.484   2.724  13.812  0.3670 -0.2271  0.5104
18004TIP3    H275428   4.570   2.767  13.928  1.7278 -0.5469 -0.3548
18005TIP3   OH275429   1.570   3.137  15.515 -0.2709  0.3843 -0.5349
18005TIP3    H175430   1.597   3.196  15.585  0.4851 -2.1410  1.4808
18005TIP3    H275431   1.621   3.057  15.530 -1.9198 -1.1562 -2.4751
18006TIP3   OH275432   6.457   0.075   0.073 -0.4952 -0.3628  0.2043
18006TIP3    H175433   6.405  -0.005   0.088  0.1562 -0.7719  0.3310
18006TIP3    H275434   6.548   0.045   0.079 -0.2412  0.6268  1.4933
18007TIP3   OH275435   3.531   1.961  16.437  0.1439  0.6337 -0.8158
18007TIP3    H175436   3.547   1.919  16.352  0.0405 -2.2339  0.4408
18007TIP3    H275437   3.451   2.011  16.425 -0.5160 -0.6570 -2.1524
18008TIP3   OH275438   2.806   1.962  12.342 -0.0852  0.3086  0.2396
18008TIP3    H175439   2.773   2.034  12.394 -1.1980 -0.1022  0.1287
18008TIP3    H275440   2.828   1.893  12.405  2.1485  1.1356  0.4613
18009TIP3   OH275441   1.906   6.803   0.545  0.3076 -0.3042 -0.2339
18009TIP3    H175442   1.978   6.742   0.532 -0.0960 -0.4144 -2.4941
18009TIP3    H275443   1.884   6.833   0.456 -1.7790  0.4471  0.4641
18010TIP3   OH275444   6.197   3.022   3.308  0.2129  0.2766 -0.2592
18010TIP3    H175445   6.137   2.963   3.262  0.9258 -0.6878  0.0056
18010TIP3    H275446   6.280   2.974   3.311  1.3206  1.9726 -1.5102
18011TIP3   OH275447   6.493   1.268  11.635 -0.4355 -0.3769  0.1293
18011TIP3    H175448   6.474   1.360  11.652  1.4680  0.3804 -1.4511
18011TIP3    H275449   6.442   1.220  11.700  0.0512  1.8687  2.2965
18012TIP3   OH275450   1.609   3.485  14.450  0.2062 -0.1118  0.0186
18012TIP3    H175451   1.590   3.460  14.540 -0.2544 -0.6302 -0.2134
18012TIP3    H275452   1.650   3.571  14.456  0.1417 -0.1300  0.7180
18013TIP3   OH275453   3.784   5.967  16.700 -0.4126 -0.4102 -0.2669
18013TIP3    H175454   3.853   6.023  16.664 -0.5926 -0.1394 -0.1917
18013TIP3    H275455   3.714   5.971  16.635 -0.3561 -0.6944 -0.3485
18014TIP3   OH275456   6.810   6.404  15.805  0.4306 -0.1004  0.2917
18014TIP3    H175457   6.752   6.475  15.833  0.4036 -0.4650  1.2012
18014TIP3    H275458   6.828   6.423  15.713  0.7890  1.3319  0.6298
18015TIP3   OH275459   6.533   3.993   0.769 -0.1653 -0.0315  0.2644
18015TIP3    H175460   6.593   4.066   0.755  1.5658 -1.4154  0.1383
18015TIP3    H275461   6.541   3.940   0.690 -0.0128 -1.2722  1.0788
18016TIP3   OH275462   0.201   0.285  14.721 -0.4117  0.3410  0.0512
18016TIP3    H175463   0.186   0.275  14.627  0.0353  0.2231 -0.0102
18016TIP3    H275464   0.285   0.243  14.737 -1.1128 -0.8476  0.7405
18017TIP3   OH275465   1.613   2.498   2.746 -0.2947  0.0640  0.2242
18017TIP3    H175466   1.629   2.592   2.740  0.0713  0.0173  0.3888
18017TIP3    H275467   1.696   2.458   2.718 -1.1026 -0.2481 -1.9044
18018TIP3   OH275468   5.349   5.910   5.545 -0.0892 -0.2888 -0.0571
18018TIP3    H175469   5.399   5.923   5.465 -0.6177 -1.2034 -0.5451
18018TIP3    H275470   5.394   5.841   5.592 -0.1884 -0.2505  0.0972
18019TIP3   OH275471   5.774   5.869  11.654  0.3325  0.2588 -0.5890
18019TIP3    H175472   5.729   5.889  11.736  0.7645  0.1224 -0.3127
18019TIP3    H275473   5.716   5.809  11.608  0.9858 -1.2859  0.5228
18020TIP3   OH275474   0.915   5.966  10.658  0.5266  0.0300 -0.0098
18020TIP3    H175475   0.998   5.948  10.701 -0.2998 -1.2931  1.1521
18020TIP3    H275476   0.849   5.949  10.726 -0.6653  1.6590 -0.7014
18021TIP3   OH275477   2.022   2.595   0.357  0.3951  0.0882 -0.1149
18021TIP3    H175478   1.986   2.513   0.392  1.7002  0.2437  1.7879
18021TIP3    H275479   1.948   2.656   0.356 -0.2330 -0.6547 -0.0066
18022TIP3   OH275480   4.056   3.084  13.856 -0.6139 -0.3419 -0.1135
18022TIP3    H175481   4.021   3.072  13.768 -0.9369 -0.0620 -0.0281
18022TIP3    H275482   4.115   3.010  13.869 -0.3019 -0.1956 -0.6904
18023TIP3   OH275483   0.779   3.163   5.106 -0.3705  0.6467 -0.4029
18023TIP3    H175484   0.839   3.142   5.034  0.8549  1.1775  0.4261
18023TIP3    H275485   0.693   3.138   5.074  0.3456 -0.5540 -1.4774
18024TIP3   OH275486   2.910   2.720  10.689 -0.1579 -0.1754  1.1024
18024TIP3    H175487   2.864   2.678  10.616 -0.9677  1.5584  0.5603
18024TIP3    H275488   3.003   2.716  10.665 -0.3253 -0.6269  0.5175
18025TIP3   OH275489   3.846   5.559  12.358  0.0410 -0.5778 -0.3142
18025TIP3    H175490   3.834   5.588  12.448  1.6264 -0.6009 -0.0519
18025TIP3    H275491   3.876   5.638  12.312  2.1067 -1.1946 -0.1208
18026TIP3   OH275492   5.793   3.436  16.569  0.2605 -0.7297 -0.0236
18026TIP3    H175493   5.735   3.498  16.611 -0.3834  0.2672 -2.2230
18026TIP3    H275494   5.752   3.351  16.584 -1.2093 -0.1576 -0.6049
18027TIP3   OH275495   5.722   0.712   2.784  0.3363  0.3163  0.0765
18027TIP3    H175496   5.812   0.706   2.814  0.2374 -0.2913  0.2582
18027TIP3    H275497   5.728   0.717   2.689  0.6257  1.7239  0.1458
18028TIP3   OH275498   2.349   2.385  15.661 -0.8459 -0.2319  0.2235
18028TIP3    H175499   2.280   2.392  15.595 -1.5998  1.5847  1.1215
18028TIP3    H275500   2.320   2.442  15.732  1.2409  0.0189  0.9455
18029TIP3   OH275501   2.198   1.335   5.043 -1.0445  0.6892 -0.7898
18029TIP3    H175502   2.234   1.368   4.961 -2.4632  0.7460 -1.4117
18029TIP3    H275503   2.109   1.371   5.047 -1.0369  0.6264  0.7380
18030TIP3   OH275504   4.789   2.754   1.672  0.3620  0.4074  0.0645
18030TIP3    H175505   4.778   2.791   1.585 -0.4005  0.1950  0.0557
18030TIP3    H275506   4.793   2.659   1.657 -1.5223  0.2280  0.3666
18031TIP3   OH275507   3.424   3.590  14.828  0.1657 -0.8773 -0.5517
18031TIP3    H175508   3.391   3.678  14.846 -1.5677 -1.7728  1.0373
18031TIP3    H275509   3.500   3.580  14.884 -0.4895 -0.8663  0.3554
18032TIP3   OH275510   6.387   2.344  15.483  0.4682  0.0816  0.2866
18032TIP3    H175511   6.325   2.384  15.423  0.1947 -1.5263 -0.5744
18032TIP3    H275512   6.465   2.327  15.430  1.0513  0.6280  0.9504
18033TIP3   OH275513   6.141   6.473  15.322  0.2089 -0.2398 -0.0468
18033TIP3    H175514   6.213   6.483  15.385  1.9539  0.8551 -2.1202
18033TIP3    H275515   6.171   6.407  15.261 -1.6544 -1.6087  0.3987
18034TIP3   OH275516   6.420   1.375  14.790  0.2094 -0.4543  0.2202
18034TIP3    H175517   6.385   1.462  14.805  2.0178  0.0550  1.9229
18034TIP3    H275518   6.374   1.320  14.854 -2.8272 -1.4123 -2.5294
18035TIP3   OH275519   1.144   1.219  14.855  0.6339 -0.1716  0.4168
18035TIP3    H175520   1.214   1.279  14.880  0.9962  0.1462 -1.2509
18035TIP3    H275521   1.180   1.132  14.874  2.0930 -0.0996 -1.6535
18036TIP3   OH275522   0.275   4.543   3.403  0.2879  0.1489  0.1828
18036TIP3    H175523   0.324   4.494   3.469  0.8715  1.3742  0.6945
18036TIP3    H275524   0.278   4.488   3.325  0.0786 -1.0618  1.0131
18037TIP3   OH275525   2.092   0.226   5.163 -0.1093  0.5110 -0.6079
18037TIP3    H175526   2.051   0.188   5.241  0.7345 -2.2224 -1.3873
18037TIP3    H275527   2.164   0.279   5.197 -0.9094  0.9179  0.5166
18038TIP3   OH275528   3.985   5.375   2.191 -0.2736 -0.0346 -0.3645
18038TIP3    H175529   3.893   5.402   2.185  0.6174  3.4248 -0.8341
18038TIP3    H275530   4.022   5.399   2.105  1.2696 -0.3567  0.1800
18039TIP3   OH275531   5.570   4.445   0.805  0.0845 -0.1175 -0.2731
18039TIP3    H175532   5.478   4.452   0.781  0.1607 -1.1471 -0.9174
18039TIP3    H275533   5.569   4.413   0.895 -0.1831 -0.1435 -0.2862
18040TIP3   OH275534   5.706   5.889   3.634  0.2426  0.2827  0.0416
18040TIP3    H175535   5.651   5.896   3.712  1.8381  3.0040  1.0710
18040TIP3    H275536   5.646   5.898   3.561 -0.9477  0.7459  1.0500
18041TIP3   OH275537   4.385   4.033   2.720  0.6929 -0.0707 -0.3643
18041TIP3    H175538   4.366   3.972   2.791 -0.0582  1.2762  0.6387
18041TIP3    H275539   4.473   4.067   2.739  0.0912  1.0474  0.5253
18042TIP3   OH275540   2.198   0.440   0.514 -0.1847  1.0983 -0.2252
18042TIP3    H175541   2.216   0.529   0.483  1.7030  0.7491 -0.2801
18042TIP3    H275542   2.272   0.420   0.572 -1.4106  0.1364  1.0912
18043TIP3   OH275543   2.904   0.296  16.797  0.4593  0.4961 -0.1870
18043TIP3    H175544   2.881   0.364  16.861 -0.2087 -0.4481  0.5860
18043TIP3    H275545   2.987   0.261  16.829  0.1421  0.0466  0.1452
18044TIP3   OH275546   6.072   6.342  12.433  0.4344  0.3744 -0.1456
18044TIP3    H175547   6.056   6.361  12.340  1.1041  0.3460 -0.2730
18044TIP3    H275548   6.113   6.256  12.433 -0.9756 -0.3229  0.3018
18045TIP3   OH275549   0.633   3.674   4.244  0.4335  0.0372  0.2526
18045TIP3    H175550   0.706   3.693   4.303  0.7451  0.7603 -0.3403
18045TIP3    H275551   0.628   3.751   4.187 -0.3538 -0.3056 -0.1602
18046TIP3   OH275552   6.206   5.619  15.024 -0.0124 -0.2055  0.0029
18046TIP3    H175553   6.214   5.584  15.113 -1.2148 -0.0198  0.1914
18046TIP3    H275554   6.115   5.648  15.017 -0.6865 -2.4565 -2.0906
18047TIP3   OH275555   2.917   3.311   5.697  0.3929  0.0435  0.2577
18047TIP3    H175556   2.907   3.393   5.649  0.9370  0.4879  0.8887
18047TIP3    H275557   2.832   3.295   5.738  0.1778  0.0959 -0.1682
18048TIP3   OH275558   1.726   3.302  14.991  0.0097 -0.0080 -0.2745
18048TIP3    H175559   1.651   3.356  14.968  0.8991  2.0964  1.3725
18048TIP3    H275560   1.721   3.293  15.087  1.5956 -0.2020 -0.1830
18049TIP3   OH275561   4.100   1.507  14.453 -0.2443 -0.3466 -0.1430
18049TIP3    H175562   4.069   1.423  14.488 -1.0739  0.9451  2.5051
18049TIP3    H275563   4.126   1.557  14.531 -1.9981  2.6874 -1.3300
18050TIP3   OH275564   2.013   0.793  15.809 -0.4058  0.6982  0.0276
18050TIP3    H175565   2.025   0.701  15.785 -2.2088  0.6591 -0.8667
18050TIP3    H275566   1.993   0.791  15.903  0.0899  0.2326  0.1280
18051TIP3   OH275567   4.625   0.074   3.106 -0.2778  0.0062 -0.4030
18051TIP3    H175568   4.714   0.098   3.132 -0.6892  0.7963  0.3321
18051TIP3    H275569   4.625   0.084   3.010  1.0708 -2.3277 -0.7192
18052TIP3   OH275570   1.938   0.135  13.396  0.2385 -0.4776 -0.0898
18052TIP3    H175571   1.959   0.215  13.445 -0.9180  1.3028 -2.2913
18052TIP3    H275572   2.023   0.096  13.375  0.8320  0.2181  0.9313
18053TIP3   OH275573   6.223   3.863   5.286  0.1696 -0.0648  0.7877
18053TIP3    H175574   6.133   3.829   5.289  0.8089 -2.2474 -1.2146
18053TIP3    H275575   6.274   3.802   5.339  1.2047 -1.9684 -2.1652
18054TIP3   OH275576   1.613   1.482   0.192  0.1321 -0.3683 -0.3694
18054TIP3    H175577   1.691   1.510   0.144  0.1086 -0.7340 -0.6319
18054TIP3    H275578   1.542   1.488   0.128 -0.1209  0.2999 -0.0311
18055TIP3   OH275579   1.732   5.680   0.981  0.0934 -0.3021 -0.4042
18055TIP3    H175580   1.821   5.643   0.979 -0.3883 -1.4642 -0.7368
18055TIP3    H275581   1.743   5.766   1.022  0.9763 -1.4869  1.9759
18056TIP3   OH275582   6.036   2.558   4.722  0.5341  0.5411  0.2911
18056TIP3    H175583   5.984   2.477   4.718 -0.5092  1.1576  1.1019
18056TIP3    H275584   6.126   2.528   4.708  0.3498 -0.9714  1.9751
18057TIP3   OH275585   1.802   1.602   0.066  0.1359  0.1451  0.0124
18057TIP3    H175586   1.888   1.562   0.052  0.2166  0.2096  0.3182
18057TIP3    H275587   1.821   1.691   0.093 -0.0584  0.6937 -1.5767
18058TIP3   OH275588   2.614   2.284  14.218 -0.1129  0.4619 -0.3359
18058TIP3    H175589   2.603   2.376  14.195  0.2145  0.9367  1.3051
18058TIP3    H275590   2.694   2.257  14.171 -0.2600  0.9728 -0.8965
18059TIP3   OH275591   4.432   4.825   5.004  0.1978 -0.3565 -0.1550
18059TIP3    H175592   4.346   4.865   4.997 -0.3861 -1.7450 -1.3638
18059TIP3    H275593   4.465   4.853   5.090 -1.2228  0.6128  0.0955
18060TIP3   OH275594   0.353   2.624  14.800  0.0310 -0.0106  0.4870
18060TIP3    H175595   0.332   2.615  14.893 -0.4414  0.5747  0.4483
18060TIP3    H275596   0.270   2.605  14.755  0.2356 -0.2083  0.1898
18061TIP3   OH275597   2.309   0.256   4.941 -0.0591 -0.3721 -0.2049
18061TIP3    H175598   2.315   0.268   5.036  0.1470 -0.7404 -0.1712
18061TIP3    H275599   2.224   0.295   4.917 -0.3846 -0.8119  0.2151
18062TIP3   OH275600   1.261   6.273  11.531 -0.2492 -0.1106  0.2946
18062TIP3    H175601   1.256   6.227  11.447  0.5864 -0.8579  0.6544
18062TIP3    H275602   1.345   6.319  11.528 -1.0110  1.3213 -0.0115
18063TIP3   OH275603   4.505   4.198   5.269  0.3184  0.2243 -0.2278
18063TIP3    H175604   4.583   4.210   5.323  0.1557 -2.4794  0.7869
18063TIP3    H275605   4.534   4.142   5.197 -0.6822 -1.0233  0.2965
18064TIP3   OH275606   0.028   6.147  11.647 -0.4047 -0.4077 -0.4400
18064TIP3    H175607   0.045   6.055  11.628 -1.1156 -0.6097 -0.1388
18064TIP3    H275608  -0.063   6.149  11.677  0.5225 -0.1282  2.8197
18065TIP3   OH275609   4.122   4.700   1.505  0.6479 -0.0894 -0.3624
18065TIP3    H175610   4.179   4.698   1.582  1.7712 -2.1514 -1.1647
18065TIP3    H275611   4.180   4.684   1.431 -0.6450  0.1745 -1.4871
18066TIP3   OH275612   1.428   1.573   0.573  0.3695  0.2331  0.1097
18066TIP3    H175613   1.516   1.547   0.603  0.4718  0.8565  0.3837
18066TIP3    H275614   1.390   1.494   0.537  1.0046 -0.0758  0.1057
18067TIP3   OH275615   4.799   2.219   5.415  0.4044  0.0488 -0.5710
18067TIP3    H175616   4.820   2.192   5.504  0.6568 -0.0979 -0.6740
18067TIP3    H275617   4.876   2.269   5.386 -0.1843  1.1598 -0.2684
18068TIP3   OH275618   0.071   6.188  11.332 -0.7965  0.1826  0.0359
18068TIP3    H175619  -0.017   6.221  11.314 -1.3493 -1.9073 -1.4121
18068TIP3    H275620   0.060   6.130  11.408 -0.6737 -0.0738 -0.1401
18069TIP3   OH275621   2.640   4.881  11.642 -0.3322  0.2139  0.2893
18069TIP3    H175622   2.714   4.820  11.650 -0.4739  0.0848  0.6180
18069TIP3    H275623   2.577   4.836  11.586  0.6378  1.0964 -1.6258
18070TIP3   OH275624   6.418   2.038   2.348 -0.2319  0.2082 -0.2526
18070TIP3    H175625   6.418   2.103   2.418  2.1559 -0.2836  0.2869
18070TIP3    H275626   6.432   2.089   2.268  1.8444  0.4038  0.1884
18071TIP3   OH275627   4.477   2.438  14.486  0.2010 -0.8265  0.0409
18071TIP3    H175628   4.408   2.466  14.546 -0.6556  0.1968 -1.3713
18071TIP3    H275629   4.475   2.342  14.491  0.5033 -0.7757  1.9849
18072TIP3   OH275630   0.620   2.752  11.092 -0.7541 -0.4802 -0.1073
18072TIP3    H175631   0.617   2.670  11.141  0.1645 -0.4392  0.0332
18072TIP3    H275632   0.691   2.741  11.029 -0.7423  0.1368 -0.2157
18073TIP3   OH275633   0.144   6.097   4.043  0.3853 -0.0619  0.2570
18073TIP3    H175634   0.203   6.034   4.083  1.2215 -0.4095 -1.4265
18073TIP3    H275635   0.196   6.138   3.974 -1.0370  0.3863 -0.5896
18074TIP3   OH275636   1.852   5.953   3.474 -0.2110 -0.1282 -0.1521
18074TIP3    H175637   1.815   5.946   3.563  1.7809 -2.4345  0.5954
18074TIP3    H275638   1.886   6.042   3.470 -1.3730  0.4086  0.9453
18075TIP3   OH275639   5.466   3.724   5.653  0.1981 -0.3362 -0.4363
18075TIP3    H175640   5.487   3.787   5.723  1.6161 -0.7341 -0.4639
18075TIP3    H275641   5.382   3.687   5.679  0.7894 -0.6366  1.2195
18076TIP3   OH275642   5.946   4.144  11.696  0.1949  0.5029  0.0602
18076TIP3    H175643   5.996   4.092  11.633  0.4596  0.3827  0.3636
18076TIP3    H275644   5.976   4.234  11.684  0.8011  0.3718  0.5302
18077TIP3   OH275645   6.202   5.209  14.157 -0.1027 -0.0640  0.2007
18077TIP3    H175646   6.128   5.151  14.174 -1.9688  2.4330  1.0775
18077TIP3    H275647   6.254   5.205  14.238 -0.1104 -0.6032  0.1858
18078TIP3   OH275648   0.298   1.710  13.035 -0.0455  0.3505 -0.0011
18078TIP3    H175649   0.266   1.672  12.954  0.2843 -0.2035  0.1212
18078TIP3    H275650   0.243   1.787  13.049 -2.1846 -1.2474  0.8621
18079TIP3   OH275651   6.211   2.320  13.697  0.3440 -0.6115  0.2385
18079TIP3    H175652   6.292   2.289  13.658  1.2507  1.4180  0.3743
18079TIP3    H275653   6.169   2.371  13.627  0.5698  0.6647  1.0138
18080TIP3   OH275654   6.132   4.620   1.878  0.4148 -0.2529 -0.0986
18080TIP3    H175655   6.127   4.534   1.837 -0.0851 -0.3321  0.1217
18080TIP3    H275656   6.082   4.611   1.960  1.6327 -0.1840  0.6774
18081TIP3   OH275657   5.587   0.851   4.266 -0.5227 -0.2758  0.1981
18081TIP3    H175658   5.524   0.822   4.200 -2.1126  0.1661  1.4724
18081TIP3    H275659   5.668   0.865   4.216 -1.2121 -1.5286 -1.3616
18082TIP3   OH275660   6.729   0.084  11.732  0.1398 -0.3946  0.3225
18082TIP3    H175661   6.768   0.055  11.814 -1.7187 -0.5716  1.1967
18082TIP3    H275662   6.779   0.161  11.707 -0.2900  0.6576  2.5238
18083TIP3   OH275663   3.429   1.906   5.977 -0.4813  0.2473 -0.2788
18083TIP3    H175664   3.507   1.905   6.032 -1.9189  0.0311  1.8599
18083TIP3    H275665   3.428   1.820   5.936 -0.2577 -0.2325  0.6821
18084TIP3   OH275666   3.271   2.799   3.978  0.0512  0.4042 -0.6451
18084TIP3    H175667   3.351   2.816   4.028 -0.3180  0.7817 -0.1684
18084TIP3    H275668   3.203   2.847   4.026 -0.5659 -0.3845 -0.7196
18085TIP3   OH275669   1.895   5.713  16.841 -0.3518 -0.2315 -0.0549
18085TIP3    H175670   1.979   5.669  16.834 -0.5140 -0.6180  0.4029
18085TIP3    H275671   1.910   5.783  16.905 -0.4576 -0.4963  0.2620
18086TIP3   OH275672   4.043   3.644   4.555  0.1280  0.2186  0.3666
18086TIP3    H175673   4.085   3.595   4.626  1.6367  1.0855  0.1066
18086TIP3    H275674   4.046   3.736   4.584 -0.6101  0.4225 -0.1622
18087TIP3   OH275675   4.634   4.740  15.728 -0.6846 -0.6650 -0.5059
18087TIP3    H175676   4.547   4.726  15.690 -0.3452  0.6277 -1.8531
18087TIP3    H275677   4.632   4.830  15.760  0.3355 -0.4069 -1.1125
18088TIP3   OH275678   4.290   5.148   1.472  0.5255 -0.0372  0.2516
18088TIP3    H175679   4.378   5.151   1.435  0.5280  0.2149  0.2764
18088TIP3    H275680   4.304   5.153   1.566  0.3717  2.7392  0.1843
18089TIP3   OH275681   0.300   5.255  14.462  0.4583 -0.3470 -0.3804
18089TIP3    H175682   0.230   5.223  14.406 -1.0080  1.0956  0.5269
18089TIP3    H275683   0.300   5.350  14.449  1.0932 -0.1415  0.9028
18090TIP3   OH275684   1.083   3.772   5.457  0.1545 -0.2200 -0.1148
18090TIP3    H175685   1.003   3.720   5.458 -0.7516  1.1018 -1.1677
18090TIP3    H275686   1.079   3.822   5.539 -0.3718  0.2114 -0.3934
18091TIP3   OH275687   3.889   4.017   5.729 -0.7486  0.4848 -0.2367
18091TIP3    H175688   3.835   3.952   5.774  0.5745  0.2565  1.1095
18091TIP3    H275689   3.886   4.094   5.786  0.2589  0.4948 -0.1814
18092TIP3   OH275690   2.142   1.759   4.767  0.5489  0.2096  0.4225
18092TIP3    H175691   2.077   1.782   4.700  1.9249  0.1417 -1.0004
18092TIP3    H275692   2.105   1.793   4.849 -1.5132 -0.3059 -0.2246
18093TIP3   OH275693   3.596   6.469   0.083 -0.0202 -0.2193  0.4932
18093TIP3    H175694   3.564   6.532   0.148 -1.9303  0.3219 -0.8831
18093TIP3    H275695   3.517   6.425   0.050  0.7736 -0.0483 -1.8580
18094TIP3   OH275696   3.095   6.604  14.075 -0.4745 -0.3468 -0.3064
18094TIP3    H175697   3.115   6.639  13.989 -1.2805  1.0402  0.0324
18094TIP3    H275698   3.172   6.626  14.128  0.3595 -1.9009 -0.8394
18095TIP3   OH275699   3.101   1.142  15.497  0.1245  0.3294 -0.1058
18095TIP3    H175700   3.044   1.157  15.421 -0.4958 -1.1139  0.0493
18095TIP3    H275701   3.046   1.096  15.560  1.5209 -1.3756 -0.0720
18096TIP3   OH275702   3.094   0.401  14.427 -0.0293 -0.0652 -0.2624
18096TIP3    H175703   3.102   0.355  14.343 -0.6938  0.7936 -0.8117
18096TIP3    H275704   3.112   0.492  14.405  0.0356  0.1310  0.5884
18097TIP3   OH275705   1.698   2.181  10.999  0.3403 -0.9333 -0.0080
18097TIP3    H175706   1.716   2.131  10.919  0.8722 -1.2446  0.2967
18097TIP3    H275707   1.633   2.128  11.046  0.6486 -1.1718  0.1538
18098TIP3   OH275708   1.007   3.602  13.844  0.6478 -0.3505 -0.3218
18098TIP3    H175709   1.094   3.591  13.806  1.8731  1.0334  1.9023
18098TIP3    H275710   0.983   3.693  13.826  0.6945 -0.0496  1.0089
18099TIP3   OH275711   0.569   3.575   1.882  0.7909 -0.3681 -0.7418
18099TIP3    H175712   0.634   3.595   1.950  1.1077 -0.9971 -0.8477
18099TIP3    H275713   0.485   3.572   1.930  1.2747 -3.1260  0.1305
18100TIP3   OH275714   6.758   4.643  12.572 -0.0857  0.1299  0.4916
18100TIP3    H175715   6.801   4.571  12.618  2.9955  1.0585 -0.6969
18100TIP3    H275716   6.803   4.649  12.488 -1.9808  1.8484 -0.4927
18101TIP3   OH275717   0.298   1.730   1.278 -0.1382 -0.8248 -0.2106
18101TIP3    H175718   0.268   1.815   1.247 -1.9503 -1.4283 -0.2554
18101TIP3    H275719   0.316   1.744   1.371  1.4663  0.0311 -0.6069
18102TIP3   OH275720   6.616   0.216   2.414 -0.4201  0.0005 -0.6171
18102TIP3    H175721   6.702   0.225   2.454  0.8901  0.7709 -3.3448
18102TIP3    H275722   6.563   0.284   2.455  0.2063 -0.5117  1.1300
18103TIP3   OH275723   3.173   6.243   1.926 -0.1768 -0.3816 -0.1554
18103TIP3    H175724   3.204   6.313   1.984  1.9325 -0.7217 -0.7954
18103TIP3    H275725   3.244   6.232   1.862 -1.8450 -0.9557 -1.9848
18104TIP3   OH275726   2.809   2.344   6.634 -0.1305 -0.8545  0.2449
18104TIP3    H175727   2.727   2.392   6.640 -0.5588 -1.0485 -2.7494
18104TIP3    H275728   2.786   2.259   6.598  1.4484 -0.3290 -2.3021
18105TIP3   OH275729   6.150   0.322  15.324 -0.6521 -0.0533  0.4639
18105TIP3    H175730   6.081   0.389  15.326 -0.3463  0.3032 -0.3573
18105TIP3    H275731   6.175   0.310  15.415 -1.5517  0.0759  0.7404
18106TIP3   OH275732   2.533   3.846   4.664  0.8114  0.1242 -0.0712
18106TIP3    H175733   2.512   3.924   4.716  0.7118  0.2091 -0.2376
18106TIP3    H275734   2.468   3.846   4.594 -0.9662 -1.6684  1.4852
18107TIP3   OH275735   1.243   2.339  16.707  0.3098 -0.0961 -0.0111
18107TIP3    H175736   1.166   2.302  16.752  0.0232 -0.1117 -0.5116
18107TIP3    H275737   1.216   2.427  16.682  1.2026  0.7087  1.7148
18108TIP3   OH275738   3.771   4.847   4.170 -0.4565  0.5560  0.4350
18108TIP3    H175739   3.695   4.852   4.229 -0.3134 -0.5527  0.7334
18108TIP3    H275740   3.777   4.755   4.146  1.8208  0.2771  1.7788
18109TIP3   OH275741   3.906   1.414  11.304  0.4366  0.2496  0.3267
18109TIP3    H175742   3.955   1.472  11.246  1.1037 -0.5292  0.0996
18109TIP3    H275743   3.829   1.388  11.253  0.9734 -0.3579 -0.1829
18110TIP3   OH275744   0.970   0.442  11.924 -0.3690 -0.1007  0.0069
18110TIP3    H175745   1.021   0.522  11.916  0.7629 -0.9091 -1.0958
18110TIP3    H275746   0.985   0.413  12.014  0.8258 -0.1148 -0.1816
18111TIP3   OH275747   3.550   1.935  13.216  0.0239  0.2992 -0.2539
18111TIP3    H175748   3.506   1.924  13.300  0.3431  1.4457  0.0763
18111TIP3    H275749   3.620   1.870  13.216  1.5681  1.8371  1.4353
18112TIP3   OH275750   5.607   0.890  16.343  0.1370  0.4678  0.4603
18112TIP3    H175751   5.534   0.840  16.380 -0.8488  0.1886 -1.7288
18112TIP3    H275752   5.599   0.976  16.383 -0.9629  0.2414  0.7634
18113TIP3   OH275753   5.537   6.192  12.525  0.3704  0.4254 -0.4281
18113TIP3    H175754   5.505   6.277  12.555  0.6321 -0.0081  1.1679
18113TIP3    H275755   5.632   6.200  12.528  0.3997  0.1982 -0.6954
18114TIP3   OH275756   5.708   6.459  13.689  0.1600  0.3578 -0.4572
18114TIP3    H175757   5.691   6.533  13.747 -0.5500 -0.9904  1.1134
18114TIP3    H275758   5.759   6.398  13.742 -0.6653 -1.0015 -1.1732
18115TIP3   OH275759   1.657   4.480   3.189 -0.0864 -0.3531 -0.9432
18115TIP3    H175760   1.644   4.546   3.258 -1.0212 -0.6022 -0.8718
18115TIP3    H275761   1.731   4.513   3.138  1.4154 -0.7397  0.8715
18116TIP3   OH275762   0.318   2.812  13.047 -0.4873 -0.0172 -0.1367
18116TIP3    H175763   0.266   2.732  13.038 -1.8254  0.6539  1.3194
18116TIP3    H275764   0.397   2.794  12.996  0.5612 -3.3559  2.2859
18117TIP3   OH275765   2.467   2.102   5.781  0.5735 -0.4449  0.4043
18117TIP3    H175766   2.405   2.034   5.805 -1.0501  0.8208 -0.0216
18117TIP3    H275767   2.467   2.162   5.856  0.0673  0.3591 -0.2110
18118TIP3   OH275768   0.823   3.438  13.177 -0.4278  0.1382  0.2265
18118TIP3    H175769   0.805   3.438  13.271  0.5290  1.0927  0.4255
18118TIP3    H275770   0.751   3.387  13.139  0.0491 -1.6791  1.6160
18119TIP3   OH275771   1.517   0.377   2.810  0.4678 -0.2024  0.0106
18119TIP3    H175772   1.513   0.470   2.788  2.7470 -0.0231  0.0995
18119TIP3    H275773   1.516   0.375   2.906 -2.6043 -0.5423  0.0764
18120TIP3   OH275774   5.374   1.866   5.724  0.0157  0.2686 -0.4162
18120TIP3    H175775   5.320   1.848   5.647 -1.0379 -0.4250  0.4641
18120TIP3    H275776   5.365   1.960   5.738  2.9902  1.1294 -3.1387
18121TIP3   OH275777   2.429   1.252  16.503  0.1583 -0.1647  0.0102
18121TIP3    H175778   2.500   1.189  16.490 -0.4562 -0.7940 -0.3591
18121TIP3    H275779   2.436   1.278  16.595  1.6610  0.7716 -0.3311
18122TIP3   OH275780   5.919   0.490  11.967 -0.0951 -0.2045 -0.3841
18122TIP3    H175781   5.838   0.540  11.973 -0.2570 -0.5242  0.1259
18122TIP3    H275782   5.981   0.539  12.021  0.1632  0.2319 -1.0506
18123TIP3   OH275783   4.848   0.669   1.452 -0.3557 -0.4897  0.0433
18123TIP3    H175784   4.794   0.735   1.407 -1.1623 -1.6272 -0.7325
18123TIP3    H275785   4.789   0.630   1.516 -0.2806 -1.3028 -0.3659
18124TIP3   OH275786   5.503   1.474  13.493 -0.5233  0.3776 -0.4411
18124TIP3    H175787   5.537   1.562  13.477 -2.1561  0.8695 -1.4464
18124TIP3    H275788   5.580   1.418  13.492  0.3192  1.4795 -2.2522
18125TIP3   OH275789   2.062   0.395   5.601 -0.0071  0.0315  0.3797
18125TIP3    H175790   2.094   0.470   5.551  2.1676 -0.7055  0.5682
18125TIP3    H275791   2.051   0.428   5.690 -0.6464  0.5088  0.1322
18126TIP3   OH275792   1.004   4.488  12.178 -0.6128 -0.1870 -0.1375
18126TIP3    H175793   0.962   4.494  12.092  1.6286  2.7711 -1.2098
18126TIP3    H275794   1.085   4.440  12.161  0.2393  1.1264  0.0714
18127TIP3   OH275795   1.928   0.482   1.765 -0.0474  0.2276  0.2144
18127TIP3    H175796   1.833   0.476   1.763 -0.1006 -1.2107  2.6386
18127TIP3    H275797   1.957   0.400   1.806  2.1738  0.8973  0.1367
18128TIP3   OH275798   5.413   1.317  11.461 -0.6064  0.2693 -0.6194
18128TIP3    H175799   5.484   1.336  11.400 -1.9578  0.0570 -2.3318
18128TIP3    H275800   5.432   1.372  11.537 -0.4449  2.9016 -2.4164
18129TIP3   OH275801   0.010   5.558  16.308 -0.0659 -0.0641 -0.5207
18129TIP3    H175802   0.045   5.572  16.220  1.0499 -2.8570 -0.6017
18129TIP3    H275803  -0.076   5.600  16.306 -0.5882 -1.0445 -3.3491
18130TIP3   OH275804   5.623   6.199   3.722 -0.5571  0.5435  0.4221
18130TIP3    H175805   5.709   6.195   3.764  0.6477 -0.4159 -1.9227
18130TIP3    H275806   5.595   6.290   3.733  1.7815  1.4742 -0.5491
18131TIP3   OH275807   1.594   2.652  13.460 -0.7595 -0.1787 -0.3538
18131TIP3    H175808   1.560   2.672  13.372 -1.5975 -0.0503 -0.0132
18131TIP3    H275809   1.519   2.668  13.518  0.0281  0.6109  0.4836
18132TIP3   OH275810   4.600   5.864  14.954  0.2252  0.5974 -0.3568
18132TIP3    H175811   4.637   5.944  14.917 -0.7757  0.4804 -1.7030
18132TIP3    H275812   4.546   5.828  14.883  0.9104 -1.4526  0.0765
18133TIP3   OH275813   4.935   4.917   5.719 -0.4345 -0.2492 -0.6691
18133TIP3    H175814   4.997   4.855   5.681 -2.8868 -2.8187 -0.8344
18133TIP3    H275815   4.852   4.896   5.675 -1.6146  2.5069  0.0582
18134TIP3   OH275816   0.455   2.332   6.728  0.0736 -0.5474  0.3878
18134TIP3    H175817   0.514   2.275   6.778 -1.0603 -1.9844  0.1752
18134TIP3    H275818   0.373   2.283   6.725 -0.5266  0.4949 -1.0257
18135TIP3   OH275819   4.260   4.711   1.746  0.9586 -0.0751 -0.3154
18135TIP3    H175820   4.317   4.675   1.814 -0.2001  0.2183  0.8580
18135TIP3    H275821   4.290   4.802   1.735 -0.3961  0.6807  1.6611
18136TIP3   OH275822   1.827   6.816   1.621  0.4206  0.0128  0.1583
18136TIP3    H175823   1.785   6.757   1.683  0.2025  0.8878  0.8678
18136TIP3    H275824   1.865   6.759   1.554 -1.1850 -0.8395 -0.0587
18137TIP3   OH275825   0.597   3.294  13.107  0.1149 -0.7023  0.2364
18137TIP3    H175826   0.636   3.213  13.074 -0.0675 -0.3777 -0.8210
18137TIP3    H275827   0.503   3.279  13.104  0.0633 -0.2385 -0.5399
18138TIP3   OH275828   3.360   0.543  12.878 -0.1725 -0.3051 -0.3646
18138TIP3    H175829   3.298   0.519  12.947 -1.0738  0.6189 -0.8386
18138TIP3    H275830   3.429   0.591  12.925  0.7162 -2.1283  0.3049
18139TIP3   OH275831   4.018   6.761  14.270 -0.3031 -0.5901 -0.4178
18139TIP3    H175832   4.008   6.831  14.206 -0.8043 -0.3959 -0.1364
18139TIP3    H275833   3.929   6.727  14.283 -0.1754 -0.7807 -0.0045
18140TIP3   OH275834   0.714   3.828   5.980 -0.3478  0.5941  0.4665
18140TIP3    H175835   0.713   3.919   6.010  0.8695  0.4719  0.9198
18140TIP3    H275836   0.740   3.833   5.888  3.8668  0.5350  1.4586
18141TIP3   OH275837   4.224   3.333   3.098 -0.6817 -0.2021 -0.2430
18141TIP3    H175838   4.294   3.301   3.041  0.5497 -1.3398  1.8030
18141TIP3    H275839   4.147   3.284   3.071  0.3981 -2.4379  0.5003
18142TIP3   OH275840   2.432   4.559  16.032 -0.2979  0.3088  0.5703
18142TIP3    H175841   2.423   4.615  16.109 -1.0701  0.4245  0.3990
18142TIP3    H275842   2.477   4.615  15.968  2.2630 -0.4357  1.5885
18143TIP3   OH275843   1.537   0.521  11.988  0.2911  0.8010  0.0860
18143TIP3    H175844   1.477   0.495  11.919 -0.6637  3.1320 -0.0655
18143TIP3    H275845   1.624   0.506  11.951 -0.2101  0.6202 -1.0600
18144TIP3   OH275846   1.486   5.270  11.908  0.5588 -0.5567 -0.6222
18144TIP3    H175847   1.573   5.310  11.916 -0.8979  2.8065  0.7531
18144TIP3    H275848   1.461   5.250  11.998 -0.3983 -0.7116 -0.9125
18145TIP3   OH275849   0.029   1.805   4.093  0.5751  0.3304 -0.4099
18145TIP3    H175850   0.019   1.894   4.061 -2.1097 -0.1773 -1.2594
18145TIP3    H275851   0.055   1.754   4.016  3.1039  0.4347  0.2699
18146TIP3   OH275852   2.699   6.676   2.539  0.0239  0.4586  0.5108
18146TIP3    H175853   2.631   6.615   2.511 -1.4950  1.6301  1.5117
18146TIP3    H275854   2.777   6.649   2.490 -0.8264 -1.6643  0.2168
18147TIP3   OH275855   3.604   1.569  14.592 -0.6970 -0.4330 -0.1941
18147TIP3    H175856   3.667   1.582  14.520 -0.6987  3.0488  0.2960
18147TIP3    H275857   3.535   1.514  14.553  1.4945 -2.5847 -1.3733
18148TIP3   OH275858   1.087   4.699   2.151  0.2349 -0.4497 -0.1549
18148TIP3    H175859   1.036   4.618   2.154 -0.1951 -0.1709  0.0951
18148TIP3    H275860   1.178   4.670   2.156  0.0649 -0.8100  2.8565
18149TIP3   OH275861   4.665   3.294  15.708  0.4615 -0.0980  0.7701
18149TIP3    H175862   4.617   3.363  15.663  1.4120  0.2284  0.2538
18149TIP3    H275863   4.610   3.216  15.697  0.9706 -0.1915 -1.5560
18150TIP3   OH275864   5.644   4.275  14.196 -0.2462  0.3480 -0.1836
18150TIP3    H175865   5.573   4.211  14.206 -0.0358  0.1814  0.2648
18150TIP3    H275866   5.698   4.263  14.274 -1.7142  2.9413  1.3911
18151TIP3   OH275867   2.561   0.423  11.210 -0.1683  0.9276 -0.1808
18151TIP3    H175868   2.472   0.441  11.178 -0.9877 -1.4348  0.5823
18151TIP3    H275869   2.584   0.501  11.260 -2.2092  1.2315  0.3757
18152TIP3   OH275870   5.325   2.346   3.090 -0.3066 -0.8025 -0.3576
18152TIP3    H175871   5.337   2.339   3.185  2.4210 -1.9309 -0.6693
18152TIP3    H275872   5.386   2.281   3.055 -0.9050 -0.0689 -2.9004
18153TIP3   OH275873   6.192   2.576   3.947 -0.2571  0.2056 -0.6500
18153TIP3    H175874   6.257   2.511   3.920  0.4442  0.6543 -0.0631
18153TIP3    H275875   6.171   2.623   3.866 -0.7632 -0.7222 -1.0829
18154TIP3   OH275876   4.752   1.591  15.948 -0.0981  0.0849  0.5949
18154TIP3    H175877   4.818   1.576  15.880  0.0082  0.1470  0.6821
18154TIP3    H275878   4.771   1.680  15.979 -1.1628  0.6819 -0.4077
18155TIP3   OH275879   2.238   4.283   2.926 -0.1187  0.6793 -0.4386
18155TIP3    H175880   2.185   4.362   2.913  0.1162  1.1858  1.2875
18155TIP3    H275881   2.328   4.316   2.931  0.1639  0.0750 -1.3731
18156TIP3   OH275882   4.443   3.682  16.366 -0.0211 -0.2240  0.6947
18156TIP3    H175883   4.504   3.753  16.385  0.8728 -1.0044  0.7942
18156TIP3    H275884   4.392   3.714  16.292  0.3996  0.4977  0.7002
18157TIP3   OH275885   3.345   5.940   4.129  0.1598  0.0940  0.0214
18157TIP3    H175886   3.291   5.898   4.062  0.3802  1.8014 -1.2725
18157TIP3    H275887   3.419   5.880   4.141 -2.4858 -3.0232  2.8349
18158TIP3   OH275888   3.346   1.746   5.468 -0.4713  0.1800  0.1419
18158TIP3    H175889   3.350   1.700   5.384 -0.2382  0.5372 -0.0417
18158TIP3    H275890   3.260   1.722   5.503 -0.3009 -0.5017  0.1123
18159TIP3   OH275891   0.727   4.318   2.771 -0.7846 -0.2026 -0.0232
18159TIP3    H175892   0.675   4.282   2.843 -2.0221 -1.5981 -1.5219
18159TIP3    H275893   0.780   4.244   2.741  0.4519  0.6222  0.0553
18160TIP3   OH275894   0.772   4.362  13.759 -0.0616 -0.6009  0.0601
18160TIP3    H175895   0.809   4.383  13.845  0.0613 -0.0695 -0.1214
18160TIP3    H275896   0.687   4.406  13.758  0.9955  1.5629 -1.0567
18161TIP3   OH275897   0.007   5.577  15.442  0.1362 -0.0827 -0.7709
18161TIP3    H175898  -0.085   5.550  15.449 -0.0012  0.4311 -0.5291
18161TIP3    H275899   0.007   5.668  15.473  0.5776  0.2061 -1.6020
18162TIP3   OH275900   2.962   4.917  14.119  0.0397 -0.6416 -0.3008
18162TIP3    H175901   2.871   4.932  14.091  0.1387 -0.0218 -0.2883
18162TIP3    H275902   3.001   5.004  14.124  0.9547 -0.9677 -1.3429
18163TIP3   OH275903   6.740   3.721   1.683  0.5864  0.6190  0.6623
18163TIP3    H175904   6.736   3.713   1.587 -1.4352  1.9455  0.5630
18163TIP3    H275905   6.694   3.644   1.715  2.0012 -0.2660  0.6242
18164TIP3   OH275906   6.274   1.926   4.419 -0.2571 -0.3670 -0.3114
18164TIP3    H175907   6.326   1.954   4.344  0.0223 -0.6703 -0.2309
18164TIP3    H275908   6.252   2.008   4.464 -2.0333  0.0216 -1.7460
18165TIP3   OH275909   1.316   3.996  15.669  0.4974 -0.0934 -0.1555
18165TIP3    H175910   1.400   4.019  15.709  0.5994  0.1205 -0.4845
18165TIP3    H275911   1.281   3.927  15.725  1.1389 -0.5597 -0.3118
18166TIP3   OH275912   5.604   5.244   3.100  0.0829  0.0000  0.0631
18166TIP3    H175913   5.668   5.204   3.041  0.8747  1.0195  0.2104
18166TIP3    H275914   5.583   5.175   3.163  2.5558  0.2060  1.2276
18167TIP3   OH275915   1.440   6.493  16.433 -0.2130 -0.0837  0.2850
18167TIP3    H175916   1.445   6.406  16.472 -1.7663 -0.1774  0.3200
18167TIP3    H275917   1.438   6.477  16.338 -0.2961 -0.0806  0.2865
18168TIP3   OH275918   0.657   4.101   2.257  0.2544  0.2914  0.1580
18168TIP3    H175919   0.749   4.091   2.278  1.0948  1.8190 -2.3426
18168TIP3    H275920   0.616   4.019   2.285  2.1182  0.0162  2.3023
18169TIP3   OH275921   0.740   1.564   5.430 -0.0060  0.3549 -0.3711
18169TIP3    H175922   0.647   1.583   5.432 -0.4574 -1.6390 -0.5188
18169TIP3    H275923   0.773   1.611   5.354 -1.3140 -0.5914 -1.5686
18170TIP3   OH275924   5.871   4.155   1.511 -0.1208 -0.6003  0.2441
18170TIP3    H175925   5.923   4.222   1.468  0.7491 -0.2896  1.6893
18170TIP3    H275926   5.936   4.092   1.544 -0.6001 -0.2394  2.0184
18171TIP3   OH275927   0.575   2.561   6.612 -0.0235  0.1856 -0.7394
18171TIP3    H175928   0.536   2.490   6.664 -1.4774  1.0265 -0.6302
18171TIP3    H275929   0.668   2.537   6.605  0.2335 -0.0358  2.1695
18172TIP3   OH275930   3.235   4.266  12.555  0.0347 -0.2059 -0.6332
18172TIP3    H175931   3.168   4.309  12.503 -0.3472  0.2774  0.2268
18172TIP3    H275932   3.281   4.209  12.494 -0.8914 -0.2310 -1.3188
18173TIP3   OH275933   2.762   5.016  13.772  0.2514  0.5412  0.3276
18173TIP3    H175934   2.667   5.014  13.758  0.2742  0.7399  0.1423
18173TIP3    H275935   2.773   5.003  13.866  0.1407 -1.9807  0.0540
18174TIP3   OH275936   3.417   3.815   1.681  0.4279  0.3052 -0.0356
18174TIP3    H175937   3.378   3.902   1.669  0.2814  0.0051 -2.2180
18174TIP3    H275938   3.436   3.786   1.592 -1.2682 -2.7102  0.4675
18175TIP3   OH275939   1.883   4.959  12.566  0.5265 -0.2463  0.1773
18175TIP3    H175940   1.931   4.882  12.595 -0.2308 -0.7412  0.1289
18175TIP3    H275941   1.819   4.975  12.635  0.4566  0.1354  0.0274
18176TIP3   OH275942   3.816   6.427  12.964 -0.0732  0.2489  0.3711
18176TIP3    H175943   3.903   6.403  12.932 -0.9251 -0.9046 -1.2410
18176TIP3    H275944   3.770   6.344  12.973 -1.9159  0.9517 -1.6433
18177TIP3   OH275945   4.712   0.459   2.173  0.5536  0.1374  0.2003
18177TIP3    H175946   4.666   0.376   2.164 -0.3915  0.8124 -1.5127
18177TIP3    H275947   4.709   0.477   2.267 -0.5130 -1.0333  0.4225
18178TIP3   OH275948   4.514   2.038  15.692  0.5209 -0.4845  0.4183
18178TIP3    H175949   4.494   2.112  15.749  0.3569 -0.1706 -0.0413
18178TIP3    H275950   4.430   1.998  15.674  0.6161 -0.8240  0.7136
18179TIP3   OH275951   4.107   3.231   3.376 -0.9201  0.1167  0.5948
18179TIP3    H175952   4.064   3.302   3.328  1.5018  0.7083 -0.8445
18179TIP3    H275953   4.077   3.151   3.334  0.6532  0.6005 -1.6092
18180TIP3   OH275954   4.170   2.429   3.267 -0.7512  0.6813 -0.2650
18180TIP3    H175955   4.151   2.336   3.260  0.7144  0.1049  2.2473
18180TIP3    H275956   4.105   2.463   3.328 -1.2239  1.3101 -1.1034
18181TIP3   OH275957   3.969   6.595  16.932  0.4020 -0.0833  0.0942
18181TIP3    H175958   4.042   6.642  16.974 -0.1206  0.4157  0.4557
18181TIP3    H275959   3.937   6.535  17.000  0.5166 -0.3501 -0.0882
18182TIP3   OH275960   1.562   1.259  13.763 -0.0535 -0.1054  0.3376
18182TIP3    H175961   1.497   1.199  13.727  0.6597  0.4902 -2.1897
18182TIP3    H275962   1.511   1.334  13.795 -0.6956 -0.1529 -0.5420
18183TIP3   OH275963   5.304   3.524  15.719 -0.1184 -0.2817 -0.5749
18183TIP3    H175964   5.229   3.583  15.722  0.0007 -0.1132 -0.8517
18183TIP3    H275965   5.369   3.565  15.776  0.2066  0.1987 -1.2815
18184TIP3   OH275966   3.296   6.653   6.121  0.3253 -0.0894  0.1054
18184TIP3    H175967   3.366   6.708   6.086 -0.6544  1.1009 -0.0557
18184TIP3    H275968   3.325   6.630   6.209  0.6853  0.8558  0.2460
18185TIP3   OH275969   3.335   1.756  17.023  0.1410 -0.0247 -0.1061
18185TIP3    H175970   3.372   1.784  16.939  1.7195  0.9881  0.8699
18185TIP3    H275971   3.245   1.788  17.022  0.8102  1.9607 -0.5223
18186TIP3   OH275972   0.195   6.474  12.978 -0.4557  0.4967  0.5515
18186TIP3    H175973   0.132   6.454  12.910  0.0571  2.2344 -0.5174
18186TIP3    H275974   0.149   6.534  13.037 -0.2022  0.7985  0.4481
18187TIP3   OH275975   3.393   5.833   5.201 -0.5353 -0.1368 -0.4713
18187TIP3    H175976   3.439   5.909   5.165 -0.0365  0.4069  1.1824
18187TIP3    H275977   3.316   5.870   5.244 -0.2860 -0.5448  0.3558
18188TIP3   OH275978   2.949   2.261   3.302 -0.0186 -0.4036  0.1702
18188TIP3    H175979   2.932   2.266   3.396 -0.4820  0.0294  0.0662
18188TIP3    H275980   3.026   2.204   3.294 -0.5974 -1.2783  0.7399
18189TIP3   OH275981   1.226   6.698  11.070  0.1578  0.7308  0.1226
18189TIP3    H175982   1.293   6.739  11.015 -0.2239 -0.1284 -1.0232
18189TIP3    H275983   1.276   6.638  11.126  0.2545 -1.3526 -2.0425
18190TIP3   OH275984   1.812   5.229  12.824 -0.1972 -0.0245 -0.1269
18190TIP3    H175985   1.826   5.135  12.836  5.1105  0.6149  0.9548
18190TIP3    H275986   1.822   5.266  12.912 -0.5528  1.6817 -0.7633
18191TIP3   OH275987   2.750   5.272   0.476  0.0306 -0.8432 -0.5458
18191TIP3    H175988   2.728   5.364   0.492 -0.2052 -1.5370  5.6724
18191TIP3    H275989   2.844   5.267   0.494 -0.2850 -1.9877  0.9150
18192TIP3   OH275990   3.606   3.461  12.600  0.3112 -0.4299 -0.2668
18192TIP3    H175991   3.683   3.405  12.590 -0.1285 -1.7002  2.5155
18192TIP3    H275992   3.540   3.404  12.640 -0.5974  1.6808  1.4585
18193TIP3   OH275993   4.040   3.377  13.580  0.3798 -0.2056  0.0522
18193TIP3    H175994   3.992   3.428  13.644 -1.4971  1.4403 -2.4702
18193TIP3    H275995   4.128   3.415  13.580  0.1514  0.3464  1.0038
18194TIP3   OH275996   1.754   0.966  10.493  0.0024 -0.1899  0.0331
18194TIP3    H175997   1.824   1.028  10.513 -0.3729  0.8453 -1.6386
18194TIP3    H275998   1.679   0.996  10.545 -0.1183  0.6695 -0.6153
18195TIP3   OH275999   0.236   2.881  15.455 -0.4407 -0.2776  0.2403
18195TIP3    H176000   0.300   2.879  15.384  0.2986  1.1826  0.8219
18195TIP3    H276001   0.242   2.970  15.490 -2.2387 -0.3556  0.8254
18196TIP3   OH276002   3.709   4.333   0.281 -0.0887  0.0650  0.2117
18196TIP3    H176003   3.732   4.261   0.340 -1.1383 -0.5201 -0.0664
18196TIP3    H276004   3.614   4.343   0.291 -0.4680 -0.6809 -2.0578
18197TIP3   OH276005   2.468   4.517   2.091  0.3104  0.3992 -1.0013
18197TIP3    H176006   2.379   4.509   2.124  0.7305  2.7850  1.0590
18197TIP3    H276007   2.513   4.438   2.120 -0.0855  1.1499  1.9172
18198TIP3   OH276008   0.294   4.288   4.386 -0.0139  0.0758 -0.3741
18198TIP3    H176009   0.345   4.241   4.452 -1.8232 -1.9578 -0.3355
18198TIP3    H276010   0.217   4.319   4.432 -0.7566 -0.3833 -1.2738
18199TIP3   OH276011   3.481   3.787   0.546  0.5509  0.0900  1.0455
18199TIP3    H176012   3.519   3.784   0.459 -1.9252 -0.2572 -0.1346
18199TIP3    H276013   3.500   3.701   0.584 -2.2356 -1.6315 -1.0844
18200TIP3   OH276014   2.541   5.659  11.051  0.3778  0.1308  0.0978
18200TIP3    H176015   2.599   5.711  10.996  0.7270  1.6464  1.7978
18200TIP3    H276016   2.589   5.576  11.064  1.0791  0.4435 -0.4340
18201TIP3   OH276017   0.221   3.687  15.581 -0.4452  0.0470 -0.0270
18201TIP3    H176018   0.270   3.709  15.502  0.8857 -2.6289 -0.0655
18201TIP3    H276019   0.161   3.617  15.553  0.0124 -0.9101  1.3041
18202TIP3   OH276020   4.332   0.230  11.705 -0.4710  0.4767 -0.0390
18202TIP3    H176021   4.307   0.319  11.680 -0.3470  0.6926  0.5959
18202TIP3    H276022   4.253   0.193  11.745 -0.0262  0.9077  1.2932
18203TIP3   OH276023   4.422   3.688   3.235  0.4254 -0.0983 -0.1326
18203TIP3    H176024   4.484   3.696   3.163  0.9794  2.0737  0.4845
18203TIP3    H276025   4.355   3.754   3.217  1.1647  1.2918  1.8183
18204TIP3   OH276026   3.674   2.186   0.371  0.5405  0.0609 -0.2552
18204TIP3    H176027   3.728   2.129   0.316 -0.6400 -1.9436  0.5352
18204TIP3    H276028   3.588   2.145   0.372 -0.9147  2.8438 -0.9872
18205TIP3   OH276029   6.138   6.391  11.073  0.6877  0.4548  0.4118
18205TIP3    H176030   6.076   6.379  11.001 -0.4567 -0.3108  1.4748
18205TIP3    H276031   6.217   6.426  11.031 -0.2637  0.9441 -1.0602
18206TIP3   OH276032   4.601   5.019  13.660 -0.0558 -0.5896 -0.2661
18206TIP3    H176033   4.521   4.983  13.699  1.2888 -2.1932  1.1435
18206TIP3    H276034   4.605   4.977  13.574 -0.2896 -1.2041  0.0095
18207TIP3   OH276035   4.519   6.059  15.903 -0.0195 -0.4008 -0.1096
18207TIP3    H176036   4.496   6.023  15.989  0.3546 -2.1035 -0.6718
18207TIP3    H276037   4.565   5.987  15.859 -3.5617 -1.0606 -3.2452
18208TIP3   OH276038   4.915   0.528   0.184  0.5303 -0.9198 -0.2555
18208TIP3    H176039   4.929   0.444   0.226 -0.3535 -1.8602 -1.7590
18208TIP3    H276040   4.842   0.568   0.233  0.9995 -0.9727  0.5028
18209TIP3   OH276041   4.127   0.561   0.342  0.8221 -0.2930 -0.2481
18209TIP3    H176042   4.217   0.565   0.376  0.9384  0.6902 -0.6419
18209TIP3    H276043   4.134   0.591   0.252 -0.4011  3.5676  0.7539
18210TIP3   OH276044   3.053   4.560   6.670  0.8060  0.2669 -0.0546
18210TIP3    H176045   2.970   4.600   6.643  1.7280  0.8173 -2.2892
18210TIP3    H276046   3.029   4.472   6.697 -0.5386  0.4635 -0.5336
18211TIP3   OH276047   1.196   4.470   4.887  0.7899  0.3355 -0.3173
18211TIP3    H176048   1.210   4.471   4.793 -0.8635  0.1096 -0.5968
18211TIP3    H276049   1.110   4.510   4.899  0.9409  0.2940  1.0872
18212TIP3   OH276050   6.258   4.301  16.930  0.4972 -0.1099  0.3688
18212TIP3    H176051   6.339   4.252  16.929  0.4211 -0.2295 -0.3001
18212TIP3    H276052   6.217   4.279  17.014  1.2068  0.0531  0.7651
18213TIP3   OH276053   4.865   3.939  13.443 -0.0825 -0.0492 -0.2164
18213TIP3    H176054   4.943   3.915  13.494  0.3769  1.2671 -0.2554
18213TIP3    H276055   4.898   3.952  13.354 -0.6224 -0.9131 -0.5540
18214TIP3   OH276056   4.799   6.759  15.103 -0.0212 -0.1088  0.4522
18214TIP3    H176057   4.895   6.767  15.102  0.0278 -0.0389  2.1351
18214TIP3    H276058   4.782   6.669  15.077  0.5337 -0.2839  0.6781
18215TIP3   OH276059   1.515   4.246   5.638 -0.1391  0.1947 -0.3766
18215TIP3    H176060   1.517   4.150   5.630 -2.5413 -0.0178  0.5818
18215TIP3    H276061   1.603   4.269   5.666  0.6991 -1.6541 -1.2742
18216TIP3   OH276062   0.469   4.843  12.325 -0.0715 -0.3128 -1.0197
18216TIP3    H176063   0.413   4.780  12.371  1.0388  0.1835  1.1241
18216TIP3    H276064   0.412   4.917  12.306 -0.2566  0.0718  0.8835
18217TIP3   OH276065   1.180   2.364  16.021 -0.0325  0.2213  0.5020
18217TIP3    H176066   1.230   2.420  16.080 -0.7085 -0.0362  1.3530
18217TIP3    H276067   1.096   2.409  16.010  0.3515  0.6468 -0.9027
18218TIP3   OH276068   2.148   5.513   1.537  0.1074  0.1451 -0.3717
18218TIP3    H176069   2.086   5.508   1.610  0.9400 -0.5093  0.3185
18218TIP3    H276070   2.100   5.476   1.463 -1.0380  1.5880 -0.3941
18219TIP3   OH276071   4.202   0.762   4.722 -0.2978  0.4728  0.6008
18219TIP3    H176072   4.236   0.840   4.677 -0.5381  0.9993  1.3212
18219TIP3    H276073   4.246   0.689   4.678 -0.5363  0.9674 -0.5081
18220TIP3   OH276074   0.825   1.779   4.658 -0.0947 -0.3365  0.1142
18220TIP3    H176075   0.811   1.873   4.665 -1.3002 -0.5991  1.7771
18220TIP3    H276076   0.892   1.759   4.723  1.5573 -0.4158 -1.5170
18221TIP3   OH276077   0.176   5.881  11.309  0.2076 -0.4851  0.3270
18221TIP3    H176078   0.135   5.804  11.349 -0.8096  0.5454  1.3639
18221TIP3    H276079   0.225   5.921  11.380  0.4102  0.0301 -0.1002
18222TIP3   OH276080   4.976   2.303   4.843  0.2758  0.2216 -0.2390
18222TIP3    H176081   5.065   2.269   4.853 -0.1993 -1.8234 -2.2352
18222TIP3    H276082   4.988   2.394   4.815  1.6372  0.8363  2.0586
18223TIP3   OH276083   6.635   3.380   5.042 -0.2563 -0.8257 -0.3696
18223TIP3    H176084   6.548   3.375   5.002  0.6925  1.8109 -3.1800
18223TIP3    H276085   6.619   3.415   5.130 -2.0370  0.3400 -1.0928
18224TIP3   OH276086   6.623   5.153   5.853 -0.2297 -0.1412  0.1862
18224TIP3    H176087   6.692   5.206   5.814 -0.6792  1.5526  1.5323
18224TIP3    H276088   6.593   5.096   5.783  0.9552  0.7266 -1.0713
18225TIP3   OH276089   6.356   0.226  16.957  0.2651 -0.2768 -0.1731
18225TIP3    H176090   6.428   0.240  16.896 -0.2803 -1.3039 -1.0864
18225TIP3    H276091   6.393   0.168  17.024  0.3540 -0.6314 -0.5252
18226TIP3   OH276092   1.729   0.954  13.349 -0.3342 -0.0055  0.3627
18226TIP3    H176093   1.766   0.867  13.364 -1.2304 -0.4654 -0.0083
18226TIP3    H276094   1.634   0.940  13.349 -0.5234  1.1148  1.1558
18227TIP3   OH276095   4.705   4.336   1.499  0.3092  0.3395 -0.3320
18227TIP3    H176096   4.787   4.325   1.548  0.8529 -0.4922 -1.3962
18227TIP3    H276097   4.721   4.411   1.442  0.1022  0.5647 -0.0954
18228TIP3   OH276098   6.387   4.402  15.078 -0.4952 -0.6514  0.2981
18228TIP3    H176099   6.458   4.376  15.138 -0.2163 -2.7740 -0.8341
18228TIP3    H276100   6.367   4.492  15.103  2.4800  0.0037  0.7964
18229TIP3   OH276101   1.918   6.221   3.446 -0.8649 -0.4113  0.3227
18229TIP3    H176102   1.844   6.281   3.451  0.7247  1.7276 -0.2723
18229TIP3    H276103   1.983   6.267   3.393  0.7041 -2.4248  0.3529
18230TIP3   OH276104   0.486   4.307  16.790 -0.4652  0.1760  0.2491
18230TIP3    H176105   0.436   4.295  16.871 -1.1162  0.1298 -0.1554
18230TIP3    H276106   0.464   4.231  16.736  0.4339 -0.1054  0.2556
18231TIP3   OH276107   4.469   3.808  13.174  0.1242 -0.0391 -0.1248
18231TIP3    H176108   4.399   3.865  13.143 -0.0839 -1.1413 -1.7977
18231TIP3    H276109   4.534   3.868  13.212 -0.4595  1.2284 -1.0648
18232TIP3   OH276110   0.418   1.749  14.045  0.3548 -0.0849 -0.3243
18232TIP3    H176111   0.364   1.811  14.094 -0.8171  0.1778 -1.8644
18232TIP3    H276112   0.493   1.732  14.102 -1.2266 -0.3004  1.8181
18233TIP3   OH276113   4.013   1.800   0.766 -0.2235  0.4081  0.2377
18233TIP3    H176114   3.938   1.777   0.711 -0.4414 -0.4879  0.8859
18233TIP3    H276115   3.974   1.827   0.849  0.0758  2.3201 -0.2065
18234TIP3   OH276116   4.641   0.398   3.066  0.2445  0.4175  0.3149
18234TIP3    H176117   4.723   0.444   3.044  0.3743 -0.7922 -2.0642
18234TIP3    H276118   4.669   0.321   3.114  0.4022  0.5351  0.4154
18235TIP3   OH276119   4.458   4.732  11.599  0.4592 -0.5847  0.2959
18235TIP3    H176120   4.363   4.731  11.589  0.4755 -1.2933  0.1484
18235TIP3    H276121   4.480   4.823  11.618 -0.0640 -0.0910 -1.3656
18236TIP3   OH276122   2.475   1.785   5.197  0.4863  0.0613  0.2810
18236TIP3    H176123   2.518   1.760   5.116  0.6392 -1.2305  0.7279
18236TIP3    H276124   2.414   1.713   5.214  1.2754 -0.2633  1.8974
18237TIP3   OH276125   0.304   6.621  16.863 -0.6974 -0.1157 -0.1560
18237TIP3    H176126   0.211   6.616  16.841 -1.1445 -1.8159  1.8179
18237TIP3    H276127   0.346   6.557  16.806 -0.8720 -0.0262 -0.3874
18238TIP3   OH276128   2.391   3.492  12.424  0.3077 -0.5363  0.0184
18238TIP3    H176129   2.433   3.490  12.338 -1.3594  0.5949 -0.8826
18238TIP3    H276130   2.324   3.424  12.419 -0.7644  0.4975 -0.1528
18239TIP3   OH276131   4.716   0.308   3.347  0.5706 -0.1836  0.1812
18239TIP3    H176132   4.729   0.389   3.396  0.1611 -0.4506  0.7515
18239TIP3    H276133   4.798   0.294   3.300  0.2149  1.1887 -0.8884
18240TIP3   OH276134   4.272   2.242   4.607  0.6004 -0.0618  0.3058
18240TIP3    H176135   4.236   2.208   4.689  0.1776 -0.9865 -0.2460
18240TIP3    H276136   4.233   2.187   4.539  2.0831 -0.2664 -0.4121
18241TIP3   OH276137   2.666   2.474   0.369  0.8631  0.1137  0.5033
18241TIP3    H176138   2.639   2.385   0.393 -0.9193  0.1782 -1.0135
18241TIP3    H276139   2.743   2.462   0.314 -0.0825 -0.6124 -0.7017
18242TIP3   OH276140   2.519   0.113  16.567  0.7015  0.3884  0.2357
18242TIP3    H176141   2.579   0.096  16.640 -0.2566 -3.0918  0.3889
18242TIP3    H276142   2.434   0.126  16.608 -0.0793 -2.8008 -0.1538
18243TIP3   OH276143   0.464   5.818   1.978  0.2113  0.4755 -0.7636
18243TIP3    H176144   0.545   5.868   1.972  1.1236 -1.0660 -2.9398
18243TIP3    H276145   0.488   5.741   2.030  0.4429 -0.3614 -2.0415
18244TIP3   OH276146   5.938   5.627   4.919 -0.0710  0.5082 -0.1189
18244TIP3    H176147   5.929   5.601   5.011  2.2943  2.0792  0.6423
18244TIP3    H276148   5.979   5.552   4.877 -0.9444 -0.1282  0.1330
18245TIP3   OH276149   3.010   1.815   6.608 -0.4956  0.1292 -0.4938
18245TIP3    H176150   2.999   1.907   6.584 -0.6857 -0.2411 -1.8520
18245TIP3    H276151   3.105   1.802   6.609 -0.2912  0.9902  2.3790
18246TIP3   OH276152   2.971   2.055   1.310 -0.2427 -0.2591  0.1773
18246TIP3    H176153   3.032   2.124   1.285 -1.3130  0.3816 -0.7727
18246TIP3    H276154   2.988   2.041   1.403  0.7997  0.4609  0.1148
18247TIP3   OH276155   1.530   2.706  15.406 -0.2149 -0.1146  0.0337
18247TIP3    H176156   1.551   2.618  15.437  0.8499 -0.6010 -1.8987
18247TIP3    H276157   1.442   2.723  15.440  0.9066 -0.4400  3.4417
18248TIP3   OH276158   2.331   1.984  12.281 -0.2412  1.1275 -0.3506
18248TIP3    H176159   2.293   1.902  12.311  0.2725  0.5426 -1.2607
18248TIP3    H276160   2.279   2.008  12.205 -0.1176  1.4280 -0.3420
18249TIP3   OH276161   2.630   2.056  13.462  0.0972  0.3563  0.2089
18249TIP3    H176162   2.545   2.033  13.500  0.7215 -0.9463  0.8643
18249TIP3    H276163   2.669   2.116  13.525 -0.0489  0.4178  0.2415
18250TIP3   OH276164   3.231   5.658   3.440 -0.2388  0.1922 -0.4576
18250TIP3    H176165   3.169   5.702   3.381 -2.1805  0.1110  1.4121
18250TIP3    H276166   3.257   5.580   3.392 -2.0496 -0.0611 -1.1307
18251TIP3   OH276167   2.673   1.637   0.456  0.0583  0.1260 -0.1566
18251TIP3    H176168   2.760   1.666   0.484 -0.5016  0.9438  0.8165
18251TIP3    H276169   2.653   1.564   0.514 -0.1042  0.2508 -0.0569
18252TIP3   OH276170   5.767   0.526  13.187 -0.5732  0.8874 -0.2388
18252TIP3    H176171   5.763   0.430  13.184 -2.3618  0.9357 -0.4088
18252TIP3    H276172   5.773   0.552  13.095 -4.1380  0.9821 -0.5818
18253TIP3   OH276173   3.577   1.801   5.642 -0.1884  0.4308  0.4789
18253TIP3    H176174   3.511   1.740   5.675 -0.3681  0.4682  0.1958
18253TIP3    H276175   3.630   1.824   5.718 -0.1711 -0.0156  0.6025
18254TIP3   OH276176   0.261   2.220  11.727  0.4053  0.3340 -0.1330
18254TIP3    H176177   0.323   2.147  11.726  0.7194  0.5818  0.7982
18254TIP3    H276178   0.196   2.196  11.661  0.9512 -0.3944 -0.4260
18255TIP3   OH276179   4.099   2.597  12.032  0.6901  0.4430 -0.2451
18255TIP3    H176180   4.050   2.615  12.112 -0.2651  1.1191 -0.9618
18255TIP3    H276181   4.115   2.683  11.993 -1.4354  0.0371 -2.2500
18256TIP3   OH276182   6.495   6.160   0.055 -0.7352  0.4825  0.1448
18256TIP3    H176183   6.493   6.082   0.110  1.0267  0.5273  0.3034
18256TIP3    H276184   6.548   6.223   0.103 -0.7004  1.1687 -0.7650
18257TIP3   OH276185   5.370   0.860   0.821  0.1169 -0.4688  0.0822
18257TIP3    H176186   5.313   0.853   0.745  0.0373 -2.4086  0.2749
18257TIP3    H276187   5.384   0.954   0.832 -0.7949 -0.0969 -1.6208
18258TIP3   OH276188   1.515   4.781   2.280 -0.1758  0.7143 -0.0451
18258TIP3    H176189   1.460   4.750   2.353  0.0916  0.5066  0.0692
18258TIP3    H276190   1.558   4.859   2.315  0.8748 -0.0547  0.4427
18259TIP3   OH276191   4.203   1.051   2.799  0.1053 -0.1448  0.5305
18259TIP3    H176192   4.289   1.022   2.830  0.0965 -0.5765  0.1557
18259TIP3    H276193   4.218   1.139   2.766  0.6269 -0.5967 -0.4874
18260TIP3   OH276194   0.770   2.548  11.195  0.6772 -0.4344  0.0589
18260TIP3    H176195   0.817   2.523  11.115  0.5352  0.8651 -0.4662
18260TIP3    H276196   0.832   2.605  11.241 -0.0267  0.5790 -0.2066
18261TIP3   OH276197   5.341   2.147   5.789 -0.5074  0.2891  0.7291
18261TIP3    H176198   5.418   2.166   5.844 -0.7222  1.2133  0.7240
18261TIP3    H276199   5.359   2.192   5.707  0.5128 -2.2904 -0.6038
18262TIP3   OH276200   6.264   3.275   3.313  0.1554  0.1967 -0.2486
18262TIP3    H176201   6.201   3.203   3.311 -0.1401  0.4722 -1.4131
18262TIP3    H276202   6.336   3.242   3.368 -1.1239  0.0162  1.4122
18263TIP3   OH276203   2.624   1.370   3.862 -0.2536 -0.2673 -0.1912
18263TIP3    H176204   2.590   1.323   3.938  3.9093 -0.8795  1.5854
18263TIP3    H276205   2.648   1.457   3.895 -0.5836  0.3378 -1.4483
18264TIP3   OH276206   1.106   4.507  14.564 -0.1169 -0.4050 -0.2695
18264TIP3    H176207   1.052   4.562  14.620  0.0526 -0.6835  0.1700
18264TIP3    H276208   1.161   4.569  14.516 -0.3504 -0.1604 -0.2234
18265TIP3   OH276209   0.639   2.754   0.103  0.1095 -0.7770  0.4595
18265TIP3    H176210   0.735   2.744   0.098  0.3754  1.4940 -0.1487
18265TIP3    H276211   0.626   2.843   0.135 -1.8098 -0.7635 -0.2439
18266TIP3   OH276212   2.178   1.796   6.613 -0.2756 -0.5182 -0.4534
18266TIP3    H176213   2.121   1.757   6.547  0.5326  0.0766 -1.5481
18266TIP3    H276214   2.188   1.887   6.585  0.6816 -0.4497  0.0607
18267TIP3   OH276215   6.146   4.050   3.718  0.0565 -0.6029  0.1954
18267TIP3    H176216   6.157   4.017   3.629  2.4225 -2.2890  1.0198
18267TIP3    H276217   6.222   4.107   3.732 -1.4800  1.5058  0.4373
18268TIP3   OH276218   2.414   1.288  11.748  0.0231 -0.0701  0.0695
18268TIP3    H176219   2.467   1.367  11.740  0.5612 -0.3957  0.4144
18268TIP3    H276220   2.371   1.280  11.662  1.2800 -0.3314 -0.5667
18269TIP3   OH276221   1.842   1.524   3.175 -0.1840  0.4647 -0.6357
18269TIP3    H176222   1.762   1.576   3.164 -0.9532 -0.1857  1.3718
18269TIP3    H276223   1.811   1.440   3.211  1.5004  0.9188  2.1752
18270TIP3   OH276224   3.074   0.630   3.741 -0.1783  0.2326 -0.5355
18270TIP3    H176225   3.111   0.692   3.678  1.1530  0.1726  0.1559
18270TIP3    H276226   3.031   0.564   3.687  2.0759 -0.5471 -1.4619
18271TIP3   OH276227   4.563   1.821  13.174 -0.4822 -0.0247  0.3566
18271TIP3    H176228   4.485   1.877  13.175  1.7415  3.3403  0.3528
18271TIP3    H276229   4.553   1.768  13.095 -2.5017  0.6948  0.0565
18272TIP3   OH276230   1.605   4.543  13.990  0.3979  0.3918  0.1000
18272TIP3    H176231   1.700   4.552  13.982  0.3064  1.2728 -0.1375
18272TIP3    H276232   1.570   4.587  13.912 -0.2552  1.6034  1.0444
18273TIP3   OH276233   6.375   1.012  14.707  0.2740 -0.4461 -0.8392
18273TIP3    H176234   6.295   0.959  14.701  1.1379 -1.8070 -0.9306
18273TIP3    H276235   6.378   1.061  14.625 -1.0481  0.5130 -0.3425
18274TIP3   OH276236   4.495   6.310  14.918  0.4125 -0.0184  0.1067
18274TIP3    H176237   4.459   6.372  14.981 -0.6893  0.2355 -0.7421
18274TIP3    H276238   4.585   6.295  14.947  0.2831  0.9749  1.0634
18275TIP3   OH276239   3.346   1.896  11.219 -0.1545  0.2708 -0.6558
18275TIP3    H176240   3.254   1.917  11.233 -0.6556 -1.9144 -0.3891
18275TIP3    H276241   3.377   1.965  11.160 -1.8039  1.3331 -0.3509
18276TIP3   OH276242   3.851   2.245  12.616 -0.7781  0.2896  0.4448
18276TIP3    H176243   3.918   2.296  12.661  0.1304  0.1181 -0.6528
18276TIP3    H276244   3.846   2.284  12.529 -0.3256 -1.2313 -0.3005
18277TIP3   OH276245   0.175   5.281  11.866  0.3197 -0.5857  0.9733
18277TIP3    H176246   0.228   5.333  11.807 -1.9876 -0.3495 -1.0289
18277TIP3    H276247   0.181   5.192  11.831 -1.5378 -0.3421 -0.0758
18278TIP3   OH276248   1.495   1.717   0.339 -0.1052  0.2051  1.1503
18278TIP3    H176249   1.511   1.624   0.320 -2.9664 -0.2113  0.2455
18278TIP3    H276250   1.440   1.717   0.416 -2.8998  0.8374 -0.6958
18279TIP3   OH276251   6.132   6.036  11.973 -0.1773 -0.2786  0.2550
18279TIP3    H176252   6.073   6.107  11.995 -1.1574 -0.7327 -0.7934
18279TIP3    H276253   6.088   5.989  11.902  1.7499 -0.2164 -1.0759
18280TIP3   OH276254   3.978   2.610   2.695 -0.0009 -0.2180  0.1408
18280TIP3    H176255   3.917   2.585   2.626  0.7102 -0.5231 -0.3891
18280TIP3    H276256   4.062   2.574   2.667 -0.0400 -2.0130  2.0989
18281TIP3   OH276257   2.506   4.369  12.298 -0.1189  0.1803 -0.6283
18281TIP3    H176258   2.526   4.361  12.391 -0.0045  2.8597 -0.3328
18281TIP3    H276259   2.418   4.332  12.289  0.1647 -0.7870  0.3782
18282TIP3   OH276260   1.441   6.320  10.362 -0.3495  0.3423 -0.1864
18282TIP3    H176261   1.370   6.310  10.298 -0.3214 -0.3892 -0.1123
18282TIP3    H276262   1.426   6.250  10.425  1.3412 -0.8412 -1.0243
18283TIP3   OH276263   3.338   1.684   6.482 -0.1377  0.4499 -0.1565
18283TIP3    H176264   3.277   1.700   6.554  0.6802 -1.8248  1.1390
18283TIP3    H276265   3.392   1.611   6.512  1.1534  0.3219 -2.5506
18284TIP3   OH276266   4.763   5.320   2.474  0.4935 -0.5406 -0.1598
18284TIP3    H176267   4.805   5.263   2.538  0.3096  0.4992  0.9122
18284TIP3    H276268   4.669   5.301   2.482  0.5501 -1.1709 -0.8877
18285TIP3   OH276269   6.215   3.683  16.842 -0.4980  0.0604  0.0388
18285TIP3    H176270   6.128   3.642  16.839 -0.5302  0.0076  1.2564
18285TIP3    H276271   6.237   3.699  16.750 -0.6287 -2.3473 -0.4705
18286TIP3   OH276272   0.704   1.975  11.263 -0.6573  0.1521 -0.1813
18286TIP3    H176273   0.724   1.924  11.342  0.6468  0.3343 -0.3673
18286TIP3    H276274   0.659   2.052  11.295  1.2928  1.0325  0.6182
18287TIP3   OH276275   6.753   6.602  12.527  0.1439  0.1237  0.0863
18287TIP3    H176276   6.676   6.549  12.511  0.5041  0.0041 -1.3494
18287TIP3    H276277   6.812   6.583  12.454  0.8337  1.4840  0.2428
18288TIP3   OH276278   4.679   4.634   3.430 -0.0829  0.4090  0.2126
18288TIP3    H176279   4.645   4.557   3.386 -2.1375  1.4553 -0.1734
18288TIP3    H276280   4.771   4.615   3.446 -0.5965 -2.1982  0.3825
18289TIP3   OH276281   6.694   6.306   4.611  0.7139 -0.0004  0.0987
18289TIP3    H176282   6.767   6.319   4.672  1.4291  0.0624 -0.7450
18289TIP3    H276283   6.671   6.214   4.620 -0.3536  0.3962  1.7154
18290TIP3   OH276284   0.105   5.187  12.149 -0.0269  0.2222 -0.0809
18290TIP3    H176285   0.045   5.259  12.170  1.0583  0.3395  3.2999
18290TIP3    H276286   0.175   5.228  12.098 -0.9954  0.8338 -0.9631
18291TIP3   OH276287   2.832   3.563   5.580 -0.2360  0.0856 -0.0586
18291TIP3    H176288   2.820   3.646   5.534  2.2872  0.7918  0.3733
18291TIP3    H276289   2.775   3.570   5.657 -1.5245  0.5528 -1.0165
18292TIP3   OH276290   1.730   5.895  16.631 -0.5259  0.3123  0.4553
18292TIP3    H176291   1.773   5.823  16.678  0.2208  0.2631 -0.2873
18292TIP3    H276292   1.637   5.882  16.649 -0.3795 -0.6543  0.5966
18293TIP3   OH276293   2.128   6.190   5.484 -0.1383 -0.8983  0.2759
18293TIP3    H176294   2.081   6.242   5.550  0.0906 -2.2795  1.5899
18293TIP3    H276295   2.059   6.140   5.440 -0.2262 -0.4617 -0.0849
18294TIP3   OH276296   2.728   3.338   3.824 -0.0407 -0.3992  0.0061
18294TIP3    H176297   2.711   3.248   3.852  1.4868 -1.0693 -1.0632
18294TIP3    H276298   2.641   3.377   3.816 -0.7187 -1.6112  0.9731
18295TIP3   OH276299   2.796   5.372   4.955 -0.0011  0.1341  0.0866
18295TIP3    H176300   2.891   5.385   4.963 -0.1726  0.3522  2.1475
18295TIP3    H276301   2.786   5.318   4.876  1.9104 -0.7509  0.3904
18296TIP3   OH276302   3.329   4.261   0.092  0.1989 -0.3133 -0.0602
18296TIP3    H176303   3.271   4.231   0.161  1.0010 -0.3594  0.6098
18296TIP3    H276304   3.415   4.226   0.116  0.5367 -0.1219 -0.9500
18297TIP3   OH276305   3.627   1.144   2.790 -0.0075  0.3145  0.1820
18297TIP3    H176306   3.683   1.216   2.761 -0.4845  1.3418  1.6513
18297TIP3    H276307   3.542   1.186   2.807 -0.3458 -0.6174  0.9007
18298TIP3   OH276308   2.090   1.311  15.241  0.1663 -0.3329  0.3049
18298TIP3    H176309   2.025   1.316  15.311  0.6178 -0.1234  0.7151
18298TIP3    H276310   2.042   1.336  15.162 -0.5383 -1.3345  0.4017
18299TIP3   OH276311   6.634   3.433   0.219 -0.1943  0.0636 -0.0919
18299TIP3    H176312   6.652   3.445   0.313  0.8504 -1.0110 -0.1247
18299TIP3    H276313   6.654   3.518   0.180  0.9507  0.0733  0.4607
18300TIP3   OH276314   4.033   2.432   4.080  0.3655  0.4069  0.7453
18300TIP3    H176315   4.071   2.376   4.012  1.5085  1.4521  0.4931
18300TIP3    H276316   3.970   2.486   4.034 -0.8364 -0.7130  1.0110
18301TIP3   OH276317   0.911   3.452   3.108 -0.3910 -0.3293 -0.8165
18301TIP3    H176318   0.997   3.472   3.071  0.7005  0.7530  2.0199
18301TIP3    H276319   0.903   3.357   3.101  1.7025 -0.6196  0.1291
18302TIP3   OH276320   1.934   0.688  10.408  0.8239  0.8496  0.0022
18302TIP3    H176321   2.001   0.728  10.351 -0.1832  1.7683 -0.5743
18302TIP3    H276322   1.975   0.608  10.440  1.4050  0.1998 -2.1578
18303TIP3   OH276323   2.730   3.242   5.343 -0.1355 -0.1427 -0.1091
18303TIP3    H176324   2.825   3.246   5.356 -0.0316 -2.4587  0.1873
18303TIP3    H276325   2.694   3.285   5.420  0.6678 -2.0620  1.4063
18304TIP3   OH276326   3.936   3.085  13.597 -0.4365 -0.1193 -0.2744
18304TIP3    H176327   3.862   3.094  13.537 -1.3791  0.3090  0.8974
18304TIP3    H276328   3.982   3.169  13.591  0.0640 -0.4422 -1.1193
18305TIP3   OH276329   3.859   3.058  11.393  0.3231 -0.0901 -0.2245
18305TIP3    H176330   3.825   3.140  11.430  0.5090 -0.1600  0.1034
18305TIP3    H276331   3.783   3.018  11.351 -0.1289 -0.4777  0.9196
18306TIP3   OH276332   0.057   1.125   1.299  0.2462 -0.0021  0.0508
18306TIP3    H176333   0.086   1.042   1.261 -0.9842 -1.6719  2.4981
18306TIP3    H276334  -0.034   1.109   1.326 -0.2525  2.3827 -0.0218
18307TIP3   OH276335   0.547   4.470  12.523 -0.0877  0.1235 -0.1121
18307TIP3    H176336   0.565   4.451  12.615  1.4010  3.1625  0.3685
18307TIP3    H276337   0.625   4.439  12.477  0.0043  0.2937 -0.0719
18308TIP3   OH276338   1.530   0.244   1.290 -0.6484  0.2728  0.5240
18308TIP3    H176339   1.504   0.293   1.368 -1.0731 -0.3161  0.7662
18308TIP3    H276340   1.534   0.153   1.320 -0.4290  0.0901 -0.0490
18309TIP3   OH276341   4.275   6.570  14.066 -0.2902 -0.3951  0.1488
18309TIP3    H176342   4.278   6.489  14.016  0.8615  0.6658 -1.6333
18309TIP3    H276343   4.198   6.616  14.032 -0.1580 -0.1676  0.1549
18310TIP3   OH276344   3.924   4.713  12.443 -0.5117 -0.9712 -0.5306
18310TIP3    H176345   3.910   4.716  12.348 -1.0577  1.0022 -0.4287
18310TIP3    H276346   3.994   4.776  12.458 -2.0592  0.5549  0.5997
18311TIP3   OH276347   0.180   5.737  12.610  0.1545  0.6003 -0.2929
18311TIP3    H176348   0.220   5.659  12.648 -0.9417 -0.2791 -0.8884
18311TIP3    H276349   0.089   5.712  12.593 -0.3184  2.1233 -0.1653
18312TIP3   OH276350   4.445   5.700   5.315 -0.1008 -0.1832 -0.2253
18312TIP3    H176351   4.420   5.787   5.346  1.8848  0.6171 -0.7304
18312TIP3    H276352   4.464   5.650   5.395 -0.5368  0.0674  0.0378
18313TIP3   OH276353   5.960   0.905   1.859  0.9736  0.5047 -0.3484
18313TIP3    H176354   5.976   1.000   1.866  1.5341  0.3191  1.8199
18313TIP3    H276355   6.028   0.866   1.913  0.2809 -1.0982 -0.5941
18314TIP3   OH276356   2.776   1.673   6.604 -0.2465  0.0604  0.7431
18314TIP3    H176357   2.857   1.723   6.610  0.8083 -1.7191  3.0813
18314TIP3    H276358   2.719   1.713   6.670 -0.4910  0.0081  0.5650
18315TIP3   OH276359   5.978   3.968   2.643 -0.2784 -0.1140  0.1872
18315TIP3    H176360   5.965   4.021   2.565 -0.6228 -0.8786 -0.2859
18315TIP3    H276361   5.975   4.031   2.716  0.7646  0.7041 -0.4437
18316TIP3   OH276362   1.313   2.622  13.560 -0.1708 -0.1220 -0.0181
18316TIP3    H176363   1.224   2.656  13.567 -0.3616 -0.7486  0.8549
18316TIP3    H276364   1.344   2.617  13.651  0.5292 -0.5003 -0.2661
18317TIP3   OH276365   1.581   0.031   4.479 -0.0071  1.0954  0.0631
18317TIP3    H176366   1.523   0.021   4.404 -0.1924  0.6924  0.2582
18317TIP3    H276367   1.528   0.078   4.544  0.4803  2.3580 -0.4190
18318TIP3   OH276368   4.851   6.631  11.933 -0.0110 -0.2776 -0.0784
18318TIP3    H176369   4.877   6.553  11.982 -1.0796 -0.2729  0.5270
18318TIP3    H276370   4.889   6.619  11.847 -1.9490 -2.5734 -0.7264
18319TIP3   OH276371   5.786   3.656   3.124  0.0494 -0.2527  0.1634
18319TIP3    H176372   5.849   3.619   3.186  2.4427  0.3604 -1.7560
18319TIP3    H276373   5.786   3.750   3.142 -0.4894 -0.2680  0.2703
18320TIP3   OH276374   2.283   5.474  15.438  0.2369 -0.2128  0.1694
18320TIP3    H176375   2.211   5.512  15.488 -0.4352 -0.8348 -0.3046
18320TIP3    H276376   2.361   5.517  15.472 -0.3943  0.7663  0.4197
18321TIP3   OH276377   3.505   4.274   4.410 -0.3384  0.0941 -0.4534
18321TIP3    H176378   3.574   4.339   4.426  1.8803 -1.6646 -2.1671
18321TIP3    H276379   3.441   4.319   4.355  0.6560  1.1070 -0.8065
18322TIP3   OH276380   0.495   5.706   1.618 -0.4340 -0.2793  0.0988
18322TIP3    H176381   0.589   5.720   1.620 -0.4573 -0.2019  1.3042
18322TIP3    H276382   0.460   5.780   1.569  0.1713 -0.6432 -0.9197
18323TIP3   OH276383   5.920   0.304   3.678 -0.8644 -0.1752 -0.6244
18323TIP3    H176384   5.928   0.388   3.633  0.4786  0.4396  0.6671
18323TIP3    H276385   5.955   0.240   3.615  1.1033  0.6784 -0.4758
18324TIP3   OH276386   2.497   0.834  12.760  0.0657 -0.4037  0.1291
18324TIP3    H176387   2.419   0.874  12.722  0.5914  0.5819  0.0634
18324TIP3    H276388   2.511   0.881  12.843  0.1544 -1.0911  0.5158
18325TIP3   OH276389   4.489   3.248   0.743  0.2021  0.5294 -0.3504
18325TIP3    H176390   4.421   3.306   0.778  0.8739  0.9517  0.2776
18325TIP3    H276391   4.566   3.265   0.797  0.4015 -1.0222 -0.0986
18326TIP3   OH276392   1.171   1.019   0.699  0.1264 -0.6038 -0.0849
18326TIP3    H176393   1.260   0.994   0.671  0.4345  1.4656 -1.1337
18326TIP3    H276394   1.117   1.004   0.622  0.0416  0.4296 -0.2390
18327TIP3   OH276395   4.685   3.049  13.604 -0.3156 -0.7974 -0.0442
18327TIP3    H176396   4.773   3.047  13.565  0.0420  1.0627  0.5283
18327TIP3    H276397   4.627   3.070  13.530  0.2465  1.7932  0.1233
18328TIP3   OH276398   5.864   5.621   5.232 -0.4961 -0.1644  0.0464
18328TIP3    H176399   5.883   5.558   5.302  0.9680 -0.7965 -0.8767
18328TIP3    H276400   5.785   5.586   5.190  0.5905 -1.7389 -0.7968
18329TIP3   OH276401   0.681   5.343   3.033  0.4817 -0.2238  0.2962
18329TIP3    H176402   0.694   5.263   2.982 -1.3342 -0.1520 -0.3785
18329TIP3    H276403   0.731   5.410   2.987 -0.1803 -0.4160 -0.7448
18330TIP3   OH276404   4.320   0.380  11.164  0.3515 -0.7405  0.4076
18330TIP3    H176405   4.321   0.435  11.242  0.3149  0.4305 -0.3812
18330TIP3    H276406   4.393   0.320  11.176  0.5350 -0.3732  1.1970
18331TIP3   OH276407   4.967   0.630   5.736 -0.1912  0.6487 -0.1384
18331TIP3    H176408   5.055   0.607   5.764 -0.7553 -0.2674  0.9343
18331TIP3    H276409   4.925   0.666   5.814 -1.0350  0.2717 -0.4029
18332TIP3   OH276410   3.123   5.809  15.072  0.5038  0.0931 -0.0442
18332TIP3    H176411   3.033   5.789  15.047  0.8775 -1.4562 -0.2686
18332TIP3    H276412   3.154   5.728  15.114  1.4037  1.0204  1.1356
18333TIP3   OH276413   2.459   3.442   3.458 -0.1240 -0.0275  0.2595
18333TIP3    H176414   2.403   3.409   3.388  0.0426 -0.0881  0.1557
18333TIP3    H276415   2.398   3.465   3.528 -0.3725  0.9291 -0.2565
18334TIP3   OH276416   0.370   6.689   0.708 -0.1830 -0.2895 -0.6126
18334TIP3    H176417   0.376   6.607   0.659  1.3479  0.5252 -1.8692
18334TIP3    H276418   0.389   6.663   0.799 -1.9810 -1.6490 -0.5802
18335TIP3   OH276419   0.420   1.659   5.192  0.0430 -0.6224 -0.5609
18335TIP3    H176420   0.510   1.691   5.202 -0.1125 -0.5735  0.8807
18335TIP3    H276421   0.388   1.703   5.114  0.8565  0.3670 -0.3623
18336TIP3   OH276422   6.246   3.513   3.209 -0.1281 -0.5659  0.2327
18336TIP3    H176423   6.252   3.419   3.228  0.6652 -0.7522 -0.8696
18336TIP3    H276424   6.331   3.536   3.171 -0.5393  0.4685 -0.0953
18337TIP3   OH276425   4.939   1.656  11.886 -0.4001  0.1253 -0.3270
18337TIP3    H176426   4.869   1.613  11.836  0.6895 -0.8663 -1.0351
18337TIP3    H276427   4.905   1.744  11.903 -1.0495  0.3272 -2.3655
18338TIP3   OH276428   1.690   0.459  14.181 -0.8928 -0.0745  0.4408
18338TIP3    H176429   1.600   0.433  14.165 -0.6554 -0.1407 -0.8647
18338TIP3    H276430   1.729   0.383  14.225 -1.4650 -0.0374  1.0209
18339TIP3   OH276431   2.555   5.700  16.796  0.5764 -0.0760 -0.0101
18339TIP3    H176432   2.596   5.633  16.850  0.5165  0.1750  0.3468
18339TIP3    H276433   2.626   5.735  16.742  0.6494 -0.2726 -0.0418
18340TIP3   OH276434   5.593   2.660   3.957  0.8010 -0.5776  1.3020
18340TIP3    H176435   5.539   2.611   3.895  0.7552  0.4979  0.4636
18340TIP3    H276436   5.640   2.593   4.007 -1.0689 -1.5306  1.8581
18341TIP3   OH276437   5.755   6.495   2.896 -0.6839 -0.0041 -0.0546
18341TIP3    H176438   5.847   6.474   2.908 -0.7536  0.4637  1.5445
18341TIP3    H276439   5.747   6.585   2.928 -1.6529  0.0500 -0.4184
18342TIP3   OH276440   1.217   2.638   3.086  0.2797  0.6509 -0.1554
18342TIP3    H176441   1.163   2.666   3.012  0.2502  0.4373 -0.2139
18342TIP3    H276442   1.307   2.646   3.054  0.2739  0.7692 -0.1414
18343TIP3   OH276443   0.312   2.029   1.563  0.3519 -0.1770  0.3248
18343TIP3    H176444   0.299   2.008   1.471  1.0476  0.1416  0.1451
18343TIP3    H276445   0.301   1.946   1.609 -0.8610 -0.1823  0.0588
18344TIP3   OH276446   1.657   3.919   3.975  0.5257  0.3440 -0.0027
18344TIP3    H176447   1.700   4.004   3.965  1.0804 -0.1303 -2.1924
18344TIP3    H276448   1.676   3.893   4.064 -2.4217  3.9374  1.9857
18345TIP3   OH276449   1.015   5.998  14.536 -0.2709  0.1753  0.5679
18345TIP3    H176450   0.921   5.984  14.544 -0.3541 -0.5888 -1.2638
18345TIP3    H276451   1.052   5.964  14.617 -1.4022 -1.5418  0.3927
18346TIP3   OH276452   4.503   4.843  16.760 -0.6435 -0.2369 -0.3333
18346TIP3    H176453   4.562   4.865  16.687 -1.5100 -0.0850 -1.0034
18346TIP3    H276454   4.523   4.909  16.827 -0.3443  0.0679 -0.7127
18347TIP3   OH276455   0.091   0.812  13.429  0.5719 -0.3109  0.2250
18347TIP3    H176456   0.061   0.873  13.497 -2.1221  1.5150 -2.3262
18347TIP3    H276457   0.160   0.859  13.383  0.4568 -0.3477  0.0114
18348TIP3   OH276458   6.653   5.848  14.228 -0.5022  0.4078  0.1037
18348TIP3    H176459   6.722   5.782  14.222  1.0808  1.8233  1.5405
18348TIP3    H276460   6.633   5.854  14.321 -0.2698  2.2098  0.0819
18349TIP3   OH276461   0.890   0.987   2.424  0.5388 -0.0099  0.6803
18349TIP3    H176462   0.804   0.956   2.451  0.3504  0.2675  0.4060
18349TIP3    H276463   0.878   1.080   2.403  0.2252 -0.5701 -2.0759
18350TIP3   OH276464   2.697   2.727  13.792 -0.5049 -0.3484 -0.0996
18350TIP3    H176465   2.764   2.776  13.743 -0.2708 -0.4799  0.0882
18350TIP3    H276466   2.744   2.690  13.866 -0.5209 -1.4989 -0.6503
18351TIP3   OH276467   3.040   2.464   5.141 -0.8319  0.5501 -0.7722
18351TIP3    H176468   2.983   2.489   5.214 -1.5449  0.3685 -1.2563
18351TIP3    H276469   2.982   2.457   5.066 -0.3999 -0.8982 -1.0122
18352TIP3   OH276470   2.390   6.645   0.385  0.0500  0.1692 -0.2233
18352TIP3    H176471   2.485   6.655   0.396  0.4433 -2.6148 -0.5067
18352TIP3    H276472   2.373   6.680   0.297  1.0284 -0.3824 -0.6490
18353TIP3   OH276473   2.347   4.710   4.676  0.6378  0.2590 -0.2778
18353TIP3    H176474   2.254   4.708   4.652 -0.2808  0.5523  2.7913
18353TIP3    H276475   2.347   4.734   4.769  3.7882 -0.2451 -0.0366
18354TIP3   OH276476   1.701   4.100  11.620 -0.2787  0.2741 -0.2359
18354TIP3    H176477   1.725   4.174  11.565  0.0035  0.3231 -0.0483
18354TIP3    H276478   1.609   4.114  11.641 -0.4568  0.1226 -0.8982
18355TIP3   OH276479   5.661   6.055  11.361  0.2682 -0.0527  0.5765
18355TIP3    H176480   5.710   6.069  11.442 -0.0460  0.8106  0.6336
18355TIP3    H276481   5.580   6.011  11.389  0.6912 -0.8565  0.5670
18356TIP3   OH276482   4.334   1.930  14.486  0.2312  0.1506 -0.0139
18356TIP3    H176483   4.270   1.971  14.428 -0.7692 -1.8945 -0.4414
18356TIP3    H276484   4.385   1.873  14.428 -0.4189 -1.5050  0.9764
18357TIP3   OH276485   6.213   6.499   4.215 -0.7215  0.0054 -0.5776
18357TIP3    H176486   6.143   6.564   4.207  0.8787  1.5698 -3.7188
18357TIP3    H276487   6.279   6.541   4.270 -1.9135 -1.3217  2.0631
18358TIP3   OH276488   3.197   2.164   3.344  0.0775  0.3340  0.0784
18358TIP3    H176489   3.272   2.197   3.295  2.7264 -1.7750  2.3341
18358TIP3    H276490   3.204   2.206   3.430 -2.1313  1.0123 -0.0135
18359TIP3   OH276491   1.675   4.538  11.767  0.1923 -0.3513  0.5125
18359TIP3    H176492   1.602   4.477  11.780 -0.5874  0.3291 -0.4868
18359TIP3    H276493   1.649   4.617  11.816  0.3135 -0.1490  0.2527
18360TIP3   OH276494   2.482   1.761   1.649 -0.4571 -0.1536 -0.1496
18360TIP3    H176495   2.412   1.823   1.669  0.5519  1.2141 -0.7085
18360TIP3    H276496   2.515   1.733   1.735 -1.0250 -0.0431  0.1084
18361TIP3   OH276497   0.787   5.039   5.066  0.0657  0.1118 -0.3815
18361TIP3    H176498   0.775   5.026   4.972  0.1488  1.0560 -0.5347
18361TIP3    H276499   0.721   5.105   5.089  0.4295  0.3075  0.1062
18362TIP3   OH276500   1.239   5.673   3.708 -0.2362 -0.7699 -0.1868
18362TIP3    H176501   1.252   5.668   3.802 -0.4562 -0.2766 -0.1241
18362TIP3    H276502   1.144   5.668   3.696 -0.2469 -0.2950 -0.3357
18363TIP3   OH276503   5.923   6.210  14.855  0.0748  0.6411  0.1350
18363TIP3    H176504   5.924   6.301  14.825  1.9857  0.4534 -0.5319
18363TIP3    H276505   5.927   6.158  14.775  2.5678  0.0766  0.5378
18364TIP3   OH276506   6.388   2.117   2.076 -0.4196 -0.9642  0.1627
18364TIP3    H176507   6.365   2.073   1.994  0.7556 -0.9079 -0.2163
18364TIP3    H276508   6.303   2.140   2.115 -1.0628 -3.1428  0.1567
18365TIP3   OH276509   6.659   5.898   1.334  0.3394 -0.1506  0.3243
18365TIP3    H176510   6.572   5.887   1.296  1.1760  0.6269 -2.0114
18365TIP3    H276511   6.648   5.963   1.403 -0.9676 -0.2488  0.2284
18366TIP3   OH276512   0.281   1.161   2.216  0.4154  0.1600  0.9781
18366TIP3    H176513   0.373   1.141   2.199  0.4290 -0.9546  2.2404
18366TIP3    H276514   0.233   1.097   2.164  0.3595  0.1614  1.0292
18367TIP3   OH276515   2.905   5.692   0.886 -0.0581  0.1756 -0.4590
18367TIP3    H176516   2.914   5.732   0.973 -0.4313  1.8008 -1.1297
18367TIP3    H276517   2.994   5.697   0.849 -0.0882  0.3109 -0.5127
18368TIP3   OH276518   5.628   3.601  16.707 -0.4804  0.1519 -0.6575
18368TIP3    H176519   5.533   3.599  16.722 -0.4909  3.4798  0.7927
18368TIP3    H276520   5.648   3.695  16.700  2.7918 -0.4220 -0.3365
18369TIP3   OH276521   2.298   2.735  11.055  0.2768  0.3907 -0.1276
18369TIP3    H176522   2.308   2.671  10.984  0.5293  1.1439 -0.7954
18369TIP3    H276523   2.387   2.766  11.071  0.3125 -0.2568  0.9989
18370TIP3   OH276524   1.658   0.652  14.346  0.7740  0.0196 -0.4308
18370TIP3    H176525   1.682   0.576  14.293  1.4567 -0.5171  0.6062
18370TIP3    H276526   1.593   0.699  14.293 -0.8840 -2.1218 -0.4322
18371TIP3   OH276527   3.282   2.252  14.183 -0.5259  0.2380 -0.5419
18371TIP3    H176528   3.229   2.332  14.184  0.0426  0.6233  0.2156
18371TIP3    H276529   3.354   2.273  14.124 -0.5262  0.1952 -0.5559
18372TIP3   OH276530   3.128   1.053   2.805 -0.4336 -0.0002 -0.4754
18372TIP3    H176531   3.160   1.134   2.766  0.0577  0.2009  0.3296
18372TIP3    H276532   3.095   1.002   2.731  0.2686  0.4654 -1.1213
18373TIP3   OH276533   3.682   2.068   2.400  0.2731 -0.9968 -0.1739
18373TIP3    H176534   3.610   2.077   2.463  1.9029 -1.5194  1.9009
18373TIP3    H276535   3.707   2.158   2.379 -0.1850 -0.8046  0.0755
18374TIP3   OH276536   5.650   5.152   2.633  0.4836 -0.1469 -0.0071
18374TIP3    H176537   5.635   5.072   2.682 -0.2035  0.9503  1.6802
18374TIP3    H276538   5.603   5.219   2.682  2.5150  1.6316 -0.3520
18375TIP3   OH276539   5.203   0.732  14.488 -0.2235 -0.6473 -0.1697
18375TIP3    H176540   5.172   0.659  14.542 -1.7220 -1.5218 -2.0731
18375TIP3    H276541   5.125   0.784  14.471  0.7697  1.3105  0.9093
18376TIP3   OH276542   0.527   3.514  15.787  0.6606 -0.3584  0.2130
18376TIP3    H176543   0.612   3.507  15.745  0.9427 -0.6240  0.8140
18376TIP3    H276544   0.534   3.593  15.842  0.0212  0.4593 -0.8355
18377TIP3   OH276545   6.161   1.754  10.953 -0.1793 -0.2672 -0.1396
18377TIP3    H176546   6.100   1.811  10.907  1.3203 -0.5117 -2.5810
18377TIP3    H276547   6.247   1.793  10.940  0.3822 -0.3722  2.5323
18378TIP3   OH276548   1.886   4.931   0.724 -0.4808  0.5524 -0.1678
18378TIP3    H176549   1.858   4.876   0.797  0.4149  0.6426  0.2596
18378TIP3    H276550   1.950   4.877   0.677  0.8558  1.4130  0.5961
18379TIP3   OH276551   2.100   5.102   1.089  0.0022  0.2905  0.3142
18379TIP3    H176552   2.152   5.178   1.062 -1.4216  1.2022  0.0272
18379TIP3    H276553   2.019   5.109   1.038 -1.8438  0.8171  3.1078
18380TIP3   OH276554   0.388   6.414   0.605 -0.3824  0.7644 -0.0016
18380TIP3    H176555   0.338   6.467   0.544 -1.0994 -1.3352 -1.3697
18380TIP3    H276556   0.392   6.327   0.564 -0.4311 -0.6235  2.6623
18381TIP3   OH276557   2.480   6.717  15.131  0.2537 -0.1060 -0.1953
18381TIP3    H176558   2.388   6.739  15.145  0.5293  0.1006  1.5350
18381TIP3    H276559   2.525   6.748  15.210  1.6491 -1.1145 -0.5441
18382TIP3   OH276560   6.117   4.911   3.172  0.2406 -0.1176  0.2420
18382TIP3    H176561   6.053   4.980   3.191 -0.4911 -0.1503 -1.8448
18382TIP3    H276562   6.200   4.958   3.161 -0.3339  0.5647 -1.6254
18383TIP3   OH276563   3.660   6.626   0.931  0.1833 -0.3823 -0.4034
18383TIP3    H176564   3.619   6.562   0.989 -0.4114  0.8396  0.5819
18383TIP3    H276565   3.629   6.711   0.963 -0.5667  0.3476 -2.8068
18384TIP3   OH276566   2.642   0.294   2.435  0.6257 -0.0820  0.4247
18384TIP3    H176567   2.688   0.230   2.380 -1.4682  0.0675 -1.6246
18384TIP3    H276568   2.568   0.322   2.383 -1.5960  0.0280  3.3763
18385TIP3   OH276569   1.757   0.450   3.692  0.4969  0.4134 -0.0853
18385TIP3    H176570   1.805   0.531   3.706  0.5709  0.9878 -3.0751
18385TIP3    H276571   1.819   0.380   3.714  0.4756  1.1037  2.3799
18386TIP3   OH276572   2.866   6.336  16.883 -0.3707 -0.0754 -0.0114
18386TIP3    H176573   2.938   6.390  16.851 -0.2209 -1.0830 -1.4609
18386TIP3    H276574   2.909   6.261  16.924 -0.5381 -0.9392 -1.3327
18387TIP3   OH276575   4.604   5.862  13.053  0.0033 -0.3996  0.0212
18387TIP3    H176576   4.593   5.796  13.122  1.2082  0.8772  1.4924
18387TIP3    H276577   4.532   5.924  13.068  0.4667  0.0637  0.3795
18388TIP3   OH276578   0.996   2.908   4.972 -0.7172  0.6204 -0.0335
18388TIP3    H176579   0.963   2.837   4.918  2.1127 -1.3590  0.6391
18388TIP3    H276580   0.957   2.892   5.059 -1.2777  0.8070 -0.2478
18389TIP3   OH276581   0.423   1.326   1.714 -0.5073 -0.3921  0.0028
18389TIP3    H176582   0.380   1.401   1.672  0.2697  1.1317  1.7943
18389TIP3    H276583   0.388   1.326   1.803  1.0127 -0.9201  0.6248
18390TIP3   OH276584   1.918   5.563  16.435 -0.0200 -0.2722 -0.1284
18390TIP3    H176585   2.008   5.534  16.422 -0.0630 -1.2543  1.5068
18390TIP3    H276586   1.864   5.492  16.401 -0.1925  0.1308 -0.7189
18391TIP3   OH276587   1.473   6.351  14.633 -0.0264  0.2706  0.3355
18391TIP3    H176588   1.475   6.259  14.606  1.7073  0.6570 -0.9706
18391TIP3    H276589   1.391   6.359  14.681 -1.7363 -1.2722 -2.0634
18392TIP3   OH276590   5.977   1.557  17.074 -0.6280  0.0781  0.5350
18392TIP3    H176591   5.922   1.611  17.131 -0.6298  0.0696  0.5411
18392TIP3    H276592   5.917   1.494  17.035 -0.5894 -0.0486  0.6831
18393TIP3   OH276593   1.665   0.758   5.114 -0.2539  0.7256 -0.5595
18393TIP3    H176594   1.595   0.778   5.176 -0.3616  2.3746 -1.1809
18393TIP3    H276595   1.739   0.813   5.141 -0.1202  1.0568 -1.5608
18394TIP3   OH276596   2.428   2.119   5.045 -0.4819 -0.8340 -0.0739
18394TIP3    H176597   2.490   2.182   5.008  0.8087 -1.9393  0.1592
18394TIP3    H276598   2.411   2.057   4.975 -1.0896 -0.7310 -0.0294
18395TIP3   OH276599   1.032   5.216  14.827 -0.2362 -0.2717  0.1531
18395TIP3    H176600   1.076   5.262  14.899 -0.2212 -0.6649  0.4001
18395TIP3    H276601   0.954   5.269  14.809 -0.8266 -0.7518  1.2090
18396TIP3   OH276602   2.558   0.980  16.080 -0.2710  0.0397 -0.8280
18396TIP3    H176603   2.464   0.988  16.096 -0.2739 -0.0952 -0.7795
18396TIP3    H276604   2.596   0.960  16.165 -0.7681 -5.1924 -1.5283
18397TIP3   OH276605   2.685   5.977  13.748 -0.3459  0.1793  0.4075
18397TIP3    H176606   2.632   6.014  13.818  0.6673  1.7464  0.3797
18397TIP3    H276607   2.654   6.019  13.669 -0.3175 -0.3084  0.1304
18398TIP3   OH276608   3.105   3.749  12.888 -0.3576  0.2276 -0.8678
18398TIP3    H176609   3.190   3.709  12.873 -0.8314 -1.2010 -0.0304
18398TIP3    H276610   3.124   3.841  12.908  0.8961  0.1273 -1.5106
18399TIP3   OH276611   4.003   4.026   0.434  0.0466  0.0406  0.0401
18399TIP3    H176612   3.952   4.102   0.464  0.3772  0.7492 -1.1099
18399TIP3    H276613   4.056   4.001   0.509 -1.6152 -0.3982  1.1113
18400TIP3   OH276614   2.721   1.688  12.599  0.1562  0.4489  0.0172
18400TIP3    H176615   2.714   1.725  12.687  0.5858 -1.5136  0.9265
18400TIP3    H276616   2.800   1.727  12.563  0.8175  0.1327  1.0937
18401TIP3   OH276617   5.695   1.279   0.270 -0.0129  0.1498  0.3027
18401TIP3    H176618   5.647   1.314   0.345 -1.7690 -0.9045 -0.2585
18401TIP3    H276619   5.679   1.185   0.273  1.5463 -0.1734 -0.2933
18402TIP3   OH276620   0.564   0.523   4.381  0.1099  0.4697 -0.0325
18402TIP3    H176621   0.491   0.465   4.403  1.6081 -1.3666  0.3778
18402TIP3    H276622   0.583   0.570   4.462  0.5031 -0.3912  0.3904
18403TIP3   OH276623   3.198   6.693  13.838 -0.0960 -0.3551  0.1906
18403TIP3    H176624   3.251   6.743  13.776 -1.8894  0.3689 -0.8499
18403TIP3    H276625   3.226   6.602  13.827  1.1421  0.0298 -0.0393
18404TIP3   OH276626   1.590   6.394   3.459  0.0916 -0.3177 -0.0673
18404TIP3    H176627   1.600   6.334   3.533 -2.1110 -1.1360 -0.3503
18404TIP3    H276628   1.633   6.474   3.488 -0.4549 -0.7059  2.0229
18405TIP3   OH276629   0.180   2.011   2.902  0.2442 -0.0845 -0.2945
18405TIP3    H176630   0.104   1.958   2.878  0.9411 -0.7891 -1.0283
18405TIP3    H276631   0.153   2.101   2.886 -0.4801 -0.3199 -0.4103
18406TIP3   OH276632   4.873   0.820  11.011 -0.0862  0.1741  0.4892
18406TIP3    H176633   4.816   0.762  10.960 -0.2452  2.7740 -2.6442
18406TIP3    H276634   4.962   0.795  10.986 -0.1492  1.0083 -0.6705
18407TIP3   OH276635   0.859   3.026  12.777  0.1723 -0.1115 -0.5603
18407TIP3    H176636   0.845   3.006  12.684 -0.3606 -0.3231 -0.4381
18407TIP3    H276637   0.944   2.988  12.797  1.5565  2.1744 -1.6124
18408TIP3   OH276638   1.165   3.616  12.049 -0.3082  0.2889 -0.4717
18408TIP3    H176639   1.101   3.676  12.087  0.7618  0.1874  1.6962
18408TIP3    H276640   1.249   3.643  12.089  0.5143 -1.3440 -1.0249
18409TIP3   OH276641   3.842   0.985   3.265 -0.1471 -0.2766  0.0024
18409TIP3    H176642   3.875   0.974   3.176  1.7076  1.3723  0.4179
18409TIP3    H276643   3.779   1.056   3.259 -0.2486 -0.3685 -0.0313
18410TIP3   OH276644   0.204   0.644   0.733  0.6019  0.3158  0.2904
18410TIP3    H176645   0.299   0.656   0.738  0.6067  1.3814 -1.5714
18410TIP3    H276646   0.174   0.713   0.674 -1.3079 -0.2297  0.5513
18411TIP3   OH276647   0.225   3.089  11.238  0.2368  0.6810 -0.6184
18411TIP3    H176648   0.222   3.010  11.184  0.0846  0.6129 -0.5088
18411TIP3    H276649   0.266   3.155  11.181  2.9157 -0.1623  0.1760
18412TIP3   OH276650   0.554   2.537   2.720 -0.2703  0.2370 -0.3246
18412TIP3    H176651   0.645   2.512   2.729 -0.8794 -1.6846  1.1575
18412TIP3    H276652   0.529   2.570   2.806 -1.1357  0.1087 -0.5081
18413TIP3   OH276653   2.375   1.337   3.148  0.1994  0.2650 -0.0359
18413TIP3    H176654   2.339   1.298   3.228 -0.3118  2.0098  0.6134
18413TIP3    H276655   2.301   1.340   3.087  0.7143 -1.5799 -0.8432
18414TIP3   OH276656   6.175   3.729  14.165  0.0721  0.0475  0.5504
18414TIP3    H176657   6.241   3.659  14.172  1.5011  1.1685 -1.0163
18414TIP3    H276658   6.099   3.687  14.126  1.0251 -0.6097 -0.6663
18415TIP3   OH276659   3.126   2.699  13.806 -0.2009  0.3557 -0.1728
18415TIP3    H176660   3.218   2.704  13.831 -0.1542  2.5004 -0.5444
18415TIP3    H276661   3.088   2.635  13.865  1.9015 -2.1661 -1.3497
18416TIP3   OH276662   1.558   0.628   2.626 -0.1425  0.6414 -0.7002
18416TIP3    H176663   1.518   0.564   2.567  1.7653 -3.4410  1.9381
18416TIP3    H276664   1.490   0.647   2.690  0.0207 -1.0906  0.0549
18417TIP3   OH276665   3.990   0.485   4.673 -0.0749  0.3522  0.0614
18417TIP3    H176666   3.917   0.423   4.683  0.3092 -0.3150 -1.1863
18417TIP3    H276667   4.036   0.457   4.594  1.1767  1.1538  0.4730
18418TIP3   OH276668   1.656   1.689  14.940  0.1351  0.0739  0.4428
18418TIP3    H176669   1.584   1.679  14.877 -0.4949  0.8098  1.0109
18418TIP3    H276670   1.620   1.657  15.023 -0.0941  1.8384  1.0753
18419TIP3   OH276671   0.434   5.419   2.750  0.1250 -0.3665  0.0404
18419TIP3    H176672   0.394   5.428   2.664 -2.0041 -0.2431  0.9833
18419TIP3    H276673   0.498   5.349   2.740  2.1843  1.7099 -2.3643
18420TIP3   OH276674   0.784   2.599  12.531 -0.2470  0.3924  0.3932
18420TIP3    H176675   0.840   2.645  12.469  0.5920  1.4868  1.8925
18420TIP3    H276676   0.709   2.656  12.545 -0.9823 -0.3505 -0.4155
18421TIP3   OH276677   1.532   3.959  11.218 -0.6300 -0.5229  0.4043
18421TIP3    H176678   1.463   4.013  11.255 -0.1217 -0.8515  1.9567
18421TIP3    H276679   1.493   3.872  11.210 -0.6966 -0.4872  0.3496
18422TIP3   OH276680   5.558   5.284   6.171  0.6902 -0.1652  0.0720
18422TIP3    H176681   5.604   5.351   6.222  1.9473  1.2927 -2.7302
18422TIP3    H276682   5.502   5.240   6.235  1.7398  1.8148  2.5667
18423TIP3   OH276683   4.975   0.894  12.228 -0.4254  0.1382  0.8764
18423TIP3    H176684   5.051   0.954  12.225 -1.0145  0.9136  1.0389
18423TIP3    H276685   4.905   0.943  12.185 -0.5832 -0.9636 -0.1495
18424TIP3   OH276686   1.877   0.933  12.130 -0.6435 -0.3118 -0.6404
18424TIP3    H176687   1.972   0.935  12.135 -0.7031 -0.7645  2.5439
18424TIP3    H276688   1.851   0.870  12.197 -3.2681  2.0053  0.7183
18425TIP3   OH276689   2.005   1.586  12.387  0.0953 -0.6540  0.3898
18425TIP3    H176690   1.968   1.547  12.467 -1.9321 -1.7910 -1.0167
18425TIP3    H276691   2.002   1.516  12.322  1.0326  0.4514 -0.8902
18426TIP3   OH276692   0.108   2.414   3.854 -0.5621  0.3300  0.2481
18426TIP3    H176693   0.195   2.406   3.893 -0.8926 -0.3516  0.8594
18426TIP3    H276694   0.124   2.399   3.760  0.2194  1.9166  0.0931
18427TIP3   OH276695   3.237   3.012   3.216  0.2380 -0.8310 -0.7074
18427TIP3    H176696   3.256   2.959   3.294 -0.3821 -0.0281  0.0201
18427TIP3    H276697   3.142   3.027   3.220  0.3846  0.2664 -0.9109
18428TIP3   OH276698   5.004   4.623   0.714 -0.4074 -0.8942  0.1849
18428TIP3    H176699   4.939   4.689   0.689 -0.4452 -0.5435  1.1518
18428TIP3    H276700   4.953   4.542   0.724 -0.2703 -1.2235 -1.5575
18429TIP3   OH276701   4.227   2.507   2.558  0.1307 -0.1986  0.2618
18429TIP3    H176702   4.243   2.422   2.518 -0.0537 -0.2469  0.2902
18429TIP3    H276703   4.259   2.498   2.648  1.2046  0.1300 -0.0692
18430TIP3   OH276704   0.934   0.478   3.478  0.0411  0.1489  0.1646
18430TIP3    H176705   1.009   0.449   3.530  0.6914  0.1378 -0.7727
18430TIP3    H276706   0.922   0.409   3.413 -1.2493 -0.2079  0.7462
18431TIP3   OH276707   4.033   6.151   1.776 -0.3827 -0.1516  0.2914
18431TIP3    H176708   4.085   6.231   1.789 -2.1122  1.1797 -0.5472
18431TIP3    H276709   4.085   6.082   1.817  1.4103  1.3083  0.6286
18432TIP3   OH276710   3.079   3.520  12.544 -0.0633  0.2701  0.1861
18432TIP3    H176711   3.125   3.466  12.480 -0.5285 -1.5281  1.3166
18432TIP3    H276712   3.108   3.488  12.629 -1.1322  1.1147  0.9063
18433TIP3   OH276713   1.476   6.155  12.211 -0.3100  0.3471 -0.5286
18433TIP3    H176714   1.447   6.072  12.249 -0.8078 -0.4743 -2.5531
18433TIP3    H276715   1.548   6.130  12.152  1.0396  1.6802  0.4814
18434TIP3   OH276716   4.970   2.417  15.796  0.1451 -0.1693 -0.1102
18434TIP3    H176717   4.923   2.480  15.852 -2.6063 -2.1292  0.0158
18434TIP3    H276718   5.041   2.468  15.757 -0.9552  2.5867  1.1789
18435TIP3   OH276719   1.096   3.193   5.496 -0.0643 -0.2860 -0.5177
18435TIP3    H176720   1.168   3.167   5.438 -0.9767 -0.1868 -1.7327
18435TIP3    H276721   1.128   3.272   5.540  0.0042  0.6973 -2.2453
18436TIP3   OH276722   5.714   3.959  15.786 -0.3192 -0.3828 -0.4883
18436TIP3    H176723   5.809   3.951  15.777 -0.1427  1.0891 -0.2144
18436TIP3    H276724   5.700   4.049  15.815 -1.8155 -0.5111 -0.7131
18437TIP3   OH276725   5.756   3.735   0.188  0.6560  0.0907  0.2768
18437TIP3    H176726   5.718   3.674   0.124 -0.8391  0.6163  0.6208
18437TIP3    H276727   5.685   3.750   0.251  1.5513  0.9046  1.1172
18438TIP3   OH276728   0.154   6.463  10.855  0.1795 -0.2245  0.7105
18438TIP3    H176729   0.205   6.446  10.776 -2.5459  1.6274 -1.6800
18438TIP3    H276730   0.190   6.545  10.889  0.9973 -0.7341  1.1041
18439TIP3   OH276731   4.765   6.818  14.158 -0.2424 -0.4343 -0.0796
18439TIP3    H176732   4.788   6.909  14.137  1.2352 -1.3119 -2.7234
18439TIP3    H276733   4.675   6.823  14.191 -0.7476  1.8239 -1.5682
18440TIP3   OH276734   2.697   2.865  15.743 -0.6424 -0.0939  0.1093
18440TIP3    H176735   2.772   2.814  15.711 -1.5911 -1.2165 -0.3973
18440TIP3    H276736   2.735   2.928  15.804  0.9714  0.6597 -1.5825
18441TIP3   OH276737   0.024   5.887  12.014  0.0109  0.1273  0.1482
18441TIP3    H176738   0.080   5.822  11.973 -1.1969 -0.8455 -0.0357
18441TIP3    H276739   0.010   5.854  12.103 -1.9659 -0.8202 -0.4536
18442TIP3   OH276740   0.290   2.993  16.258 -0.5131  0.4995  0.0570
18442TIP3    H176741   0.254   2.925  16.202 -0.9668  1.3059 -0.6552
18442TIP3    H276742   0.240   2.987  16.339  1.4052 -1.9273  1.1744
18443TIP3   OH276743   2.028   2.845   0.216 -0.7025 -0.3266 -0.2391
18443TIP3    H176744   1.992   2.836   0.304 -1.1851  1.6161 -0.1945
18443TIP3    H276745   2.107   2.897   0.227  0.3655 -1.7651 -0.7521
18444TIP3   OH276746   3.383   4.090   2.457  0.0428 -0.2455 -0.2546
18444TIP3    H176747   3.383   4.165   2.517 -1.2718 -0.1978 -0.2973
18444TIP3    H276748   3.422   4.125   2.376  0.4770  0.0806  0.0882
18445TIP3   OH276749   0.662   3.545  14.304 -0.4297 -0.4372  0.8260
18445TIP3    H176750   0.745   3.513  14.339  0.6212  1.6724  0.4677
18445TIP3    H276751   0.600   3.536  14.376  0.0302 -2.1844  1.0586
18446TIP3   OH276752   4.084   0.860   0.684  0.1625 -0.0973 -0.2111
18446TIP3    H176753   4.114   0.873   0.774 -0.3918 -1.0721  0.1371
18446TIP3    H276754   4.148   0.906   0.630  0.0703  1.1833  0.7197
18447TIP3   OH276755   6.765   1.012   1.907 -0.0437 -0.1121  0.0416
18447TIP3    H176756   6.834   0.967   1.955 -0.1576  0.0722  0.3785
18447TIP3    H276757   6.810   1.051   1.831  0.0742 -0.6923 -0.1931
18448TIP3   OH276758   1.997   4.431   0.465  0.3377  0.1521 -0.5358
18448TIP3    H176759   2.069   4.369   0.469  0.9504  0.8629 -0.4278
18448TIP3    H276760   1.934   4.399   0.529  1.5323  0.7465  0.9870
18449TIP3   OH276761   3.280   6.737   5.565  0.1067 -0.3898  0.1158
18449TIP3    H176762   3.249   6.772   5.649  1.1852 -0.2667  0.4809
18449TIP3    H276763   3.211   6.675   5.538  0.0604 -0.9542  1.4420
18450TIP3   OH276764   0.629   5.567  12.278 -0.5373 -0.4369 -0.7016
18450TIP3    H176765   0.645   5.590  12.370  0.3688 -0.3050 -0.8777
18450TIP3    H276766   0.715   5.538  12.246 -1.3379 -2.7277 -0.8925
18451TIP3   OH276767   2.377   3.885   5.818  0.0402  0.1511 -0.4854
18451TIP3    H176768   2.344   3.865   5.905 -0.4428 -0.2530 -0.7528
18451TIP3    H276769   2.471   3.898   5.829  0.1821 -1.1070 -0.1068
18452TIP3   OH276770   5.784   0.957  13.762 -0.7185  0.4930  0.5655
18452TIP3    H176771   5.703   1.003  13.783 -1.1881  0.5594 -1.2299
18452TIP3    H276772   5.841   1.024  13.724  0.6316  0.6832  2.7684
18453TIP3   OH276773   2.443   0.052  12.567  0.6131 -0.2521  0.3997
18453TIP3    H176774   2.493   0.055  12.649 -0.2460 -0.8217  0.9608
18453TIP3    H276775   2.434   0.143  12.540 -1.3062  0.2103  2.3247
18454TIP3   OH276776   0.857   0.562   4.125  0.3867 -0.0032 -0.3544
18454TIP3    H176777   0.800   0.486   4.134  0.9090 -0.2504  1.5376
18454TIP3    H276778   0.946   0.527   4.135  0.8293  0.5337 -2.0387
18455TIP3   OH276779   5.948   6.623   4.128  0.3340 -0.4603  0.1080
18455TIP3    H176780   6.019   6.616   4.064  0.1600  2.9962 -0.6286
18455TIP3    H276781   5.869   6.606   4.078  0.0738  3.5400 -1.1285
18456TIP3   OH276782   3.809   5.278   3.027  0.1598  0.2302 -0.0915
18456TIP3    H176783   3.824   5.239   3.113 -1.6327  1.5040  0.8500
18456TIP3    H276784   3.739   5.341   3.040  1.0021  1.7205 -2.1568
18457TIP3   OH276785   1.259   1.138  12.433  0.0956 -0.5496  0.0491
18457TIP3    H176786   1.342   1.092  12.430  0.2985 -0.2136  0.4544
18457TIP3    H276787   1.268   1.209  12.369 -0.3155 -1.2211 -0.7773
18458TIP3   OH276788   0.797   2.440  14.648  0.2291  0.3869  0.4821
18458TIP3    H176789   0.729   2.409  14.707 -1.6367 -0.2994 -1.8838
18458TIP3    H276790   0.855   2.492  14.703  0.1085 -2.3012  3.4169
18459TIP3   OH276791   6.755   0.112  12.756  0.4363 -0.2348  0.2444
18459TIP3    H176792   6.756   0.154  12.842  0.5019 -1.0545  0.6538
18459TIP3    H276793   6.664   0.082  12.745  0.2324  0.5473 -0.3203
18460TIP3   OH276794   5.230   5.851   5.893  0.4715 -0.5560  0.5985
18460TIP3    H176795   5.139   5.823   5.888  0.6845 -1.1088 -0.8665
18460TIP3    H276796   5.244   5.872   5.985 -1.1461 -0.3854  0.8352
18461TIP3   OH276797   5.581   5.444  14.137  0.5234 -0.3685 -0.0713
18461TIP3    H176798   5.662   5.402  14.164  2.0376  0.0303 -3.4580
18461TIP3    H276799   5.604   5.537  14.128 -0.7883  0.0323  0.3988
18462TIP3   OH276800   5.186   0.549   0.158  0.2964 -0.5131  0.2228
18462TIP3    H176801   5.198   0.454   0.155  0.1700 -0.5688  1.1844
18462TIP3    H276802   5.092   0.561   0.167  0.3953 -0.3364  1.1068
18463TIP3   OH276803   5.337   1.298  11.978  1.1652  0.6506 -0.4692
18463TIP3    H176804   5.410   1.249  12.016 -0.0993  0.2163  1.6045
18463TIP3    H276805   5.279   1.230  11.944  0.8453  0.8799 -0.3819
18464TIP3   OH276806   1.687   2.053  12.585 -0.1517  0.3460  0.2672
18464TIP3    H176807   1.712   2.105  12.660  0.8972  0.4875 -0.1685
18464TIP3    H276808   1.627   1.987  12.620  1.1214 -0.2459  1.4304
18465TIP3   OH276809   3.931   0.542   4.203 -0.4452 -0.5700  0.0785
18465TIP3    H176810   3.906   0.568   4.115  1.8936 -1.4935 -0.9479
18465TIP3    H276811   3.868   0.475   4.227 -1.8733  0.5770 -0.3426
18466TIP3   OH276812   0.763   1.099  12.861  0.0473  0.5255  0.2866
18466TIP3    H176813   0.729   1.064  12.944  0.1268  0.0125  0.1092
18466TIP3    H276814   0.846   1.053  12.848 -0.4942 -0.2457 -0.6343
18467TIP3   OH276815   2.914   4.044  10.487 -0.4351  0.5109  0.4954
18467TIP3    H176816   2.924   4.011  10.576  0.9603 -0.1980  0.1065
18467TIP3    H276817   2.911   3.965  10.432  0.0805  0.9505 -0.1911
18468TIP3   OH276818   3.272   5.646   2.490 -0.4346 -0.1039  0.4030
18468TIP3    H176819   3.341   5.669   2.429 -0.4356  2.1967  1.1828
18468TIP3    H276820   3.276   5.713   2.558 -3.2178 -0.0683  0.6492
18469TIP3   OH276821   4.203   0.056  14.987  0.6512  0.2799 -0.4731
18469TIP3    H176822   4.169  -0.031  14.966 -0.6014  0.8500 -0.8921
18469TIP3    H276823   4.179   0.111  14.912  1.4591  0.9845 -0.2331
18470TIP3   OH276824   4.637   4.995  11.467 -0.3848  0.5020 -0.4667
18470TIP3    H176825   4.709   5.051  11.438 -0.8908  1.0244 -0.7400
18470TIP3    H276826   4.678   4.930  11.523  0.5908 -0.3013 -2.0246
18471TIP3   OH276827   6.675   1.097  12.370 -0.1796  0.2526 -0.0724
18471TIP3    H176828   6.715   1.167  12.421  0.6979 -0.0233 -0.3760
18471TIP3    H276829   6.747   1.055  12.324 -0.7758 -0.4379 -0.4107
18472TIP3   OH276830   3.179   2.874   2.546  0.5120 -0.0672 -0.0903
18472TIP3    H176831   3.172   2.940   2.478 -2.0577  0.2230  0.3610
18472TIP3    H276832   3.234   2.805   2.508  0.3020  0.7249 -1.8900
18473TIP3   OH276833   5.979   3.153   5.525  0.1822  0.0238 -0.4074
18473TIP3    H176834   6.058   3.187   5.567  0.2661  1.1689 -1.4634
18473TIP3    H276835   5.982   3.187   5.436 -0.7596 -1.1397 -0.9086
18474TIP3   OH276836   5.994   4.162  15.383  0.1079 -0.0920 -0.7965
18474TIP3    H176837   5.941   4.090  15.417  0.1571 -0.3654 -1.2906
18474TIP3    H276838   6.071   4.164  15.440 -0.1258 -0.1096 -0.4765
18475TIP3   OH276839   3.120   1.707   5.610  0.5528  0.1397 -0.2882
18475TIP3    H176840   3.066   1.631   5.632  1.8230 -0.7102  0.0314
18475TIP3    H276841   3.061   1.781   5.620 -0.0485 -0.5534  2.1091
18476TIP3   OH276842   2.735   0.254  10.633 -0.5138 -0.2619 -0.0104
18476TIP3    H176843   2.813   0.250  10.688 -1.5353 -0.3532  1.4956
18476TIP3    H276844   2.665   0.280  10.693 -1.8018 -0.9930 -1.1403
18477TIP3   OH276845   5.162   2.639  16.878  0.7190  0.2976 -0.4180
18477TIP3    H176846   5.249   2.666  16.849  0.6192  1.3316  0.2050
18477TIP3    H276847   5.106   2.654  16.802  0.9623  0.2784 -0.6038
18478TIP3   OH276848   4.783   4.619  12.297 -0.2437  0.2139 -0.1463
18478TIP3    H176849   4.841   4.687  12.262  1.7145 -0.7483  1.0851
18478TIP3    H276850   4.793   4.545  12.237  0.4105 -0.2162  0.4809
18479TIP3   OH276851   1.329   2.188  13.228  0.2050  0.0598  0.1559
18479TIP3    H176852   1.336   2.114  13.288  0.1906 -1.2204 -1.3567
18479TIP3    H276853   1.329   2.265  13.285  0.2427 -1.0853  1.7762
18480TIP3   OH276854   1.741   4.719   4.950 -0.3468 -0.7475 -0.2841
18480TIP3    H176855   1.692   4.718   4.868  0.7295 -0.4008 -0.9537
18480TIP3    H276856   1.817   4.774   4.932 -1.0844  0.9670  1.5487
18481TIP3   OH276857   2.001   1.206   5.616  0.0883  0.1580  0.3593
18481TIP3    H176858   1.929   1.269   5.605 -0.4253 -0.2682  1.2070
18481TIP3    H276859   2.017   1.204   5.710  0.9407 -0.0645  0.2166
18482TIP3   OH276860   0.076   1.537   2.886  0.6915  0.4523  0.0077
18482TIP3    H176861   0.020   1.603   2.927  1.1790  1.0564 -0.2838
18482TIP3    H276862   0.073   1.557   2.793  0.0932 -0.5269 -0.1921
18483TIP3   OH276863   5.073   0.394  14.452  0.3252  0.2708  0.4451
18483TIP3    H176864   5.000   0.451  14.427  0.4307  1.7343  3.0899
18483TIP3    H276865   5.133   0.452  14.500  0.0259 -2.1183  4.0549
18484TIP3   OH276866   2.700   0.998   1.614 -0.8170 -0.5162 -0.1096
18484TIP3    H176867   2.765   0.941   1.573 -0.5765 -1.4724  1.5170
18484TIP3    H276868   2.624   0.942   1.628 -0.4129 -0.6137  1.9423
18485TIP3   OH276869   4.994   3.843  13.724 -0.6903  0.5210  0.2529
18485TIP3    H176870   4.989   3.884  13.810 -1.6685 -2.8549  1.9759
18485TIP3    H276871   4.918   3.786  13.720  0.1640 -0.5928 -2.2244
18486TIP3   OH276872   2.030   2.414   3.231 -0.2557  0.4140 -0.0076
18486TIP3    H176873   2.020   2.333   3.281 -1.6357  0.6209  0.0956
18486TIP3    H276874   2.065   2.478   3.293  3.2442 -0.6351 -0.6525
18487TIP3   OH276875   0.867   4.764  15.848 -0.0705 -0.3022 -0.3625
18487TIP3    H176876   0.782   4.808  15.856 -0.3426 -0.9234  0.2775
18487TIP3    H276877   0.931   4.835  15.855 -0.3759 -0.2025  3.8265
18488TIP3   OH276878   2.988   1.386   1.368  0.8210  0.2278  0.1135
18488TIP3    H176879   2.916   1.431   1.412  1.2791  0.2028  0.9164
18488TIP3    H276880   2.958   1.296   1.357  0.2241  0.5178 -0.7518
18489TIP3   OH276881   1.477   4.941  12.284 -0.4293 -0.2534  0.3120
18489TIP3    H176882   1.447   4.890  12.208  0.5585 -0.7666  0.2625
18489TIP3    H276883   1.410   4.924  12.351 -0.7071 -0.7103 -0.0686
18490TIP3   OH276884   1.211   2.868   3.922  0.4823  0.6558 -0.5323
18490TIP3    H176885   1.158   2.827   3.853  0.7978 -0.5112 -0.1013
18490TIP3    H276886   1.240   2.950   3.884 -0.1127  0.4539 -1.4577
18491TIP3   OH276887   5.954   3.127  11.151 -0.3679 -0.3237  0.2895
18491TIP3    H176888   5.964   3.089  11.239 -1.2309 -0.6492  0.2568
18491TIP3    H276889   6.043   3.143  11.122  0.0416 -2.1269  0.4051
18492TIP3   OH276890   4.373   1.110  11.209 -0.0003 -0.2619 -0.4617
18492TIP3    H176891   4.315   1.077  11.141 -0.9976  0.1353  0.1641
18492TIP3    H276892   4.404   1.194  11.176  0.5915 -0.6785 -0.9922
18493TIP3   OH276893   0.478   6.027  12.486  0.1041  0.5510 -0.2105
18493TIP3    H176894   0.455   5.975  12.563  1.2479 -3.5689 -2.3948
18493TIP3    H276895   0.418   5.998  12.418  1.1016  1.7893 -1.6936
18494TIP3   OH276896   3.779   5.766  11.984  0.2623 -0.0785  0.0333
18494TIP3    H176897   3.753   5.812  11.904  1.7155 -0.4292 -0.6721
18494TIP3    H276898   3.716   5.694  11.992  1.4105 -1.4339 -2.0966
18495TIP3   OH276899   0.220   0.434  13.590  0.1056  0.4704  0.8421
18495TIP3    H176900   0.246   0.373  13.521 -2.4056 -1.1513  1.2010
18495TIP3    H276901   0.221   0.381  13.670 -0.1704  1.4469  1.5031
18496TIP3   OH276902   5.598   0.193   0.080 -0.0206  0.2016  0.5117
18496TIP3    H176903   5.568   0.210  -0.009  1.7802 -1.2306 -0.4373
18496TIP3    H276904   5.691   0.218   0.079  0.4371 -1.3050  1.5116
18497TIP3   OH276905   0.922   6.314  10.374 -0.1241 -0.5653  0.1755
18497TIP3    H176906   0.880   6.250  10.317 -1.8857  0.4433  0.2620
18497TIP3    H276907   0.880   6.397  10.350  0.8572  0.2618  1.2624
18498TIP3   OH276908   4.384   3.393  15.729 -0.2512  0.0716  0.1566
18498TIP3    H176909   4.319   3.448  15.686  0.6267 -0.0000 -1.3574
18498TIP3    H276910   4.396   3.432  15.816  0.6893  2.6092 -1.0054
18499TIP3   OH276911   2.226   0.988   1.185  0.1301  0.3541 -0.9101
18499TIP3    H176912   2.164   0.942   1.242  0.3148  1.2800  0.0695
18499TIP3    H276913   2.181   1.070   1.162  1.1339  1.2493  0.1865
18500TIP3   OH276914   5.508   0.595   4.590  0.0908 -0.2509  1.0115
18500TIP3    H176915   5.581   0.655   4.575  0.0535 -0.3733  0.3296
18500TIP3    H276916   5.550   0.516   4.627  0.3037 -0.3097  0.6503
18501TIP3   OH276917   1.800   1.071   1.467  0.4829  0.0681 -0.6749
18501TIP3    H176918   1.771   1.023   1.390 -0.6758  0.2919 -0.3937
18501TIP3    H276919   1.827   1.156   1.434  0.8400 -0.1440 -0.9394
18502TIP3   OH276920   4.266   5.555  11.787 -0.5726 -0.3158 -0.4290
18502TIP3    H176921   4.294   5.646  11.801 -1.4097  0.1420 -1.5658
18502TIP3    H276922   4.171   5.557  11.799 -0.6844 -0.8990 -1.1686
18503TIP3   OH276923   6.193   2.521  11.002  0.4414  0.2325 -0.2708
18503TIP3    H176924   6.262   2.494  11.063  2.5231 -0.4836 -2.7629
18503TIP3    H276925   6.240   2.567  10.932 -1.7222  0.4576 -1.6567
18504TIP3   OH276926   0.497   5.683  14.444  0.0942  0.6809 -0.3219
18504TIP3    H176927   0.539   5.634  14.515 -0.3611 -0.2682 -0.6899
18504TIP3    H276928   0.563   5.688  14.375 -0.3359 -0.7891 -0.8894
18505TIP3   OH276929   0.681   1.351   3.852 -0.0943  0.9176  0.1864
18505TIP3    H176930   0.677   1.263   3.815  2.8799 -0.1869  2.1304
18505TIP3    H276931   0.616   1.351   3.923  0.0315  0.2055  0.3081
18506TIP3   OH276932   2.224   2.222  10.851 -0.6128 -0.2915  1.0164
18506TIP3    H176933   2.276   2.246  10.928  0.7380 -2.6347  0.9068
18506TIP3    H276934   2.278   2.248  10.777 -1.8642  1.8569  0.7853
18507TIP3   OH276935   6.350   2.031  15.001  0.2285  0.4345  0.5048
18507TIP3    H176936   6.289   2.062  15.068 -0.0517 -0.0874  0.4997
18507TIP3    H276937   6.297   1.973  14.946  0.4006  1.0234 -0.3012
18508TIP3   OH276938   2.863   6.037  16.790 -0.3722  0.2240 -0.3736
18508TIP3    H176939   2.863   6.127  16.759 -2.0754 -0.1857 -1.7033
18508TIP3    H276940   2.873   5.984  16.711 -1.4895 -0.7768  0.1181
18509TIP3   OH276941   1.531   5.696   1.194  0.0315  0.0196 -0.2716
18509TIP3    H176942   1.586   5.683   1.117 -0.2072 -0.7141 -0.3203
18509TIP3    H276943   1.535   5.613   1.242  0.6363  0.6496  0.8177
18510TIP3   OH276944   6.097   4.145   5.043  0.4657  0.5437 -0.2885
18510TIP3    H176945   6.164   4.193   5.091  1.5628  0.5439 -1.7750
18510TIP3    H276946   6.066   4.207   4.977 -0.9252  0.4904  0.2590
18511TIP3   OH276947   2.706   1.545  13.519  0.5719 -0.5018 -0.4550
18511TIP3    H176948   2.693   1.476  13.454 -0.2260 -2.1500  1.3385
18511TIP3    H276949   2.706   1.499  13.603  0.0399  1.6934  0.8335
18512TIP3   OH276950   3.713   2.969   4.773 -0.1697 -0.4912 -0.6028
18512TIP3    H176951   3.719   3.056   4.813 -1.2594 -0.0082 -1.4218
18512TIP3    H276952   3.724   2.908   4.846  1.1177  0.3167 -0.0899
18513TIP3   OH276953   0.041   4.347   3.781  0.3909 -0.1861  0.6049
18513TIP3    H176954   0.028   4.351   3.686  2.0477 -0.8243  0.3032
18513TIP3    H276955   0.075   4.259   3.796  2.1581  0.5948  1.4794
18514TIP3   OH276956   1.957   3.172   6.663 -0.0343  0.1546  0.0381
18514TIP3    H176957   1.993   3.241   6.720 -1.6456  0.3498  0.8675
18514TIP3    H276958   1.925   3.105   6.724  1.5565 -1.4019 -0.7553
18515TIP3   OH276959   3.461   2.357  14.863  0.5170  0.7892  0.2558
18515TIP3    H176960   3.459   2.445  14.899  1.1431  0.6051  0.7714
18515TIP3    H276961   3.467   2.370  14.768 -0.4603  1.2810  0.2495
18516TIP3   OH276962   3.263   0.178  12.577  0.3694  0.0992  0.3818
18516TIP3    H176963   3.234   0.179  12.486  0.6391 -0.1650  0.2898
18516TIP3    H276964   3.337   0.116  12.578 -0.4722 -0.9300  1.0398
18517TIP3   OH276965   5.037   3.513   1.392 -0.2393  0.2735 -0.3925
18517TIP3    H176966   4.954   3.482   1.354  0.3145 -0.9920 -0.6443
18517TIP3    H276967   5.016   3.532   1.483 -0.6826 -0.6497 -0.2874
18518TIP3   OH276968   2.604   4.390  11.209  0.5368 -0.3108  0.3444
18518TIP3    H176969   2.537   4.369  11.144 -2.1216  1.2995  2.3443
18518TIP3    H276970   2.651   4.465  11.172 -2.1714  1.8036  0.9180
18519TIP3   OH276971   6.178   5.594  13.828  0.4770 -0.1731  0.2125
18519TIP3    H176972   6.219   5.625  13.748 -0.2394 -1.1564 -0.5706
18519TIP3    H276973   6.249   5.592  13.892  1.5516 -1.2966 -0.9470
18520TIP3   OH276974   6.008   2.344  10.323  0.3709 -0.0018 -0.9701
18520TIP3    H176975   5.967   2.430  10.313  0.5958  0.2185 -0.0453
18520TIP3    H276976   6.077   2.342  10.257  0.4157  0.5566 -0.9387
18521TIP3   OH276977   6.457   3.138  14.132 -0.5691  0.1676  0.6694
18521TIP3    H176978   6.389   3.162  14.196  2.1621  0.9754  3.4991
18521TIP3    H276979   6.520   3.209  14.135  0.4816 -0.5203 -1.8973
18522TIP3   OH276980   3.375   3.278  12.109  0.4039  0.2088  0.2214
18522TIP3    H176981   3.317   3.315  12.043  0.4794  0.1736  0.1366
18522TIP3    H276982   3.447   3.341  12.116 -0.4399  1.0899  1.4887
18523TIP3   OH276983   4.228   2.107  16.441  0.4656  0.4336  0.3478
18523TIP3    H176984   4.169   2.032  16.429  1.5720 -0.1551 -1.8468
18523TIP3    H276985   4.170   2.183  16.442 -0.5151 -0.2976  0.6671
18524TIP3   OH276986   5.711   3.046  14.907  0.4122  0.3088 -0.3552
18524TIP3    H176987   5.772   2.972  14.911 -1.3049 -1.2269 -1.2517
18524TIP3    H276988   5.651   3.031  14.980  1.3377  2.1041  0.8569
18525TIP3   OH276989   2.797   2.430   0.948  0.0266  0.2900 -0.8360
18525TIP3    H176990   2.838   2.499   0.897 -0.9263  0.9130 -0.7691
18525TIP3    H276991   2.741   2.475   1.012  0.7439 -0.4828  0.3933
18526TIP3   OH276992   1.746   0.829  11.584  0.0120  0.2940 -0.4664
18526TIP3    H176993   1.797   0.792  11.655 -1.5727  1.5713  1.4422
18526TIP3    H276994   1.744   0.760  11.517  1.3197 -1.0531  0.8172
18527TIP3   OH276995   2.689   4.989  14.052  0.5688 -0.2453  0.4287
18527TIP3    H176996   2.634   5.058  14.015  3.0339  0.5752 -2.1254
18527TIP3    H276997   2.634   4.910  14.048 -0.9497  0.8022 -0.5155
18528TIP3   OH276998   6.034   3.048   1.367  0.1896 -0.3973  0.2899
18528TIP3    H176999   6.055   2.990   1.294  0.5610 -0.7344  0.6547
18528TIP3    H277000   6.012   3.132   1.326  2.9530  0.2188 -0.1587
18529TIP3   OH277001   0.910   2.262   4.030  0.0652 -0.0978 -0.1048
18529TIP3    H177002   0.839   2.222   3.979  0.8563 -2.2824  0.3782
18529TIP3    H277003   0.953   2.322   3.970 -0.0585 -1.3549 -1.5138
18530TIP3   OH277004   0.018   3.181   0.321 -0.8709 -0.0671 -0.3451
18530TIP3    H177005   0.067   3.246   0.271  0.8451 -0.4504  0.7581
18530TIP3    H277006  -0.003   3.224   0.403 -0.7419 -0.5250 -0.0678
18531TIP3   OH277007   5.687   4.146   4.824  0.0759 -0.3752  0.1230
18531TIP3    H177008   5.736   4.124   4.903 -0.7407  1.0871  1.0835
18531TIP3    H277009   5.708   4.076   4.762  2.3554 -0.4856  0.9145
18532TIP3   OH277010   5.176   2.556  12.944  0.6652  0.5401 -0.0470
18532TIP3    H177011   5.245   2.560  12.877  1.1585 -2.7457  0.1112
18532TIP3    H277012   5.224   2.546  13.026 -0.0138  1.6201  0.5089
18533TIP3   OH277013   0.236   2.859   5.798 -0.1720  0.3180 -0.6225
18533TIP3    H177014   0.150   2.834   5.766 -0.4581  0.1151  0.2909
18533TIP3    H277015   0.247   2.950   5.770 -1.2463  0.7810  0.4034
18534TIP3   OH277016   1.035   4.669  14.115 -0.3179  0.4302  0.3745
18534TIP3    H177017   0.951   4.713  14.099 -0.5264  0.0151  0.3089
18534TIP3    H277018   1.033   4.648  14.208 -0.8802 -0.7858  0.0997
18535TIP3   OH277019   4.908   6.213  13.578  0.8391  0.8945 -0.3132
18535TIP3    H177020   4.992   6.222  13.623  0.2891  0.7589  0.7829
18535TIP3    H277021   4.844   6.246  13.641 -0.0318  0.0822 -0.7528
18536TIP3   OH277022   5.314   5.582  14.317  0.6464  0.5144 -0.1178
18536TIP3    H177023   5.296   5.587  14.223 -1.1549  0.7201  0.2024
18536TIP3    H277024   5.269   5.658  14.354  1.5797  0.6000  0.8844
18537TIP3   OH277025   0.495   3.300   1.098 -1.1985 -0.0164 -0.2160
18537TIP3    H177026   0.428   3.360   1.066 -0.1015  0.5159 -1.6115
18537TIP3    H277027   0.452   3.251   1.168 -2.7636  0.9132 -0.4875
18538TIP3   OH277028   6.564   2.613  15.890 -0.0153  0.2804  0.0448
18538TIP3    H177029   6.498   2.546  15.910  0.0752  0.5450  1.2537
18538TIP3    H277030   6.516   2.695  15.895  0.0727  0.3762 -0.5947
18539TIP3   OH277031   3.865   1.893  12.743 -0.0867  0.1011  0.2653
18539TIP3    H177032   3.936   1.851  12.695 -1.2318 -1.8308  0.1712
18539TIP3    H277033   3.790   1.836  12.729 -0.9510  0.5162  2.7467
18540TIP3   OH277034   2.207   1.010  14.131  0.0901 -0.2019  0.3520
18540TIP3    H177035   2.222   1.046  14.219  0.2958 -0.9595  0.6390
18540TIP3    H277036   2.136   1.062  14.095 -1.1186 -0.9086  1.6020
18541TIP3   OH277037   5.235   0.421   5.480 -0.4605 -0.0752  0.9221
18541TIP3    H177038   5.183   0.422   5.560  1.8985  3.2887  2.6564
18541TIP3    H277039   5.187   0.477   5.420  0.3904  2.0285  2.0910
18542TIP3   OH277040   6.386   3.693  12.585 -0.0309  0.2331  0.2934
18542TIP3    H177041   6.380   3.778  12.541  2.7610  0.1503 -0.4819
18542TIP3    H277042   6.385   3.714  12.678  0.7207  1.1551  0.1100
18543TIP3   OH277043   3.898   4.918  13.660  0.6065 -0.6749  0.2014
18543TIP3    H177044   3.885   4.842  13.602 -0.0728  0.2752 -0.9315
18543TIP3    H277045   3.911   4.991  13.601  2.1190 -0.0207  1.2896
18544TIP3   OH277046   0.798   4.013  16.240 -0.5038 -0.1999  0.4095
18544TIP3    H177047   0.893   4.009  16.247 -0.4737  1.3405  1.2091
18544TIP3    H277048   0.780   3.993  16.148  0.4229 -2.4173  0.6578
18545TIP3   OH277049   0.452   2.729  15.536  0.0393  0.4144 -0.4281
18545TIP3    H177050   0.362   2.753  15.512 -0.1960  1.1847  1.0741
18545TIP3    H277051   0.468   2.647  15.490 -1.0005  0.8776 -1.6747
18546TIP3   OH277052   5.889   5.128  13.751  0.2378  0.2552  0.2118
18546TIP3    H177053   5.933   5.140  13.835  3.3469 -0.0642 -1.2248
18546TIP3    H277054   5.927   5.195  13.695  0.1915 -1.1858 -1.6189
18547TIP3   OH277055   5.998   3.910   1.248 -0.8780 -0.1964 -0.7325
18547TIP3    H177056   5.941   3.861   1.189 -2.2415 -1.1498  1.2535
18547TIP3    H277057   5.938   3.958   1.305  0.3911  1.0462 -0.3841
18548TIP3   OH277058   3.055   3.353  11.718  0.7475 -0.0184  0.1590
18548TIP3    H177059   3.101   3.291  11.775  3.2530  0.2642 -1.3930
18548TIP3    H277060   3.108   3.432  11.720 -0.3775  0.7978 -0.7408
18549TIP3   OH277061   0.176   1.790   1.664 -0.1963 -0.3753 -0.2357
18549TIP3    H177062   0.154   1.783   1.757 -0.5633 -3.0765 -0.4613
18549TIP3    H277063   0.092   1.800   1.620  0.0568  2.7976 -0.2713
18550TIP3   OH277064   3.408   4.668   3.172 -0.1132  0.0916  0.0466
18550TIP3    H177065   3.385   4.738   3.110  3.1973  0.1043 -1.3451
18550TIP3    H277066   3.392   4.587   3.124 -0.4098 -0.0128  0.3136
18551TIP3   OH277067   0.240   6.443  14.578 -0.4074  0.2865  0.1274
18551TIP3    H177068   0.165   6.394  14.613 -0.6345  1.1595  0.9020
18551TIP3    H277069   0.210   6.474  14.492 -1.2557  1.3134  0.7690
18552TIP3   OH277070   5.088   0.124   5.329  0.2321 -0.2559 -0.1260
18552TIP3    H177071   5.019   0.186   5.309 -0.5243 -0.9304  0.3042
18552TIP3    H277072   5.079   0.056   5.262 -0.7490 -1.2841  0.9799
18553TIP3   OH277073   5.879   1.756  11.105 -0.0121  0.1616  0.2738
18553TIP3    H177074   5.911   1.737  11.193  0.8883  3.5016  0.7826
18553TIP3    H277075   5.950   1.726  11.047 -0.2829 -1.3463  0.6737
18554TIP3   OH277076   2.257   5.760   1.062 -0.2659  0.0546 -0.4013
18554TIP3    H177077   2.322   5.808   1.113 -0.1755 -1.2469  0.7646
18554TIP3    H277078   2.308   5.696   1.012 -0.5102  0.0920 -0.6992
18555TIP3   OH277079   0.301   5.259  16.224 -0.6015 -0.1682 -0.3941
18555TIP3    H177080   0.289   5.350  16.251 -0.3295 -0.7072  1.6924
18555TIP3    H277081   0.368   5.225  16.283 -2.2995 -2.3371  0.3978
18556TIP3   OH277082   5.069   1.133   4.640  0.4025 -0.3336  0.2942
18556TIP3    H177083   5.083   1.227   4.651 -0.5957 -0.0988 -0.3668
18556TIP3    H277084   5.139   1.105   4.580  0.1285  0.1804 -0.2759
18557TIP3   OH277085   6.106   3.229  11.706 -0.0986  0.4890  0.1407
18557TIP3    H177086   6.033   3.198  11.760  1.0145  1.6122  2.4612
18557TIP3    H277087   6.065   3.269  11.630 -1.7968 -0.6212  0.4279
18558TIP3   OH277088   3.279   6.263  10.383 -0.1911  0.1477  1.0675
18558TIP3    H177089   3.195   6.283  10.426 -1.5222 -0.7401 -0.9684
18558TIP3    H277090   3.296   6.338  10.327 -0.9570 -0.7123 -0.3815
18559TIP3   OH277091   0.621   1.766  11.668 -0.0089 -0.4274  0.6623
18559TIP3    H177092   0.706   1.802  11.643 -0.3969 -0.8620 -1.5121
18559TIP3    H277093   0.630   1.746  11.761  2.0611  0.0922  0.6359
18560TIP3   OH277094   3.976   0.132   1.610  0.9221 -0.2022 -0.1468
18560TIP3    H177095   3.950   0.100   1.696  2.2213 -0.6394  0.1156
18560TIP3    H277096   3.997   0.053   1.560  1.0825  0.0879 -0.5508
18561TIP3   OH277097   2.339   6.406  11.647  0.1426  0.0279 -0.1713
18561TIP3    H177098   2.389   6.394  11.728  0.2374 -0.1080 -0.2491
18561TIP3    H277099   2.306   6.496  11.652  0.6740  0.2322 -0.2743
18562TIP3   OH277100   2.078   1.385  16.264  0.2174 -0.4212  0.6482
18562TIP3    H177101   2.008   1.451  16.265  0.4950 -0.1242  1.9210
18562TIP3    H277102   2.135   1.412  16.192  0.1372  0.5381  0.9304
18563TIP3   OH277103   3.158   0.712   2.891  0.2800 -0.1864 -0.2661
18563TIP3    H177104   3.157   0.668   2.976 -1.2050  3.6446  1.9650
18563TIP3    H277105   3.228   0.777   2.899  0.3648  0.0143 -2.1938
18564TIP3   OH277106   2.864   5.081   5.551 -0.1214 -0.1137  0.0680
18564TIP3    H177107   2.829   5.103   5.637 -0.6681 -1.4645  0.2186
18564TIP3    H277108   2.958   5.093   5.559 -0.4236  3.0857 -0.1924
18565TIP3   OH277109   3.183   4.253   4.361 -0.3674 -0.6965  0.0330
18565TIP3    H177110   3.167   4.286   4.272 -0.2017 -1.4706 -0.2979
18565TIP3    H277111   3.178   4.158   4.352 -3.2554 -0.7643  1.4360
18566TIP3   OH277112   2.701   3.742   1.401  0.2732 -0.3372  0.5920
18566TIP3    H177113   2.670   3.722   1.313  1.1597  0.2742  0.1173
18566TIP3    H277114   2.796   3.751   1.390  0.5780 -1.6767  1.8842
18567TIP3   OH277115   5.084   6.353  14.909 -0.0422 -0.1817 -0.4513
18567TIP3    H177116   5.072   6.439  14.868 -1.9811 -1.5181 -3.0031
18567TIP3    H277117   5.160   6.315  14.864  0.4337 -0.0762  0.2402
18568TIP3   OH277118   4.839   3.479  13.695 -0.0748  0.2415 -0.2156
18568TIP3    H177119   4.920   3.518  13.660  1.6460  0.4941  3.4928
18568TIP3    H277120   4.856   3.385  13.696  0.2644  0.2993  0.6239
18569TIP3   OH277121   2.629   4.346  16.132 -0.2270  0.3619 -0.2678
18569TIP3    H177122   2.588   4.428  16.103  0.6997  0.7001 -0.6385
18569TIP3    H277123   2.616   4.286  16.059 -0.0822  0.4599 -0.3741
18570TIP3   OH277124   3.640   5.337   1.080 -0.7687 -0.0988 -0.3013
18570TIP3    H177125   3.646   5.433   1.080 -0.3437 -0.1242 -0.5494
18570TIP3    H277126   3.662   5.312   0.990  0.8419 -0.5443  0.1915
18571TIP3   OH277127   5.404   5.871  13.908 -0.8092  0.3898  0.5326
18571TIP3    H177128   5.309   5.863  13.902 -0.9055  2.1722 -2.3801
18571TIP3    H277129   5.438   5.793  13.864 -0.9972  0.7779 -0.3152
18572TIP3   OH277130   6.741   5.471   4.670  0.2204  0.4365  0.1030
18572TIP3    H177131   6.785   5.426   4.742  2.6231  1.7407 -0.4569
18572TIP3    H277132   6.652   5.486   4.703  0.7132 -0.6010  2.0722
18573TIP3   OH277133   4.611   6.293  13.536  0.2607 -0.2498  0.2440
18573TIP3    H177134   4.592   6.213  13.584  1.3684 -0.5000  0.2882
18573TIP3    H277135   4.595   6.363  13.599  0.5316 -0.5056  0.5962
18574TIP3   OH277136   1.332   1.799  15.553 -0.0857 -0.2018  0.5686
18574TIP3    H177137   1.284   1.790  15.635 -1.5277 -0.3309 -0.2597
18574TIP3    H277138   1.401   1.733  15.558 -1.2807 -1.4547  0.9200
18575TIP3   OH277139   1.132   6.344  15.632 -0.0893 -0.1693 -0.2269
18575TIP3    H177140   1.066   6.385  15.577 -0.1522 -0.6271 -0.4976
18575TIP3    H277141   1.081   6.300  15.701 -0.0116  0.4058  0.2034
18576TIP3   OH277142   6.804   5.667  16.771 -0.5529  0.3399  0.6882
18576TIP3    H177143   6.721   5.705  16.740 -0.2775 -0.6411 -1.4114
18576TIP3    H277144   6.786   5.573  16.778  0.3759  0.1102  0.1714
18577TIP3   OH277145   4.044   6.822   5.763 -0.5994 -0.8596  0.1438
18577TIP3    H177146   4.079   6.737   5.735 -0.4630 -1.1242  1.0544
18577TIP3    H277147   4.006   6.860   5.684 -0.7294 -1.8060 -0.2689
18578TIP3   OH277148   6.089   2.750   1.965  0.1097  0.1397  0.1271
18578TIP3    H177149   6.174   2.786   1.937  0.8616 -1.5377  0.1549
18578TIP3    H277150   6.060   2.810   2.034  2.2616 -0.3206  1.5581
18579TIP3   OH277151   5.147   3.073  16.780 -0.0247  0.2389 -0.3205
18579TIP3    H177152   5.126   3.113  16.864  0.1109 -0.4577  0.0520
18579TIP3    H277153   5.131   3.142  16.715 -0.2086  0.7503  0.2684
18580TIP3   OH277154   5.287   5.297  13.503 -0.5494 -0.3883 -0.1349
18580TIP3    H177155   5.320   5.324  13.589 -1.8902 -0.5607  0.4577
18580TIP3    H277156   5.208   5.247  13.522 -0.7701 -0.5936 -1.4676
18581TIP3   OH277157   1.881   3.640  15.805  0.5464 -0.1089  0.0761
18581TIP3    H177158   1.920   3.662  15.890  0.7480 -2.0508  0.5320
18581TIP3    H277159   1.823   3.714  15.785  0.7539  0.5374  1.7375
18582TIP3   OH277160   4.667   0.131  14.972 -0.6272 -0.3258  0.1359
18582TIP3    H177161   4.724   0.069  15.017  0.7865  1.2181  0.5853
18582TIP3    H277162   4.601   0.155  15.037 -0.9007 -0.9813  0.1086
18583TIP3   OH277163   4.773   4.644   1.524 -0.5464 -0.7047  0.1467
18583TIP3    H177164   4.720   4.678   1.596  0.2771 -1.2723  1.0419
18583TIP3    H277165   4.860   4.679   1.540  0.0884 -2.3773  0.5213
18584TIP3   OH277166   0.633   6.114   0.932 -0.5687  0.2367 -0.0670
18584TIP3    H177167   0.588   6.196   0.909  0.9074  1.2966  0.6402
18584TIP3    H277168   0.572   6.045   0.906 -2.2705  1.5720  0.1606
18585TIP3   OH277169   2.704   0.417   0.859 -0.4363 -0.1152 -0.2244
18585TIP3    H177170   2.636   0.381   0.916 -0.2179  0.9765  0.7715
18585TIP3    H277171   2.656   0.467   0.793 -0.6383  2.0192  1.4174
18586TIP3   OH277172   3.630   5.356   2.232 -0.0584 -0.3840 -0.9408
18586TIP3    H177173   3.683   5.277   2.224  0.3896 -0.3371  1.0769
18586TIP3    H277174   3.552   5.329   2.280  1.0274  0.7237  1.6194
18587TIP3   OH277175   1.088   6.628  16.029  0.1695 -0.0576  0.4201
18587TIP3    H177176   1.172   6.612  15.988 -0.1523  0.8948 -0.6427
18587TIP3    H277177   1.097   6.593  16.118  1.0737 -1.6025 -0.2505
18588TIP3   OH277178   2.043   5.851  13.285 -0.0765  0.1223 -0.5545
18588TIP3    H177179   2.133   5.826  13.305 -0.1997  0.3175  0.3007
18588TIP3    H277180   2.049   5.899  13.203  0.6415  0.3516 -0.3774
18589TIP3   OH277181   6.762   0.773  12.370  0.0893  0.3484  0.0139
18589TIP3    H177182   6.835   0.765  12.432 -0.4167 -0.3238  0.5416
18589TIP3    H277183   6.789   0.720  12.295 -0.1571 -0.5046  0.5129
18590TIP3   OH277184   6.286   5.224   0.397  0.3139 -0.0540 -0.1136
18590TIP3    H177185   6.206   5.205   0.348  0.6385 -3.0372  0.3016
18590TIP3    H277186   6.349   5.251   0.330  0.2369 -2.3012 -1.1845
18591TIP3   OH277187   6.791   4.978   1.269 -0.1142  0.6407 -0.3722
18591TIP3    H177188   6.705   5.017   1.285 -0.2559  0.0138  0.5077
18591TIP3    H277189   6.776   4.915   1.198 -0.3595  0.6166 -0.3006
18592TIP3   OH277190   4.743   1.870  14.396  0.0380 -0.3180 -0.0336
18592TIP3    H177191   4.765   1.874  14.489  1.6693 -0.7120 -0.3703
18592TIP3    H277192   4.759   1.958  14.363  0.4532 -0.4226 -0.1257
18593TIP3   OH277193   2.925   4.089   1.988  0.1310  0.0658  0.1960
18593TIP3    H177194   2.873   4.051   1.917  1.3079  0.7444 -1.0925
18593TIP3    H277195   3.008   4.040   1.985  0.1810  0.0711  1.1560
18594TIP3   OH277196   3.074   1.811  17.023  0.0892 -1.1736  0.4410
18594TIP3    H177197   3.032   1.770  17.098 -0.8326  1.6607  1.6185
18594TIP3    H277198   3.002   1.831  16.963  0.2842 -0.0904  0.5446
18595TIP3   OH277199   0.959   5.755  12.822  0.3938  0.0567 -0.0296
18595TIP3    H177200   1.016   5.695  12.775  1.8889  1.3923 -0.0242
18595TIP3    H277201   0.870   5.733  12.794  1.0391 -1.0014 -1.3004
18596TIP3   OH277202   1.454   0.899  13.030  0.6672 -0.0820 -0.2256
18596TIP3    H177203   1.488   0.980  13.068  2.1355 -0.5780 -0.4420
18596TIP3    H277204   1.375   0.880  13.080  0.8039  0.9960  0.4231
18597TIP3   OH277205   5.556   4.539   4.396 -0.2549  0.3288 -0.6027
18597TIP3    H177206   5.512   4.623   4.407 -0.6580 -0.0828  1.3622
18597TIP3    H277207   5.647   4.562   4.376  0.1147  1.3384  1.8499
18598TIP3   OH277208   6.110   0.590   1.568 -0.9761  0.1846  0.3359
18598TIP3    H177209   6.036   0.647   1.588 -0.8004  0.5685 -0.0875
18598TIP3    H277210   6.186   0.636   1.604 -0.7131  0.6741 -0.7893
18599TIP3   OH277211   4.972   4.010  14.576  0.1486  0.2904  0.0918
18599TIP3    H177212   5.047   4.023  14.634 -0.0262  0.5965  0.2528
18599TIP3    H277213   4.927   3.934  14.613 -0.4099  0.9633  0.8471
18600TIP3   OH277214   4.013   4.299   1.085  0.4426 -0.5130 -0.0611
18600TIP3    H177215   3.978   4.388   1.080  0.2252 -0.0651  4.8769
18600TIP3    H277216   3.966   4.252   1.016 -0.3388  2.8432 -2.0563
18601TIP3   OH277217   5.387   0.983   0.352 -0.3851  0.2632  0.5406
18601TIP3    H177218   5.318   0.917   0.344 -1.0558  1.1816 -3.3087
18601TIP3    H277219   5.351   1.049   0.411 -1.1160 -1.1186  1.6906
18602TIP3   OH277220   2.110   2.855   4.978  0.0518 -0.0009  0.1533
18602TIP3    H177221   2.034   2.813   5.019  2.1675 -2.9106  1.4050
18602TIP3    H277222   2.073   2.906   4.906 -3.1381 -0.5300  1.2659
18603TIP3   OH277223   2.521   5.136  10.768 -0.5995 -0.6650  0.1247
18603TIP3    H177224   2.432   5.133  10.803 -0.8391 -1.6302 -0.5447
18603TIP3    H277225   2.556   5.048  10.781 -0.9864 -1.3521 -2.7162
18604TIP3   OH277226   2.636   6.268   5.822  0.0250 -0.3087  0.5727
18604TIP3    H177227   2.579   6.204   5.865 -0.7856 -0.4502 -0.6578
18604TIP3    H277228   2.702   6.215   5.778 -0.8976 -0.3718 -0.8075
18605TIP3   OH277229   5.080   3.470  14.928 -0.4838  0.1913  0.6265
18605TIP3    H177230   5.121   3.384  14.933 -1.0600 -0.0301  1.9193
18605TIP3    H277231   5.065   3.483  14.834  1.6913 -0.0787  0.1860
18606TIP3   OH277232   5.584   3.841  15.240 -0.1738 -0.5517  0.2440
18606TIP3    H177233   5.583   3.935  15.227  0.7853 -0.1821  2.3482
18606TIP3    H277234   5.496   3.812  15.214 -0.5937  0.9573 -0.1085
18607TIP3   OH277235   4.678   2.661  12.863 -0.7774  0.1210  0.0855
18607TIP3    H177236   4.773   2.657  12.853 -0.8116  1.3062 -0.8490
18607TIP3    H277237   4.645   2.586  12.813 -0.3101 -0.8451  1.1802
18608TIP3   OH277238   6.266   4.125   2.699  0.0733 -0.3696 -0.4260
18608TIP3    H177239   6.305   4.155   2.617  3.1798 -0.0509  1.0116
18608TIP3    H277240   6.264   4.203   2.755 -0.3073 -0.9545  0.4052
18609TIP3   OH277241   4.258   5.430   1.412  0.0287  0.0613  0.2809
18609TIP3    H177242   4.271   5.339   1.386  1.5773  0.3435 -0.0388
18609TIP3    H277243   4.163   5.441   1.415 -0.2586 -0.7199 -2.6960
18610TIP3   OH277244   5.642   2.655   5.564  0.2174  0.2406 -0.2434
18610TIP3    H177245   5.672   2.744   5.583 -0.3535  0.0909  1.5467
18610TIP3    H277246   5.608   2.659   5.475 -2.2410  2.4952  0.6672
18611TIP3   OH277247   6.669   1.445   1.963  0.0499 -0.3260 -0.2784
18611TIP3    H177248   6.659   1.540   1.961 -0.3454 -0.1821  2.7152
18611TIP3    H277249   6.758   1.431   1.996 -0.0928 -0.9764 -0.1510
18612TIP3   OH277250   0.803   6.075  15.636  0.1914 -0.5701 -0.1452
18612TIP3    H177251   0.788   5.986  15.602 -1.2849 -0.0783 -0.8577
18612TIP3    H277252   0.723   6.122  15.615 -0.7115 -0.1051  3.7317
18613TIP3   OH277253   1.782   5.819   6.410  0.6636 -0.1521 -0.1000
18613TIP3    H177254   1.795   5.791   6.319 -0.5811 -1.8954  0.2040
18613TIP3    H277255   1.706   5.770   6.440 -1.5040  3.3681  0.7123
18614TIP3   OH277256   1.022   5.464   1.997 -0.5544  0.0731 -0.3942
18614TIP3    H177257   1.016   5.375   2.032 -1.1242 -0.2725 -1.3188
18614TIP3    H277258   1.002   5.454   1.904  0.2098  1.0553 -0.6854
18615TIP3   OH277259   2.444   1.993  14.770  0.1713  0.0246  0.5329
18615TIP3    H177260   2.456   2.082  14.738 -0.0867  0.1431  0.7623
18615TIP3    H277261   2.522   1.977  14.824 -0.4320  0.6217  1.6272
18616TIP3   OH277262   1.560   5.467   4.997  0.4942  0.1271 -0.4798
18616TIP3    H177263   1.622   5.490   4.927  0.0816  2.3821 -0.1823
18616TIP3    H277264   1.484   5.523   4.981  0.9222  1.7444  2.4791
18617TIP3   OH277265   2.987   0.398  16.214  0.1394  0.8509  0.0008
18617TIP3    H177266   2.896   0.395  16.187 -0.2450  0.5814  1.2546
18617TIP3    H277267   3.034   0.432  16.138 -0.9584  0.7201 -0.7536
18618TIP3   OH277268   0.287   3.594  13.102 -0.1566  0.7468 -0.1614
18618TIP3    H177269   0.274   3.507  13.065  1.2318  0.2779  0.3943
18618TIP3    H277270   0.205   3.613  13.148 -1.1152  0.4812 -1.7120
18619TIP3   OH277271   2.915   2.109   0.603  0.4337  0.2617  0.1295
18619TIP3    H177272   2.888   2.029   0.647 -0.8710  0.8569  0.4770
18619TIP3    H277273   3.006   2.094   0.577  0.4312 -1.0376  0.8291
18620TIP3   OH277274   1.961   6.701  14.044 -0.0709 -0.0731  0.6366
18620TIP3    H177275   1.915   6.785  14.051  0.3436  0.2510 -0.3669
18620TIP3    H277276   1.893   6.638  14.022 -0.2705  0.1294  0.6747
18621TIP3   OH277277   0.737   5.117  16.095  0.1538  0.2576 -0.5161
18621TIP3    H177278   0.832   5.103  16.103  0.2473  0.4516 -1.2538
18621TIP3    H277279   0.699   5.036  16.129  0.6094 -0.1685 -0.9940
18622TIP3   OH277280   6.734   3.306  14.512 -0.6590  0.2233 -0.4105
18622TIP3    H177281   6.818   3.265  14.493 -0.5739 -1.0167  2.2347
18622TIP3    H277282   6.755   3.399  14.526  1.1481 -0.6014  4.0765
18623TIP3   OH277283   0.148   2.898   4.692  0.2776  0.1840 -0.3821
18623TIP3    H177284   0.224   2.956   4.691  0.0445  0.4791 -1.1476
18623TIP3    H277285   0.186   2.810   4.701  0.5646  0.5218  2.5190
18624TIP3   OH277286   2.684   0.185   4.671  0.3633 -0.0482  0.1912
18624TIP3    H177287   2.728   0.127   4.609  1.4091  0.0085  0.8671
18624TIP3    H277288   2.635   0.246   4.616 -0.4237 -1.2930 -0.5442
18625TIP3   OH277289   0.014   5.234  11.155 -0.0412  0.4783 -0.1988
18625TIP3    H177290   0.102   5.210  11.185  0.3694  0.0936 -1.6200
18625TIP3    H277291  -0.017   5.157  11.107 -0.7098  1.0091 -0.6413
18626TIP3   OH277292   1.115   1.845   0.838  0.2179 -0.0083 -0.4220
18626TIP3    H177293   1.125   1.750   0.843  1.5445  0.0259 -1.5816
18626TIP3    H277294   1.137   1.866   0.747  1.2497  1.5172  0.1360
18627TIP3   OH277295   6.161   1.224  12.182  0.1103  0.1156  0.2042
18627TIP3    H177296   6.216   1.298  12.157  1.3638 -1.2633 -1.3469
18627TIP3    H277297   6.160   1.226  12.278  0.8443  1.5737  0.2128
18628TIP3   OH277298   3.769   3.828   0.415  0.0600 -0.5729 -0.2796
18628TIP3    H177299   3.843   3.775   0.383 -0.5879 -0.4719 -2.0571
18628TIP3    H277300   3.796   3.919   0.400  0.6049 -0.3878  1.5069
18629TIP3   OH277301   0.916   2.659  11.955  0.8002 -0.1926 -0.3403
18629TIP3    H177302   0.874   2.574  11.940 -0.6310  0.5094 -0.5202
18629TIP3    H277303   1.008   2.638  11.970  0.3230 -1.8540  0.5327
18630TIP3   OH277304   5.572   0.796  11.616 -0.0426 -0.2513  0.1517
18630TIP3    H177305   5.477   0.810  11.611 -0.1421  0.1329  2.3085
18630TIP3    H277306   5.584   0.705  11.590 -1.1603 -0.6824  1.0442
18631TIP3   OH277307   3.660   5.498  16.335  0.1052 -0.3180  0.4107
18631TIP3    H177308   3.571   5.465  16.319 -0.3379  1.6539 -1.7836
18631TIP3    H277309   3.715   5.419  16.337 -1.5535 -1.5078  0.9193
18632TIP3   OH277310   2.955   4.872   0.989 -0.3926 -0.0501  0.0503
18632TIP3    H177311   3.022   4.804   0.991  1.2476  1.4663 -0.0520
18632TIP3    H277312   2.992   4.939   0.931 -1.6573  1.1923  0.6287
18633TIP3   OH277313   6.373   0.821  13.787  0.2512 -0.1923 -0.9395
18633TIP3    H177314   6.284   0.821  13.823 -0.2125 -1.6923 -2.0201
18633TIP3    H277315   6.393   0.729  13.772  2.3081  0.0537 -0.0086
18634TIP3   OH277316   3.611   5.607   3.309  0.0777 -0.1208 -0.0200
18634TIP3    H177317   3.611   5.566   3.395  0.9207 -0.0555  0.0181
18634TIP3    H277318   3.595   5.535   3.248 -1.0146 -0.0931  0.2099
18635TIP3   OH277319   3.790   6.446  15.751 -1.0275 -0.8926 -0.0496
18635TIP3    H177320   3.762   6.537  15.740  1.5237 -0.0531 -0.2612
18635TIP3    H277321   3.850   6.430  15.678 -0.4511 -2.3405  0.6886
18636TIP3   OH277322   5.580   1.483   4.120  0.0907  0.4413 -0.3617
18636TIP3    H177323   5.487   1.505   4.120  0.1420  1.0219  2.0698
18636TIP3    H277324   5.624   1.565   4.097  0.0218  0.5866  0.0109
18637TIP3   OH277325   2.700   4.107   3.777 -0.3786  0.3055  0.9175
18637TIP3    H177326   2.631   4.147   3.830 -0.1895 -0.1303  1.4895
18637TIP3    H277327   2.677   4.014   3.774 -0.2227  0.2754  0.4799
18638TIP3   OH277328   4.420   3.081  12.919  0.2453  0.0944 -0.4887
18638TIP3    H177329   4.386   3.094  12.831  1.5897 -1.4489 -1.2950
18638TIP3    H277330   4.344   3.088  12.976 -0.9817 -0.7425 -1.9682
18639TIP3   OH277331   0.991   0.609   3.198  0.1189 -0.1908  0.7160
18639TIP3    H177332   1.079   0.573   3.210 -0.5638 -1.6479  1.6430
18639TIP3    H277333   0.991   0.690   3.249  1.2944  0.5023 -0.3398
18640TIP3   OH277334   4.586   5.734   0.226 -0.5066 -0.3420  0.4720
18640TIP3    H177335   4.570   5.757   0.134 -0.7086  0.4476  0.6952
18640TIP3    H277336   4.546   5.648   0.237  0.2594 -0.8324 -0.3951
18641TIP3   OH277337   2.755   3.633  12.860 -0.3075 -0.1419 -0.3824
18641TIP3    H177338   2.703   3.572  12.808 -2.1963  1.4052 -0.4171
18641TIP3    H277339   2.792   3.694  12.796  1.8924 -1.3678 -0.3914
18642TIP3   OH277340   3.870   5.797   3.833 -0.0351 -0.1187 -0.2456
18642TIP3    H177341   3.821   5.878   3.839  0.0008 -0.1378  0.3447
18642TIP3    H277342   3.890   5.773   3.923  0.6851 -0.3381 -0.4505
18643TIP3   OH277343   2.693   4.853   2.833  0.4616  0.4353 -0.0127
18643TIP3    H177344   2.609   4.897   2.847  0.5423  0.3183  0.9344
18643TIP3    H277345   2.677   4.792   2.761 -0.8394 -1.0094  1.4295
18644TIP3   OH277346   3.633   1.828  11.060  0.0610  0.0794  0.1536
18644TIP3    H177347   3.679   1.861  10.983 -1.3016 -0.1998 -0.8178
18644TIP3    H277348   3.599   1.907  11.103 -0.6233  0.1519 -0.4957
18645TIP3   OH277349   2.130   3.311   1.390  0.8029 -0.4668  0.4177
18645TIP3    H177350   2.160   3.324   1.480 -0.1338  0.0710  0.6698
18645TIP3    H277351   2.052   3.365   1.383  0.2108 -1.3898 -0.3763
18646TIP3   OH277352   1.727   1.798   1.047  0.0089 -0.0474  0.2406
18646TIP3    H177353   1.689   1.869   0.995  0.7486 -0.1602 -0.4551
18646TIP3    H277354   1.808   1.775   1.002  1.8694  1.3723  2.5983
18647TIP3   OH277355   6.539   3.831  16.075  0.6249 -0.3179  0.1975
18647TIP3    H177356   6.452   3.868  16.084  0.9681  0.9877 -1.4735
18647TIP3    H277357   6.529   3.740  16.104 -1.0632  0.0417  0.8799
18648TIP3   OH277358   0.780   2.080  13.491 -0.5540  0.0619  0.3817
18648TIP3    H177359   0.769   1.993  13.452 -0.7664  0.3425 -0.1984
18648TIP3    H277360   0.704   2.091  13.549 -1.6481  0.6716 -1.1072
18649TIP3   OH277361   6.290   3.791  15.721 -0.0221  0.0415  0.3926
18649TIP3    H177362   6.347   3.866  15.703  0.2568 -0.5360 -1.2997
18649TIP3    H277363   6.350   3.720  15.742 -0.0921 -0.4551 -0.9668
18650TIP3   OH277364   5.669   2.483   1.848  0.0426  0.4812  0.2411
18650TIP3    H177365   5.588   2.529   1.871 -1.2907 -0.8044 -1.5890
18650TIP3    H277366   5.669   2.405   1.904 -0.8888 -0.3525 -0.8610
18651TIP3   OH277367   6.082   5.238  13.930  0.6965 -0.4950  0.0978
18651TIP3    H177368   6.140   5.223  13.856  0.0525 -1.2924 -0.2573
18651TIP3    H277369   6.132   5.210  14.007  0.6067 -1.6931 -0.2612
18652TIP3   OH277370   2.007   4.186  16.907 -0.0386 -0.6234  0.5257
18652TIP3    H177371   1.986   4.228  16.824  1.6403  2.0409  1.3067
18652TIP3    H277372   2.102   4.177  16.906  0.1670  0.7104  2.6489
18653TIP3   OH277373   6.237   5.830   2.367  0.4013  0.3849  0.3934
18653TIP3    H177374   6.175   5.826   2.441 -0.2881 -0.6151 -0.2138
18653TIP3    H277375   6.181   5.829   2.289  1.0316  3.1403 -0.1896
18654TIP3   OH277376   2.781   4.984  12.116 -0.3593  0.7519 -0.0816
18654TIP3    H177377   2.751   4.919  12.180  1.7043  1.2480  1.5058
18654TIP3    H277378   2.729   4.967  12.038 -1.5053 -1.2831  1.0455
18655TIP3   OH277379   5.409   6.048  15.913  0.3929  0.1822  0.4438
18655TIP3    H177380   5.396   5.954  15.901 -0.9110  0.3050  0.7660
18655TIP3    H277381   5.462   6.074  15.837  1.1544 -0.8700  0.5848
18656TIP3   OH277382   1.957   5.123  15.071 -0.1990 -0.4458 -0.1595
18656TIP3    H177383   2.026   5.109  15.136  0.9290 -4.0804 -1.8835
18656TIP3    H277384   2.001   5.166  14.998 -0.0689 -1.4216 -0.6719
18657TIP3   OH277385   3.980   3.688  15.944  0.3071 -0.1396  0.1037
18657TIP3    H177386   3.982   3.608  15.891  0.8542  0.1306 -0.3032
18657TIP3    H277387   3.924   3.748  15.895  0.4746 -0.0346  0.0363
18658TIP3   OH277388   1.778   4.346   5.720  0.4574  0.0129 -0.4372
18658TIP3    H177389   1.802   4.406   5.649 -0.3636  0.8012 -0.0652
18658TIP3    H277390   1.838   4.367   5.791  0.5708 -0.0342 -0.5180
18659TIP3   OH277391   6.352   3.406   4.438  0.5397  0.0831 -0.1218
18659TIP3    H177392   6.402   3.478   4.399 -0.4523 -0.0384 -1.7423
18659TIP3    H277393   6.284   3.449   4.489  0.6101  0.2817 -0.1933
18660TIP3   OH277394   3.468   1.404  15.081  0.5325  0.1975  0.1276
18660TIP3    H177395   3.554   1.362  15.084  0.4807  0.0889  0.1121
18660TIP3    H277396   3.468   1.453  14.998 -0.1432 -1.3846 -0.8656
18661TIP3   OH277397   1.539   1.239   0.487 -0.0675 -0.5401  0.3397
18661TIP3    H177398   1.587   1.309   0.532 -1.5642  1.8516 -1.5585
18661TIP3    H277399   1.608   1.190   0.441  0.8410  1.4754 -0.5898
18662TIP3   OH277400   6.729   6.747  11.331 -0.0171  0.3088 -0.0487
18662TIP3    H177401   6.708   6.690  11.405  1.3249 -0.8856 -0.5557
18662TIP3    H277402   6.722   6.690  11.254  0.5020  1.0526 -0.6567
18663TIP3   OH277403   4.289   1.944   1.436 -0.0371  0.4512  0.0546
18663TIP3    H177404   4.214   1.948   1.377 -0.1882  1.1995  0.2850
18663TIP3    H277405   4.350   1.883   1.394 -0.8533 -0.3331 -0.0311
18664TIP3   OH277406   5.225   5.762   2.788 -0.3639  0.1189 -0.4024
18664TIP3    H177407   5.220   5.679   2.739 -1.3835  0.6026 -1.1565
18664TIP3    H277408   5.238   5.829   2.721 -1.7713  0.7976 -0.0262
18665TIP3   OH277409   1.731   6.567   1.677  0.4768  0.0696  0.2855
18665TIP3    H177410   1.662   6.560   1.743 -0.8358  0.3799 -1.0130
18665TIP3    H277411   1.745   6.477   1.648 -0.4658  0.1729 -0.5146
18666TIP3   OH277412   5.971   2.832  12.050  0.2025  0.1529  0.7495
18666TIP3    H177413   5.951   2.834  11.957  1.0521 -1.4980  0.4860
18666TIP3    H277414   5.969   2.923  12.078  1.7500  0.8674 -1.2957
18667TIP3   OH277415   4.809   6.632   5.789  0.9050  0.0290 -0.6219
18667TIP3    H177416   4.747   6.599   5.854  1.3091 -0.2344 -0.3686
18667TIP3    H277417   4.872   6.561   5.777  0.7821  0.0375 -1.3725
18668TIP3   OH277418   1.264   2.846   3.341  0.4652  0.0789 -0.4161
18668TIP3    H177419   1.222   2.824   3.257 -1.5664  0.7562  0.3605
18668TIP3    H277420   1.281   2.761   3.381  0.1907 -0.2270 -0.9320
18669TIP3   OH277421   0.216   0.689   1.073  0.1405  0.2585 -0.2008
18669TIP3    H177422   0.131   0.661   1.038 -0.0757 -0.2972  0.7401
18669TIP3    H277423   0.247   0.615   1.125  0.0037  1.3560  1.5550
18670TIP3   OH277424   5.541   1.518   5.532 -0.1770 -0.7807  0.2809
18670TIP3    H177425   5.636   1.529   5.523 -0.4675  0.3280 -2.1389
18670TIP3    H277426   5.510   1.602   5.565 -0.3491 -1.1628  1.1250
18671TIP3   OH277427   2.331   2.788   3.269  0.1182  0.3669 -0.1834
18671TIP3    H177428   2.406   2.733   3.289  0.2269  1.1641  1.8326
18671TIP3    H277429   2.360   2.843   3.196  1.0560 -0.1931 -0.2430
18672TIP3   OH277430   3.711   2.305  12.002  0.2560 -0.3885  0.2916
18672TIP3    H177431   3.745   2.293  11.914 -1.1377  0.3184 -0.3818
18672TIP3    H277432   3.685   2.218  12.031 -1.6720 -0.3255 -1.0591
18673TIP3   OH277433   2.321   6.238   0.202  0.1171 -0.2228  0.3610
18673TIP3    H177434   2.268   6.195   0.135 -0.0054  1.4610 -0.6797
18673TIP3    H277435   2.267   6.232   0.282 -0.3640 -1.0139 -0.0056
18674TIP3   OH277436   2.386   1.574   5.488 -0.2366 -0.3257  0.7957
18674TIP3    H177437   2.452   1.638   5.462 -1.7211  0.3672 -1.6928
18674TIP3    H277438   2.323   1.625   5.540 -1.0976  0.1694 -0.6661
18675TIP3   OH277439   4.966   2.257  11.784 -0.6960 -0.0211 -0.4375
18675TIP3    H177440   5.013   2.174  11.783  0.5348  0.6059 -2.5421
18675TIP3    H277441   4.908   2.253  11.708 -1.4038  0.6412  0.0536
18676TIP3   OH277442   6.691   5.447   0.224  0.3256  0.4033 -0.1319
18676TIP3    H177443   6.683   5.431   0.318  1.0435 -2.2269 -0.4478
18676TIP3    H277444   6.778   5.414   0.201 -0.6832 -1.1073 -2.0568
18677TIP3   OH277445   5.054   3.236  12.805  0.2395 -0.2964 -0.0742
18677TIP3    H177446   5.009   3.281  12.734  0.2665  0.3775  0.3292
18677TIP3    H277447   5.134   3.202  12.765  0.4832  0.4809 -0.2679
18678TIP3   OH277448   0.303   0.732   2.814  0.0199  0.1894 -0.9788
18678TIP3    H177449   0.372   0.669   2.794  0.8537  1.1807 -1.2864
18678TIP3    H277450   0.335   0.781   2.890 -1.1330 -0.5089 -0.0060
18679TIP3   OH277451   6.756   4.411  16.263 -0.3893  0.0832  0.1595
18679TIP3    H177452   6.742   4.378  16.352 -0.0365 -0.9822 -0.1637
18679TIP3    H277453   6.851   4.419  16.256 -0.3939 -0.2119 -0.2492
18680TIP3   OH277454   2.623   6.033  16.245  0.3875 -0.6187  0.0123
18680TIP3    H177455   2.532   6.061  16.247  0.4525 -0.4234  0.3862
18680TIP3    H277456   2.652   6.051  16.156  0.3834  0.3994  0.1988
18681TIP3   OH277457   4.001   2.331   5.431 -0.4007 -0.2111 -0.2280
18681TIP3    H177458   4.003   2.236   5.422 -0.1633 -0.1922 -0.3936
18681TIP3    H277459   4.000   2.364   5.341 -1.3618 -0.0681 -0.1734
18682TIP3   OH277460   0.817   6.097  11.652  0.2165 -0.1927 -0.1937
18682TIP3    H177461   0.856   6.083  11.566  2.0925 -1.3019  0.7657
18682TIP3    H277462   0.801   6.009  11.686 -0.0513  0.2187  0.7795
18683TIP3   OH277463   0.973   5.979  13.915 -0.4045 -0.3980 -0.3272
18683TIP3    H177464   1.004   5.962  13.827  0.2167 -2.6834  0.2630
18683TIP3    H277465   0.911   5.909  13.933 -2.0460  1.1543  0.3819
18684TIP3   OH277466   3.490   6.104  12.875 -0.1329 -0.3345 -0.1696
18684TIP3    H177467   3.537   6.122  12.793 -0.8532 -0.8472 -0.7090
18684TIP3    H277468   3.474   6.010  12.874 -0.9171 -0.2093  0.1396
18685TIP3   OH277469   2.364   2.934   4.891 -0.4284  0.0503 -0.4385
18685TIP3    H177470   2.269   2.924   4.886 -0.3741 -0.0130 -2.1089
18685TIP3    H277471   2.391   2.949   4.800  1.0124  1.5402  0.1855
18686TIP3   OH277472   5.114   5.127   0.728  0.0327  0.2465 -0.4568
18686TIP3    H177473   5.129   5.126   0.822 -0.5469 -2.0447 -0.3347
18686TIP3    H277474   5.125   5.219   0.703  1.6547  0.6778  1.5761
18687TIP3   OH277475   4.748   1.478  16.574 -0.3200  0.1698  0.2262
18687TIP3    H177476   4.797   1.449  16.650 -1.4065 -2.4996  0.0288
18687TIP3    H277477   4.676   1.529  16.610 -0.2111 -0.1504  0.9171
18688TIP3   OH277478   1.151   4.414  12.989 -0.2137  0.5824  0.3541
18688TIP3    H177479   1.244   4.396  13.000 -0.1271  0.0140 -1.0769
18688TIP3    H277480   1.110   4.384  13.071  0.8991  1.3469  1.2215
18689TIP3   OH277481   6.695   0.824   4.301 -0.5766 -0.1713  0.0997
18689TIP3    H177482   6.763   0.817   4.369 -0.0463 -0.2689 -0.4271
18689TIP3    H277483   6.652   0.907   4.320 -0.3281 -0.1203  0.4644
18690TIP3   OH277484   3.104   4.895  16.504  0.4860  0.3851 -0.4138
18690TIP3    H177485   3.021   4.942  16.496  0.5954  0.7918  0.6750
18690TIP3    H277486   3.097   4.824  16.440 -1.4372 -0.6505  0.8462
18691TIP3   OH277487   2.646   4.261   0.023 -0.4279  0.0208 -0.0653
18691TIP3    H177488   2.615   4.352   0.026  0.3175  0.2784  0.2064
18691TIP3    H277489   2.739   4.269   0.003 -0.2382 -0.6568  0.5061
18692TIP3   OH277490   2.849   5.648  13.954 -0.1039 -0.1842 -0.2522
18692TIP3    H177491   2.859   5.579  14.019  0.7724 -0.2066 -0.4010
18692TIP3    H277492   2.926   5.640  13.898  0.3131  1.2446  0.0502
18693TIP3   OH277493   2.257   2.511  15.944  0.2145  0.3027  0.3547
18693TIP3    H177494   2.161   2.512  15.942  0.1959  1.9413  0.1065
18693TIP3    H277495   2.279   2.438  16.001 -1.1885 -0.0462  0.5005
18694TIP3   OH277496   1.799   5.113  15.495 -0.4225  0.5008 -0.3682
18694TIP3    H177497   1.773   5.205  15.491 -0.4659  0.7972  3.3327
18694TIP3    H277498   1.882   5.113  15.542  0.0807 -1.3077 -1.1650
18695TIP3   OH277499   4.363   3.993   0.421 -0.0232 -0.0801 -0.0583
18695TIP3    H177500   4.393   3.975   0.331 -0.7833 -0.2320 -0.2853
18695TIP3    H277501   4.332   3.909   0.453 -0.9388  0.2202 -0.1131
18696TIP3   OH277502   0.361   0.647  14.860 -0.1628 -0.1924 -0.2998
18696TIP3    H177503   0.433   0.628  14.800 -0.8435  2.4860 -2.1051
18696TIP3    H277504   0.282   0.644  14.806 -1.5053 -2.8029  1.5813
18697TIP3   OH277505   5.483   1.203  13.247  0.0454 -0.4903  0.1384
18697TIP3    H177506   5.490   1.193  13.341 -0.3098 -1.4693  0.0772
18697TIP3    H277507   5.415   1.140  13.221 -0.0506 -0.0532 -0.7340
18698TIP3   OH277508   2.865   0.437  13.222 -0.1703  0.0336 -0.2711
18698TIP3    H177509   2.793   0.450  13.160  0.5447 -0.3420 -1.2014
18698TIP3    H277510   2.901   0.351  13.199  1.5482  0.8604 -0.8528
18699TIP3   OH277511   3.227   3.636  12.227 -0.2711 -0.5078 -0.2225
18699TIP3    H177512   3.320   3.656  12.216 -0.7280  2.0442 -0.0804
18699TIP3    H277513   3.205   3.667  12.315 -1.4830  0.1321 -0.7105
18700TIP3   OH277514   3.445   0.308  13.637  0.1147  0.0795 -0.2940
18700TIP3    H177515   3.442   0.274  13.548  1.9445  0.7617 -0.6481
18700TIP3    H277516   3.530   0.351  13.644  0.5619 -1.0167  2.1710
18701TIP3   OH277517   6.646   2.302  10.719  0.4701  0.1445  0.6470
18701TIP3    H177518   6.575   2.257  10.766  0.0689 -0.1113 -0.1933
18701TIP3    H277519   6.621   2.394  10.722  0.3532  0.1098  0.7694
18702TIP3   OH277520   3.606   3.907  14.348 -0.0288 -0.5410  0.7409
18702TIP3    H177521   3.551   3.984  14.360  0.6265  0.2149 -0.8847
18702TIP3    H277522   3.638   3.913  14.258  3.1599 -0.6173  1.7295
18703TIP3   OH277523   1.754   3.579  16.813  0.3938 -0.2480  0.6796
18703TIP3    H177524   1.825   3.632  16.849  0.5442 -0.4414  0.6743
18703TIP3    H277525   1.799   3.510  16.764  0.2631 -1.4186  2.1177
18704TIP3   OH277526   0.063   4.440  11.936  0.2283 -0.3854  0.2007
18704TIP3    H177527   0.077   4.425  11.843 -2.5989 -0.2520 -0.3223
18704TIP3    H277528  -0.030   4.423  11.950  0.2521  1.0482  2.7279
18705TIP3   OH277529   0.231   3.922   3.981  0.2282  0.5567  0.0895
18705TIP3    H177530   0.214   3.828   3.987 -0.4240  0.6896  0.4398
18705TIP3    H277531   0.227   3.953   4.071  0.2815  0.9515 -0.0409
18706TIP3   OH277532   0.466   0.482   2.774 -0.3109 -0.3501  0.3966
18706TIP3    H177533   0.445   0.432   2.696  0.6212  2.8781 -2.1512
18706TIP3    H277534   0.561   0.489   2.774 -0.2987 -0.0791  1.7316
18707TIP3   OH277535   5.266   4.644  13.913  0.2695 -0.8072  0.1840
18707TIP3    H177536   5.286   4.718  13.855  2.0590 -1.5256 -0.1918
18707TIP3    H277537   5.305   4.668  13.997  4.0317 -2.6216 -0.8006
18708TIP3   OH277538   6.014   2.853  15.443  0.2533 -0.3507  0.3797
18708TIP3    H177539   5.936   2.864  15.389 -0.7801 -0.1019  1.8831
18708TIP3    H277540   6.048   2.942  15.455 -0.6156 -0.1736  1.6880
18709TIP3   OH277541   2.656   3.292  15.908 -0.0652 -0.1253  0.5743
18709TIP3    H177542   2.565   3.294  15.881  0.4635 -0.9813 -1.4563
18709TIP3    H277543   2.703   3.255  15.833  2.2779  2.3493  0.6708
18710TIP3   OH277544   3.776   5.021   6.186 -0.1183 -0.0927  0.2028
18710TIP3    H177545   3.755   5.112   6.205 -1.4052 -0.0630 -1.1621
18710TIP3    H277546   3.868   5.022   6.160 -0.3188  0.9399 -0.5243
18711TIP3   OH277547   3.785   5.425   4.342  0.0974  1.0153  0.4502
18711TIP3    H177548   3.765   5.452   4.252  2.7585 -0.9607 -0.8583
18711TIP3    H277549   3.845   5.492   4.374 -0.3851  1.4016  0.5639
18712TIP3   OH277550   3.226   4.235   4.675 -0.0956 -0.1986 -0.1849
18712TIP3    H177551   3.200   4.225   4.583 -0.5357 -2.6665  0.1457
18712TIP3    H277552   3.233   4.146   4.708  2.1018  0.5621  1.6591
18713TIP3   OH277553   5.132   4.064  17.079  0.2239 -0.4028 -0.3231
18713TIP3    H177554   5.082   4.061  16.997 -1.1160 -1.1327  0.4713
18713TIP3    H277555   5.153   4.156  17.091  0.6387 -0.3089 -1.5855
18714TIP3   OH277556   3.059   1.539  16.381  0.3869 -0.2289 -0.3205
18714TIP3    H177557   3.006   1.473  16.426  1.3693  0.3557  1.8188
18714TIP3    H277558   3.149   1.511  16.396  0.7554  0.0902 -1.8316
18715TIP3   OH277559   6.372   2.331  11.880 -0.0446 -0.3596 -0.5479
18715TIP3    H177560   6.303   2.359  11.941 -1.7434 -0.6782 -2.2065
18715TIP3    H277561   6.453   2.341  11.929 -1.2075  0.6342  1.3029
18716TIP3   OH277562   2.171   0.953  12.129  0.4266  0.1341 -0.8079
18716TIP3    H177563   2.220   0.876  12.159 -1.1777 -1.0659 -1.1277
18716TIP3    H277564   2.175   0.947  12.033 -0.1236  0.1599 -0.8334
18717TIP3   OH277565   6.618   4.676   2.561 -0.1885  0.0064 -0.3903
18717TIP3    H177566   6.678   4.740   2.600 -1.6690  0.9175  0.4704
18717TIP3    H277567   6.603   4.612   2.630 -0.9597  0.3224 -0.2562
18718TIP3   OH277568   3.446   5.025  13.942 -0.3625  0.2840  0.7816
18718TIP3    H177569   3.529   4.979  13.944  1.2975  2.9557 -0.5758
18718TIP3    H277570   3.438   5.064  14.029 -0.4793 -0.4027  1.0848
18719TIP3   OH277571   4.869   2.681  14.239  0.0297  0.4503 -0.6422
18719TIP3    H177572   4.909   2.760  14.274 -1.4957  1.7454 -1.6645
18719TIP3    H277573   4.781   2.679  14.277 -1.0255  0.9347 -2.8757
18720TIP3   OH277574   4.674   5.863   1.482  0.5943  0.1686  0.0989
18720TIP3    H177575   4.673   5.954   1.452 -0.0479  0.0719 -0.1907
18720TIP3    H277576   4.638   5.866   1.571  1.1130  0.2617  0.3144
18721TIP3   OH277577   6.125   2.505  15.793  0.2974  0.1144  0.3934
18721TIP3    H177578   6.031   2.525  15.801  0.7548  2.5006  0.4775
18721TIP3    H277579   6.153   2.554  15.715  1.8668  1.2128  1.5848
18722TIP3   OH277580   1.736   4.871  10.842  0.1648 -0.2179 -0.1872
18722TIP3    H177581   1.767   4.926  10.771  0.3392 -0.4465 -0.2892
18722TIP3    H277582   1.801   4.882  10.911  0.7031 -1.0146 -0.5529
18723TIP3   OH277583   3.154   4.237   1.443  0.0332 -0.2389  0.2195
18723TIP3    H177584   3.215   4.168   1.466  0.1244 -0.7371 -1.3600
18723TIP3    H277585   3.088   4.194   1.388 -0.4467  0.7295 -0.0072
18724TIP3   OH277586   0.052   4.025  12.105 -0.1392  0.5518  0.2673
18724TIP3    H177587  -0.027   4.068  12.134 -1.1111 -1.4774  0.8228
18724TIP3    H277588   0.054   3.942  12.153  1.2740 -0.3242 -1.1790
18725TIP3   OH277589   1.764   6.040   1.320 -0.5444  0.1212 -0.3539
18725TIP3    H177590   1.802   6.023   1.235  0.1229  0.3779 -0.1070
18725TIP3    H277591   1.837   6.032   1.382 -0.9054  0.4910  0.1323
18726TIP3   OH277592   6.289   1.059   1.241  0.1246 -0.1974 -0.8330
18726TIP3    H177593   6.240   1.139   1.224 -1.0283 -1.3881 -3.7127
18726TIP3    H277594   6.367   1.067   1.186  0.6921 -0.4902 -0.0849
18727TIP3   OH277595   6.017   2.581  15.335 -0.1459 -0.2478  0.3133
18727TIP3    H177596   6.004   2.526  15.412  1.6555  0.5596  1.2548
18727TIP3    H277597   6.033   2.669  15.371 -1.5929  0.6567 -1.0884
18728TIP3   OH277598   4.026   0.155   4.549 -0.1520 -0.3881 -0.2580
18728TIP3    H177599   3.958   0.138   4.484  0.9622 -1.3062 -1.2236
18728TIP3    H277600   4.069   0.235   4.518 -0.5265 -0.0330  0.1325
18729TIP3   OH277601   4.949   3.082  13.494 -0.2263  0.0359 -0.5154
18729TIP3    H177602   4.964   3.166  13.452 -1.2439  0.0036 -0.9746
18729TIP3    H277603   4.982   3.017  13.432 -1.5393 -0.0007 -1.2141
18730TIP3   OH277604   2.425   4.068  12.893  0.1720 -0.2874  0.0533
18730TIP3    H177605   2.413   3.992  12.837 -0.0199  0.6394 -1.2126
18730TIP3    H277606   2.506   4.050  12.941  1.2828 -0.3925 -1.7608
18731TIP3   OH277607   1.935   1.842   2.505  0.1580  0.3917  0.2555
18731TIP3    H177608   1.965   1.751   2.505  0.4941  0.4980 -0.3204
18731TIP3    H277609   1.989   1.885   2.571 -0.4169  0.0426  0.9609
18732TIP3   OH277610   6.191   0.107   5.032  0.2153  0.1553 -0.2145
18732TIP3    H177611   6.158   0.018   5.043  0.7128 -0.0715 -0.5103
18732TIP3    H277612   6.262   0.114   5.096 -1.0210  0.9773  1.1343
18733TIP3   OH277613   6.292   5.843   4.105 -0.2345 -0.0459 -0.2234
18733TIP3    H177614   6.203   5.821   4.076 -0.4706 -0.4666  0.7517
18733TIP3    H277615   6.288   5.835   4.201 -0.2507  3.9503  0.2636
18734TIP3   OH277616   5.707   0.946  13.371 -0.1810  0.5592  0.0599
18734TIP3    H177617   5.731   1.032  13.406 -1.4249  1.6017 -1.5012
18734TIP3    H277618   5.628   0.922  13.418 -1.6176  1.7734 -1.5692
18735TIP3   OH277619   6.140   3.189  16.916 -0.1674  0.3421  0.4379
18735TIP3    H177620   6.188   3.263  16.953  0.4107  0.1629  0.0434
18735TIP3    H277621   6.143   3.203  16.821 -0.4526  0.0537  0.3827
18736TIP3   OH277622   1.696   5.395  13.048  0.0575 -0.3251 -0.3328
18736TIP3    H177623   1.604   5.368  13.058  0.4181 -2.4000 -1.9861
18736TIP3    H277624   1.694   5.460  12.978 -0.2993  0.7878  0.6820
18737TIP3   OH277625   3.337   2.923  14.874 -0.1014 -0.3122  0.3214
18737TIP3    H177626   3.342   3.014  14.845 -1.8582 -0.1007  0.5699
18737TIP3    H277627   3.348   2.872  14.794 -2.8946  0.2317 -0.5375
18738TIP3   OH277628   6.259   4.312   5.209  0.1256 -0.2863  0.0769
18738TIP3    H177629   6.306   4.389   5.241  0.6230 -1.3814  2.1380
18738TIP3    H277630   6.295   4.239   5.258 -1.8874 -1.5442 -0.1891
18739TIP3   OH277631   2.998   2.894  15.265  0.4534  0.0008 -0.3098
18739TIP3    H177632   2.955   2.810  15.281  1.3011 -0.0637  2.0699
18739TIP3    H277633   2.933   2.946  15.217 -1.4031 -0.8859  1.1085
18740TIP3   OH277634   4.360   1.248   4.366  0.2114 -0.4862  0.6949
18740TIP3    H177635   4.336   1.330   4.324  0.7696 -0.2066  0.9088
18740TIP3    H277636   4.347   1.264   4.459  0.5463 -0.5552  0.7567
18741TIP3   OH277637   5.966   5.430  15.615  0.4179 -0.1854  0.3615
18741TIP3    H177638   5.920   5.510  15.639  1.4693  0.7478 -0.5981
18741TIP3    H277639   6.059   5.454  15.615  0.6902 -1.0941 -0.9584
18742TIP3   OH277640   2.125   3.997   6.445 -0.0809 -0.2542 -0.2499
18742TIP3    H177641   2.048   4.020   6.394 -0.3387 -1.2721 -0.3381
18742TIP3    H277642   2.111   4.039   6.530 -0.0849  0.6760 -0.7006
18743TIP3   OH277643   0.747   5.369   5.407 -0.2432 -0.0219 -0.0579
18743TIP3    H177644   0.711   5.429   5.472 -0.5931  0.6007 -0.8203
18743TIP3    H277645   0.713   5.400   5.323 -0.9329 -1.6419 -0.4183
18744TIP3   OH277646   5.815   4.507   1.027 -0.6904  0.1614  0.5431
18744TIP3    H177647   5.789   4.590   0.986 -1.5261 -0.4085 -0.1315
18744TIP3    H277648   5.840   4.451   0.954 -1.3531 -0.5863  0.8702
18745TIP3   OH277649   2.201   2.488  14.139  0.1125  0.4362 -0.2673
18745TIP3    H177650   2.167   2.454  14.057 -1.0268  0.2891  0.2478
18745TIP3    H277651   2.149   2.567  14.156  1.2645  1.2544 -0.3615
18746TIP3   OH277652   6.206   2.077   1.360  0.8824  0.2661 -0.3181
18746TIP3    H177653   6.136   2.057   1.421  1.5379  1.5729  0.9234
18746TIP3    H277654   6.275   2.014   1.379  0.9334  0.4294  0.0502
18747TIP3   OH277655   3.633   5.964   4.327 -0.3107  0.7171  0.2412
18747TIP3    H177656   3.609   5.899   4.261 -1.5983  2.8801 -1.5444
18747TIP3    H277657   3.645   5.913   4.407 -1.2323 -1.7109 -1.0562
18748TIP3   OH277658   4.648   6.224  11.730  0.3256  0.2829 -0.8187
18748TIP3    H177659   4.605   6.274  11.798  0.4348 -0.0868 -0.4739
18748TIP3    H277660   4.628   6.132  11.750 -1.2118  0.2309 -2.3402
18749TIP3   OH277661   6.090   6.257   0.559  0.3440  0.0222 -0.2032
18749TIP3    H177662   6.097   6.163   0.544 -1.3192 -0.1803  0.0877
18749TIP3    H277663   5.996   6.275   0.554  0.7331  1.9372 -1.6999
18750TIP3   OH277664   1.528   2.114   5.648 -0.3060 -0.2566 -0.1078
18750TIP3    H177665   1.548   2.058   5.723 -0.8788 -1.3817 -0.7721
18750TIP3    H277666   1.440   2.147   5.665  0.8472  2.3928  1.4149
18751TIP3   OH277667   5.549   0.235   3.064  0.2854 -0.0521 -0.2251
18751TIP3    H177668   5.466   0.208   3.023  1.0419 -0.9997 -1.1976
18751TIP3    H277669   5.538   0.329   3.081 -0.1373  0.3777 -2.5251
18752TIP3   OH277670   4.556   5.856   3.747  0.2326 -0.4355  0.1884
18752TIP3    H177671   4.483   5.865   3.686  2.6860  0.3176 -2.8845
18752TIP3    H277672   4.583   5.946   3.766  2.1812 -0.6829 -1.1767
18753TIP3   OH277673   5.954   5.003   4.721  0.0242 -0.2240 -0.0275
18753TIP3    H177674   5.858   4.997   4.719  0.0313 -0.2330 -1.4831
18753TIP3    H277675   5.977   5.039   4.635  1.3862 -1.1870 -0.0924
18754TIP3   OH277676   4.500   5.922  12.454 -0.3382  0.1154  0.0362
18754TIP3    H177677   4.571   5.982  12.478 -0.6243  1.2459 -1.7430
18754TIP3    H277678   4.543   5.837  12.443  0.3429  0.3101  1.1113
18755TIP3   OH277679   1.454   3.618  14.258  0.7434  0.0227 -0.3147
18755TIP3    H177680   1.390   3.547  14.264  0.9761 -0.0814  1.3891
18755TIP3    H277681   1.525   3.591  14.315 -0.5550  3.0059  3.1034
18756TIP3   OH277682   3.857   5.421   5.832 -0.4098 -0.0393 -0.4021
18756TIP3    H177683   3.854   5.330   5.860 -1.0552  0.1707  0.2526
18756TIP3    H277684   3.811   5.469   5.901  1.3432  1.0089  0.1306
18757TIP3   OH277685   4.962   5.324   2.897  0.0563  0.0455 -0.2500
18757TIP3    H177686   4.889   5.331   2.958  0.8219  1.5588  0.5531
18757TIP3    H277687   4.937   5.254   2.837 -0.7774 -1.3858  1.6974
18758TIP3   OH277688   5.447   1.746   6.723  0.3958 -0.8819 -0.3946
18758TIP3    H177689   5.535   1.783   6.724 -0.7623  2.3203  1.8024
18758TIP3    H277690   5.398   1.800   6.661 -0.6281 -0.7693  0.4710
18759TIP3   OH277691   5.946   3.730   4.679 -0.4319 -0.5268  0.2103
18759TIP3    H177692   5.994   3.653   4.709 -1.8188 -1.0103  1.2423
18759TIP3    H277693   5.993   3.804   4.718 -0.0130 -0.9231  0.4717
18760TIP3   OH277694   0.036   5.251  15.695 -1.2331  0.2328  0.1950
18760TIP3    H177695   0.096   5.279  15.764 -1.5670  0.2487  0.4765
18760TIP3    H277696   0.089   5.257  15.615 -0.2426 -1.6597  0.6518
18761TIP3   OH277697   6.793   0.244  14.840  0.6215 -0.3568  0.1195
18761TIP3    H177698   6.827   0.179  14.901  0.1439 -2.1852 -1.4649
18761TIP3    H277699   6.866   0.263  14.782 -0.3496 -2.8685 -2.1147
18762TIP3   OH277700   4.308   4.675  13.899 -0.4441 -0.5216 -0.5821
18762TIP3    H177701   4.387   4.727  13.891 -1.0977  1.1025  2.1186
18762TIP3    H277702   4.249   4.709  13.832 -0.1814  0.9733 -0.0969
18763TIP3   OH277703   6.245   2.935  16.781  0.4673  0.0655  0.6777
18763TIP3    H177704   6.168   2.889  16.749  0.3882  1.1936 -0.8536
18763TIP3    H277705   6.214   2.987  16.855  0.4117 -1.7262  1.9657
18764TIP3   OH277706   1.579   4.016   2.392 -0.9830  0.0580  0.2837
18764TIP3    H177707   1.660   4.067   2.391 -0.5368 -0.6489 -1.0878
18764TIP3    H277708   1.578   3.970   2.309 -3.8289  1.6321 -0.6869
18765TIP3   OH277709   1.445   1.959   1.490  0.4994  0.4671  0.4002
18765TIP3    H177710   1.374   1.980   1.429  1.3201  1.6399 -0.1849
18765TIP3    H277711   1.523   1.952   1.435  0.9507 -0.2512  1.1076
18766TIP3   OH277712   4.263   6.681   2.518 -0.1257  0.4978 -0.3774
18766TIP3    H177713   4.195   6.693   2.585  0.8814 -0.2027  0.8249
18766TIP3    H277714   4.244   6.596   2.479 -0.3824  0.6493 -0.5845
18767TIP3   OH277715   3.058   3.027  12.264  0.3902  0.1767  0.2287
18767TIP3    H177716   3.028   3.098  12.207  1.8758  0.9617  0.3558
18767TIP3    H277717   2.995   3.024  12.335  0.0132  1.0108 -0.0625
18768TIP3   OH277718   1.725   6.057  14.791  0.4612  0.1005 -0.1418
18768TIP3    H177719   1.707   6.037  14.699 -0.4751 -0.1899  0.0895
18768TIP3    H277720   1.639   6.073  14.829  0.5815 -1.9373  1.1806
18769TIP3   OH277721   6.350   2.855   0.747  0.3183 -0.6844 -0.1291
18769TIP3    H177722   6.259   2.876   0.770 -0.8699 -2.2493 -2.9742
18769TIP3    H277723   6.375   2.788   0.811 -0.9045 -0.9858  0.0655
18770TIP3   OH277724   0.910   3.744  14.209 -0.0788  0.0334  0.0359
18770TIP3    H177725   0.979   3.806  14.233  1.3996 -1.6239  0.2175
18770TIP3    H277726   0.957   3.665  14.183 -1.7897 -0.1982 -2.7698
18771TIP3   OH277727   2.609   0.850  15.371  0.2777  0.5547 -0.0065
18771TIP3    H177728   2.545   0.867  15.440  0.1382 -0.9546  0.2817
18771TIP3    H277729   2.676   0.796  15.413 -0.3530 -1.3220 -1.2439
18772TIP3   OH277730   4.399   0.311  15.696  0.2124  0.0043 -0.0643
18772TIP3    H177731   4.394   0.404  15.717  2.1646 -0.1442  1.2963
18772TIP3    H277732   4.485   0.300  15.657  0.1925 -1.3160  0.2146
18773TIP3   OH277733   5.812   0.936  14.805  0.2896 -0.1462 -0.1017
18773TIP3    H177734   5.721   0.962  14.817 -0.1147 -1.4015 -0.3212
18773TIP3    H277735   5.815   0.844  14.833  1.1183 -0.6147 -1.5817
18774TIP3   OH277736   1.813   5.010   1.961 -0.1175 -0.2472  0.8204
18774TIP3    H177737   1.844   4.947   1.895 -0.6340 -1.1538  1.4265
18774TIP3    H277738   1.892   5.032   2.011  0.3419  0.6889 -0.2729
18775TIP3   OH277739   0.103   4.409  14.177 -0.0952  0.5766 -0.2817
18775TIP3    H177740   0.129   4.494  14.141  0.6514  1.4554  2.0991
18775TIP3    H277741   0.058   4.431  14.259 -0.2007 -1.3194  0.2086
18776TIP3   OH277742   0.529   1.775   3.638 -0.2446 -0.1725 -0.3835
18776TIP3    H177743   0.473   1.832   3.586 -1.0836 -0.8100 -0.2109
18776TIP3    H277744   0.476   1.753   3.715  0.7012  0.1722  0.3847
18777TIP3   OH277745   6.111   4.113  16.769 -0.1706 -0.1130 -0.3338
18777TIP3    H177746   6.156   4.181  16.820 -0.9933 -0.2095  0.5526
18777TIP3    H277747   6.114   4.035  16.825 -1.2655 -0.1673 -0.3269
18778TIP3   OH277748   5.300   1.437   4.178 -0.0300 -0.4455 -0.0684
18778TIP3    H177749   5.294   1.384   4.258 -1.2027  0.7053  0.6401
18778TIP3    H277750   5.230   1.502   4.186  1.2224  1.1128 -0.9868
18779TIP3   OH277751   0.999   4.885   4.572  0.1627  0.1355 -0.2750
18779TIP3    H177752   0.940   4.818   4.605  1.1096 -1.6704 -1.9656
18779TIP3    H277753   0.957   4.917   4.492 -0.6411  2.1892  0.9042
18780TIP3   OH277754   0.575   6.345   5.344  0.0781 -0.0381 -0.2089
18780TIP3    H177755   0.523   6.265   5.336  0.6504 -0.4404  0.0653
18780TIP3    H277756   0.531   6.407   5.286 -1.2976 -0.0522  0.7824
18781TIP3   OH277757   3.512   2.192   1.034 -0.4768 -0.2675  0.2726
18781TIP3    H177758   3.428   2.180   0.990 -0.2160  0.0051 -0.3018
18781TIP3    H277759   3.548   2.272   0.996  0.5841 -1.0312 -0.3466
18782TIP3   OH277760   1.742   6.641  11.744  0.1357  0.5272 -0.8873
18782TIP3    H177761   1.662   6.693  11.735  0.5640  1.9337  2.2367
18782TIP3    H277762   1.810   6.694  11.702 -0.0816  0.7010 -1.0202
18783TIP3   OH277763   3.309   0.744   5.210  0.6430 -0.0511  0.2484
18783TIP3    H177764   3.364   0.760   5.133 -0.5592  2.0658 -0.2248
18783TIP3    H277765   3.348   0.798   5.279 -1.2221  2.1925 -0.3246
18784TIP3   OH277766   5.323   6.618   1.318 -0.2566 -0.4519 -0.4579
18784TIP3    H177767   5.298   6.590   1.406 -1.7220  2.0970  0.0427
18784TIP3    H277768   5.240   6.643   1.277  0.7111  1.5569 -1.3350
18785TIP3   OH277769   0.164   0.748   3.796  0.1031 -0.5171 -0.0217
18785TIP3    H177770   0.223   0.695   3.849  0.9750 -0.4703 -0.9179
18785TIP3    H277771   0.086   0.693   3.785 -0.3983 -0.2682  1.8389
18786TIP3   OH277772   5.805   6.228   2.081  0.3365 -0.3125 -0.2720
18786TIP3    H177773   5.856   6.289   2.027  3.0038 -1.8259  0.3866
18786TIP3    H277774   5.809   6.145   2.035  2.2739 -1.5297  1.8952
18787TIP3   OH277775   5.541   2.226   4.528  0.3808 -0.0738  0.3837
18787TIP3    H177776   5.505   2.181   4.604 -0.5038  1.0106  0.6329
18787TIP3    H277777   5.472   2.286   4.500  0.3527 -1.0202 -1.8143
18788TIP3   OH277778   3.557   5.930  11.576 -0.2068  0.0321  0.3782
18788TIP3    H177779   3.499   5.901  11.505 -2.1700 -2.7733  2.8712
18788TIP3    H277780   3.640   5.887  11.559  0.1115  1.2174 -1.3298
18789TIP3   OH277781   2.452   2.652   3.482  0.1530  0.5191  0.1377
18789TIP3    H177782   2.540   2.656   3.519 -0.1745 -1.4177  1.2835
18789TIP3    H277783   2.438   2.559   3.462 -1.6291  0.7658  0.0244
18790TIP3   OH277784   3.306   6.680  11.352 -0.5652  0.4474 -0.3040
18790TIP3    H177785   3.225   6.654  11.395  0.1325 -1.3700  0.0154
18790TIP3    H277786   3.297   6.647  11.262 -1.1009  2.2743 -0.9556
18791TIP3   OH277787   2.270   0.970  12.670 -0.0008  0.2772 -0.4118
18791TIP3    H177788   2.308   1.057  12.685 -1.7295  0.7828  1.5933
18791TIP3    H277789   2.175   0.984  12.674 -0.3217 -1.7729  0.5528
18792TIP3   OH277790   6.308   6.660  15.519 -0.0039  0.2159  0.6485
18792TIP3    H177791   6.330   6.751  15.500 -0.9264  0.3968  0.4395
18792TIP3    H277792   6.224   6.664  15.565  0.6517 -0.4266  1.9652
18793TIP3   OH277793   6.561   2.188   5.748  0.0716 -0.1657  0.0253
18793TIP3    H177794   6.580   2.095   5.738 -0.9059 -0.4034  0.2203
18793TIP3    H277795   6.595   2.212   5.834  0.8523 -0.1952 -0.2719
18794TIP3   OH277796   1.535   4.003   3.491 -0.0368  0.1058 -0.4118
18794TIP3    H177797   1.525   3.934   3.557  1.5248 -0.3329 -0.5954
18794TIP3    H277798   1.505   4.083   3.534 -1.9669 -0.6680 -0.2209
18795TIP3   OH277799   0.467   4.189   3.429  0.4405 -0.0019 -0.1225
18795TIP3    H177800   0.495   4.258   3.489  1.0328 -1.1178  0.9296
18795TIP3    H277801   0.542   4.129   3.424 -0.0476 -0.5578 -1.0302
18796TIP3   OH277802   3.300   3.968  16.365  0.0929  0.6367 -0.0001
18796TIP3    H177803   3.212   3.969  16.328  0.5045  2.7637 -1.0733
18796TIP3    H277804   3.286   3.971  16.460 -0.9784  0.0650 -0.1299
18797TIP3   OH277805   5.439   2.765   1.664 -0.4568 -0.1113  0.3975
18797TIP3    H177806   5.480   2.739   1.746 -2.1490  1.5225  1.8293
18797TIP3    H277807   5.508   2.753   1.598  0.7527 -2.0561  1.9002
18798TIP3   OH277808   2.815   1.570   0.727 -0.5568  0.3972  0.3046
18798TIP3    H177809   2.743   1.508   0.739 -0.1593  0.2377  2.1155
18798TIP3    H277810   2.818   1.619   0.810  1.6531  0.1624  0.4030
18799TIP3   OH277811   3.928   1.064   6.322  0.1183 -0.7715  0.2167
18799TIP3    H177812   3.839   1.029   6.315  0.1221 -0.4879 -3.1147
18799TIP3    H277813   3.946   1.066   6.416 -3.8292  0.3099  1.1377
18800TIP3   OH277814   4.156   4.901   5.011 -0.0364 -0.8234  0.5489
18800TIP3    H177815   4.079   4.882   5.065 -0.7416 -1.0711 -0.5047
18800TIP3    H277816   4.155   4.996   4.999 -0.2511 -0.8380  0.4452
18801TIP3   OH277817   4.889   2.532   4.058  0.5691  0.3590  0.1166
18801TIP3    H177818   4.822   2.465   4.073  0.7831  0.3226  0.9164
18801TIP3    H277819   4.921   2.513   3.969 -0.2625  0.1964 -0.1602
18802TIP3   OH277820   0.740   2.169  13.211 -0.7096  0.3136 -0.1997
18802TIP3    H177821   0.683   2.097  13.185 -0.1362 -0.0019 -0.6190
18802TIP3    H277822   0.776   2.141  13.295 -0.6608  0.2072 -0.2554
18803TIP3   OH277823   0.506   1.557   2.029 -0.6821 -0.3413  0.1740
18803TIP3    H177824   0.458   1.615   2.088 -0.8883 -1.4830  1.1759
18803TIP3    H277825   0.590   1.601   2.016 -1.4967  1.0638 -0.5955
18804TIP3   OH277826   3.861   3.397  10.945 -0.6851  0.2363 -0.0659
18804TIP3    H177827   3.932   3.383  11.009 -1.1450  0.2738  0.4627
18804TIP3    H277828   3.890   3.350  10.867  0.6514  1.5483 -0.4122
18805TIP3   OH277829   0.369   6.487   5.176  0.2150 -0.3976 -0.2435
18805TIP3    H177830   0.276   6.507   5.186  0.4800 -0.1159  2.2714
18805TIP3    H277831   0.390   6.517   5.087 -2.1694 -0.9889 -1.1074
18806TIP3   OH277832   1.387   2.856  12.652 -0.3656 -0.2938 -0.0204
18806TIP3    H177833   1.392   2.760  12.654 -0.9603 -0.3976 -1.6937
18806TIP3    H277834   1.313   2.877  12.709 -0.3197 -0.8314  0.2516
18807TIP3   OH277835   0.086   3.591   3.148  0.2448 -0.0315  0.4804
18807TIP3    H177836   0.151   3.533   3.188  0.1071 -1.0902 -0.7680
18807TIP3    H277837   0.112   3.679   3.176 -0.2379 -0.7028  3.4609
18808TIP3   OH277838   0.654   3.582   1.232  0.3640  0.6170 -0.3143
18808TIP3    H177839   0.624   3.546   1.315 -0.4616  0.5414 -0.6388
18808TIP3    H277840   0.749   3.568   1.233  0.1579 -0.9484 -0.1279
18809TIP3   OH277841   5.840   1.532   5.521  0.0253  0.1295  0.0828
18809TIP3    H177842   5.887   1.609   5.490 -2.2155  1.5380 -0.0911
18809TIP3    H277843   5.872   1.460   5.467 -0.7860  1.7410 -2.7453
18810TIP3   OH277844   6.043   0.932   3.194  0.2473  0.2451  0.2093
18810TIP3    H177845   5.991   1.000   3.151 -0.4217 -0.0679  0.5157
18810TIP3    H277846   6.128   0.937   3.151 -0.1166  0.5710 -0.4949
18811TIP3   OH277847   2.952   4.331   1.221  0.3777 -0.0113  0.2147
18811TIP3    H177848   2.885   4.373   1.276  1.3939  1.6439  0.2456
18811TIP3    H277849   2.938   4.368   1.134 -0.9706 -2.3298 -0.6763
18812TIP3   OH277850   2.707   2.757  11.750  0.5664  0.1095  0.6023
18812TIP3    H177851   2.785   2.706  11.772  1.1742  1.7153  2.3921
18812TIP3    H277852   2.651   2.750  11.827 -1.0206 -0.8359 -0.5775
18813TIP3   OH277853   3.792   0.999   2.979  0.1468 -0.3555  0.1652
18813TIP3    H177854   3.745   0.916   2.964 -0.2986  0.2119 -1.7976
18813TIP3    H277855   3.728   1.067   2.958  1.1554  0.4586 -0.3564
18814TIP3   OH277856   6.731   6.383   4.093  0.4549 -0.2721 -0.5450
18814TIP3    H177857   6.752   6.323   4.164 -1.5744 -0.2249  0.1664
18814TIP3    H277858   6.776   6.464   4.116 -2.4608  0.7267  2.3990
18815TIP3   OH277859   1.639   4.636  14.625 -0.0798 -0.1861  0.1566
18815TIP3    H177860   1.674   4.569  14.566 -1.0454  0.7720 -1.6051
18815TIP3    H277861   1.566   4.593  14.669 -1.0647 -0.1610 -1.3940
18816TIP3   OH277862   6.405   1.782  16.539  0.0296 -0.2500 -0.5878
18816TIP3    H177863   6.425   1.688  16.540  0.3687 -0.1808  0.8566
18816TIP3    H277864   6.390   1.804  16.631 -0.1290  1.0963 -0.9240
18817TIP3   OH277865   5.939   1.132   2.698  0.3582  0.8137  0.2231
18817TIP3    H177866   5.889   1.056   2.668  0.3235  0.3749  1.3660
18817TIP3    H277867   5.909   1.204   2.642 -0.7266  0.3195  0.1509
18818TIP3   OH277868   5.817   5.229  10.651  0.1335 -0.4865 -0.4198
18818TIP3    H177869   5.774   5.237  10.567  2.1037  1.0156 -1.3634
18818TIP3    H277870   5.909   5.252  10.634  0.4166  0.8601  2.3037
18819TIP3   OH277871   4.080   2.754   2.043  0.0206  0.0962  0.3352
18819TIP3    H177872   4.054   2.839   2.079 -0.9100 -0.6060  1.3873
18819TIP3    H277873   4.147   2.776   1.978 -1.5654  1.7835 -0.8288
18820TIP3   OH277874   4.708   6.017  16.379 -0.6205  0.2924 -0.4026
18820TIP3    H177875   4.710   5.922  16.391 -0.0712  0.3160 -0.3014
18820TIP3    H277876   4.650   6.049  16.448 -0.1252  0.1116  0.1050
18821TIP3   OH277877   6.382   0.856  14.119  0.1142 -0.6457 -0.5440
18821TIP3    H177878   6.357   0.765  14.111  0.3586 -0.6827 -0.9225
18821TIP3    H277879   6.472   0.859  14.086  0.1081 -0.2705 -0.5328
18822TIP3   OH277880   0.018   6.721  14.055 -0.3773  0.1992  0.2645
18822TIP3    H177881   0.010   6.626  14.063 -0.5843  0.0500 -1.3938
18822TIP3    H277882   0.111   6.736  14.039 -0.6539  0.0272 -1.8044
18823TIP3   OH277883   2.069   4.835   0.292  0.4183 -0.1176  0.3570
18823TIP3    H177884   2.139   4.774   0.268 -1.1442 -2.0026  0.3541
18823TIP3    H277885   2.048   4.813   0.383 -0.3772  0.2294  0.2653
18824TIP3   OH277886   4.617   0.002  15.597  0.3716  0.2266  0.1224
18824TIP3    H177887   4.695   0.033  15.644  0.7127  0.8820 -0.8278
18824TIP3    H277888   4.631   0.032  15.507 -1.0969  0.5715 -0.0139
18825TIP3   OH277889   4.881   5.368  13.972 -0.0443 -0.7705 -0.0500
18825TIP3    H177890   4.842   5.300  13.918 -2.3588 -0.4244  1.0403
18825TIP3    H277891   4.939   5.321  14.032 -0.3536 -1.5887 -0.3797
18826TIP3   OH277892   5.945   0.686   4.666  0.1409 -0.1792 -0.0663
18826TIP3    H177893   5.890   0.702   4.588 -0.3736 -1.5679 -0.0349
18826TIP3    H277894   5.940   0.767   4.716 -2.2506 -0.3741  0.1310
18827TIP3   OH277895   2.478   2.286   5.557 -0.4161 -0.0319 -0.5332
18827TIP3    H177896   2.444   2.230   5.626 -0.6317  0.5874 -0.1267
18827TIP3    H277897   2.480   2.374   5.596 -2.9008  0.8100 -2.0890
18828TIP3   OH277898   4.947   0.215  11.825 -0.7208  0.1792  0.5446
18828TIP3    H177899   4.884   0.170  11.881  0.0813  0.3991  1.6581
18828TIP3    H277900   5.008   0.256  11.886  1.1230 -0.8865 -0.4748
18829TIP3   OH277901   5.348   0.149  12.164 -0.3975 -0.1306 -0.6548
18829TIP3    H177902   5.374   0.118  12.077  1.8910 -0.2790  0.0076
18829TIP3    H277903   5.346   0.244  12.156  0.6955 -0.1022 -0.6549
18830TIP3   OH277904   5.607   3.833  16.004  0.2080 -0.2120  0.4503
18830TIP3    H177905   5.566   3.907  16.049  1.1951  0.3742  0.4051
18830TIP3    H277906   5.644   3.870  15.924 -0.8798 -1.1114 -0.4971
18831TIP3   OH277907   0.289   5.974   2.115  0.1567  0.9656  0.5159
18831TIP3    H177908   0.286   5.909   2.186 -1.7345 -0.0162 -0.3838
18831TIP3    H277909   0.366   5.949   2.063 -1.3280 -1.5748 -0.6517
18832TIP3   OH277910   2.881   4.000  14.718 -0.3045 -0.3248  0.2566
18832TIP3    H177911   2.894   4.084  14.674 -0.2055 -1.2022 -1.4833
18832TIP3    H277912   2.969   3.970  14.739 -0.1881 -0.8176 -0.8264
18833TIP3   OH277913   5.316   6.819  14.289  0.3784 -0.9508  0.0965
18833TIP3    H177914   5.372   6.829  14.366 -0.5711  1.2151  0.5907
18833TIP3    H277915   5.340   6.892  14.233 -2.7852  0.9507  0.9472
18834TIP3   OH277916   3.521   3.307   2.266 -0.1190  0.0659 -0.3296
18834TIP3    H177917   3.435   3.336   2.234 -0.7775 -1.2182  0.1890
18834TIP3    H277918   3.525   3.339   2.356 -0.7699 -1.2003  0.1829
18835TIP3   OH277919   5.316   1.534  12.110  0.0897 -0.7193  0.3109
18835TIP3    H177920   5.253   1.548  12.180  0.0525 -0.9135  0.3174
18835TIP3    H277921   5.321   1.439  12.101  0.5146 -0.7090  0.4308
18836TIP3   OH277922   3.165   1.372  16.128 -0.2571  0.8223 -0.1432
18836TIP3    H177923   3.208   1.294  16.164 -0.4706  0.0291 -1.5208
18836TIP3    H277924   3.230   1.442  16.139  0.5202  0.1289 -0.2007
18837TIP3   OH277925   5.642   4.494   3.453 -0.2079  1.0084  0.3040
18837TIP3    H177926   5.716   4.501   3.514  0.6724  0.1902 -0.6120
18837TIP3    H277927   5.623   4.400   3.450  0.4828  0.8767 -1.4410
18838TIP3   OH277928   3.488   4.954  14.708 -0.0595 -0.3354 -0.1301
18838TIP3    H177929   3.428   5.002  14.651  0.4193 -0.3712 -0.6763
18838TIP3    H277930   3.432   4.889  14.751 -0.7296  0.7343  0.6821
18839TIP3   OH277931   0.192   0.017   1.166 -0.7268 -0.6551  0.3365
18839TIP3    H177932   0.199  -0.025   1.252 -0.5421 -3.1982 -0.8188
18839TIP3    H277933   0.155  -0.051   1.109  1.2585  0.1365 -2.0841
18840TIP3   OH277934   0.329   0.309  15.982 -1.0634  0.0496 -0.1818
18840TIP3    H177935   0.372   0.235  15.941 -1.8116 -0.8320  0.5708
18840TIP3    H277936   0.236   0.298  15.961 -1.3490  0.0472  0.9852
18841TIP3   OH277937   5.694   5.402  13.811 -0.2637  0.4888  0.1805
18841TIP3    H177938   5.762   5.413  13.878 -0.6520  0.2184  0.6295
18841TIP3    H277939   5.741   5.397  13.728  0.1260  3.0071  0.1764
18842TIP3   OH277940   1.664   2.293   4.747 -0.1368 -0.1617  0.5333
18842TIP3    H177941   1.659   2.388   4.739 -0.2616 -0.1729  0.4660
18842TIP3    H277942   1.707   2.264   4.667 -2.6089 -0.3860 -0.8340
18843TIP3   OH277943   0.753   5.734   5.397  0.0559 -0.2997 -0.2781
18843TIP3    H177944   0.700   5.812   5.387 -0.2632 -0.7298 -2.2062
18843TIP3    H277945   0.696   5.662   5.370  0.4779 -1.1846  1.0618
18844TIP3   OH277946   3.480   2.566   1.343 -0.2781  0.1208 -0.0110
18844TIP3    H177947   3.562   2.534   1.305 -0.6398  1.3466 -1.9784
18844TIP3    H277948   3.465   2.509   1.418  0.8649 -2.0242 -1.3023
18845TIP3   OH277949   6.522   5.268  14.613  0.4313 -0.7728  0.2067
18845TIP3    H177950   6.548   5.269  14.706  0.0752  1.0856  0.3211
18845TIP3    H277951   6.604   5.270  14.565  0.6155 -1.6511  0.4593
18846TIP3   OH277952   5.821   1.063   3.782  0.3134 -0.6686 -0.2115
18846TIP3    H177953   5.758   1.120   3.825  0.9481 -2.0038  2.7507
18846TIP3    H277954   5.906   1.096   3.809  0.7941 -0.9596 -1.3104
18847TIP3   OH277955   3.360   2.471   2.002  0.3300  0.2641 -0.2441
18847TIP3    H177956   3.354   2.565   1.984  0.1886  0.2956 -0.0403
18847TIP3    H277957   3.305   2.430   1.934  0.0915  0.3555 -0.1080
18848TIP3   OH277958   2.727   0.142  13.197 -0.2391 -0.1686 -0.5250
18848TIP3    H177959   2.822   0.148  13.205 -0.0829 -2.4226  0.0437
18848TIP3    H277960   2.694   0.156  13.286 -0.2717 -1.2981 -0.3437
18849TIP3   OH277961   1.078   1.616  12.320 -0.2415 -0.7274 -0.0866
18849TIP3    H177962   1.103   1.605  12.229  0.8255  3.6423 -0.5651
18849TIP3    H277963   0.991   1.655  12.317 -0.6032 -1.4226  0.8441
18850TIP3   OH277964   0.220   1.858   1.042 -0.2041 -0.0437 -0.2005
18850TIP3    H177965   0.175   1.783   1.004 -1.8350  0.4542  0.6720
18850TIP3    H277966   0.181   1.934   0.999  0.2440  0.3793  0.1222
18851TIP3   OH277967   4.886   4.898  15.248  0.3203 -0.1683 -0.6456
18851TIP3    H177968   4.923   4.814  15.219 -0.5065 -0.9249  0.4027
18851TIP3    H277969   4.828   4.874  15.321 -0.9686  1.1730 -1.1990
18852TIP3   OH277970   5.131   2.283  12.435  0.3608 -0.5261 -0.5739
18852TIP3    H177971   5.107   2.375  12.446  1.5817 -0.2412 -0.1844
18852TIP3    H277972   5.162   2.277  12.345 -1.4954 -1.0030 -1.2461
18853TIP3   OH277973   4.992   3.124   2.536 -0.1281 -0.5853 -0.3332
18853TIP3    H177974   4.962   3.152   2.450  0.6396 -0.2244 -0.4933
18853TIP3    H277975   4.992   3.028   2.531  1.9155 -0.5799 -1.4869
18854TIP3   OH277976   6.394   3.451  15.262  0.1843  0.0393  0.6573
18854TIP3    H177977   6.341   3.426  15.338 -1.0239  0.0790 -0.1406
18854TIP3    H277978   6.472   3.396  15.268  0.9785  1.2746  2.8899
18855TIP3   OH277979   4.086   2.526  13.945 -0.1750  0.1441 -0.0787
18855TIP3    H177980   4.046   2.498  13.863 -2.0423  0.4603  0.6803
18855TIP3    H277981   4.180   2.521  13.928 -0.4649 -1.8203 -1.5611
18856TIP3   OH277982   1.620   4.931   2.582 -0.2686  0.1532  0.7535
18856TIP3    H177983   1.688   4.898   2.523 -0.5679  0.8510  0.0066
18856TIP3    H277984   1.656   5.014   2.615 -1.4278  1.4069 -0.9652
18857TIP3   OH277985   6.800   2.826  14.409  0.2003  0.1977  0.9453
18857TIP3    H177986   6.860   2.781  14.349  1.3637  0.1906  2.0843
18857TIP3    H277987   6.716   2.781  14.395  0.4639  0.0972 -0.5526
18858TIP3   OH277988   5.518   3.405   1.871  0.1631  0.0640  0.2991
18858TIP3    H177989   5.550   3.318   1.894 -1.5086 -0.8593 -0.6373
18858TIP3    H277990   5.445   3.420   1.931  1.6412  1.7360  1.8024
18859TIP3   OH277991   6.535   5.354  16.446  0.7042 -0.1378  0.1817
18859TIP3    H177992   6.565   5.298  16.375 -3.6351 -1.1069 -1.1830
18859TIP3    H277993   6.534   5.296  16.523 -0.3434 -0.9548 -0.4161
18860TIP3   OH277994   6.134   2.962   2.545  0.5356  0.4529  0.5143
18860TIP3    H177995   6.128   3.053   2.515 -1.3892  0.7631  1.6889
18860TIP3    H277996   6.044   2.934   2.557  1.1310 -1.0477  1.8701
18861TIP3   OH277997   2.351   5.710  11.264 -0.8030 -0.1626 -0.7512
18861TIP3    H177998   2.352   5.631  11.317 -0.0298 -0.3831 -1.0791
18861TIP3    H277999   2.423   5.698  11.201  0.7245  1.6937  0.5143
18862TIP3   OH278000   6.666   2.519   5.830 -0.3006  0.3924  0.2253
18862TIP3    H178001   6.706   2.458   5.893  0.4949 -1.8799 -2.3043
18862TIP3    H278002   6.574   2.491   5.826 -0.1677  0.0116 -0.1955
18863TIP3   OH278003   6.504   5.728   3.948  0.7211  0.1684  0.4547
18863TIP3    H178004   6.580   5.781   3.974  2.2069 -2.1164  1.0821
18863TIP3    H278005   6.434   5.756   4.006  1.4557  1.4064  0.7848
18864TIP3   OH278006   3.033   6.589  13.143 -0.1584 -0.9175  0.9896
18864TIP3    H178007   3.075   6.589  13.229 -1.6977 -0.2955  1.7831
18864TIP3    H278008   2.947   6.629  13.158  0.7751  2.4734 -1.4649
18865TIP3   OH278009   5.439   3.325  11.604  0.3366 -0.0440  0.0540
18865TIP3    H178010   5.372   3.389  11.627 -0.5749 -0.8414 -0.3197
18865TIP3    H278011   5.421   3.250  11.661  2.5214  0.6735  1.8186
18866TIP3   OH278012   5.724   4.814  12.162 -0.0859  0.3430 -0.2200
18866TIP3    H178013   5.798   4.800  12.221 -0.6875  0.4484  0.5627
18866TIP3    H278014   5.654   4.760  12.198 -0.1558 -0.4238 -1.4313
18867TIP3   OH278015   0.825   1.723  12.274  0.1408 -0.5194  0.3039
18867TIP3    H178016   0.748   1.780  12.272 -0.2179 -1.0051 -1.8991
18867TIP3    H278017   0.793   1.637  12.247  1.2189 -1.0564  0.6582
18868TIP3   OH278018   2.320   5.575  14.231 -0.9389 -0.1239  0.0013
18868TIP3    H178019   2.361   5.648  14.185 -0.3999 -0.5302 -0.1813
18868TIP3    H278020   2.236   5.609  14.261 -0.4333  0.7448  0.4485
18869TIP3   OH278021   6.808   1.132  16.479  0.3984  0.2414  0.0909
18869TIP3    H178022   6.877   1.108  16.541 -0.5287 -0.3862  0.8975
18869TIP3    H278023   6.812   1.065  16.411  1.0600  0.6288 -0.2694
18870TIP3   OH278024   3.614   4.351   6.047 -0.0549 -0.0360 -0.2634
18870TIP3    H178025   3.569   4.435   6.045  0.3255  0.1875  0.2531
18870TIP3    H278026   3.646   4.343   6.137 -0.1530 -0.7672 -0.2854
18871TIP3   OH278027   4.936   4.296   4.802  0.5989 -0.4585 -0.3598
18871TIP3    H178028   5.024   4.331   4.815  0.0342  1.3387 -1.0996
18871TIP3    H278029   4.940   4.250   4.718  0.0639  2.5999 -2.2058
18872TIP3   OH278030   1.940   3.390  12.401 -0.5503  0.2338  0.1153
18872TIP3    H178031   1.902   3.350  12.479 -0.8874  0.6199  0.1541
18872TIP3    H278032   1.901   3.340  12.328  1.7750 -1.9134  0.2079
18873TIP3   OH278033   2.090   2.799  16.560  0.3869  0.3224  0.3625
18873TIP3    H178034   2.011   2.828  16.605 -0.0655 -0.7492  0.2976
18873TIP3    H278035   2.160   2.811  16.623 -0.0374  0.0841  0.8861
18874TIP3   OH278036   0.472   3.886   0.226  0.1674 -0.3380 -0.4142
18874TIP3    H178037   0.393   3.842   0.196 -0.3997 -0.7208  1.5136
18874TIP3    H278038   0.441   3.956   0.283  1.1881 -0.3820  0.2357
18875TIP3   OH278039   3.098   4.545   1.270 -0.3999  0.0269 -0.3773
18875TIP3    H178040   3.066   4.455   1.273 -0.7443  0.1701  0.2635
18875TIP3    H278041   3.035   4.595   1.321  1.2793  0.1816  1.6506
18876TIP3   OH278042   1.348   3.742  15.484 -0.5483  0.1244  0.4227
18876TIP3    H178043   1.335   3.700  15.399 -0.8684 -1.0074  1.0026
18876TIP3    H278044   1.278   3.807  15.490 -0.3096  0.4651 -0.3157
18877TIP3   OH278045   6.328   5.090   1.534  0.2770 -0.6635  0.4855
18877TIP3    H178046   6.405   5.143   1.554  1.6381 -2.7803  1.1216
18877TIP3    H278047   6.287   5.075   1.620 -1.9180  1.8292  0.0188
18878TIP3   OH278048   0.034   4.847  13.487  0.1197 -0.0637  0.0366
18878TIP3    H178049  -0.001   4.758  13.476  0.2997 -0.1468  0.1117
18878TIP3    H278050   0.094   4.839  13.562 -1.2008  0.5139  1.1958
18879TIP3   OH278051   6.056   2.948   4.727  0.2116  0.2781  0.5772
18879TIP3    H178052   6.012   2.956   4.642  4.3734 -2.3921 -2.2062
18879TIP3    H278053   6.103   3.031   4.737 -1.7577  1.3636  1.3655
18880TIP3   OH278054   4.999   5.047  10.825 -0.4068  0.0340  0.4525
18880TIP3    H178055   5.020   4.994  10.749 -0.7054  0.9612 -0.2993
18880TIP3    H278056   4.973   5.132  10.789  1.4275  1.1798  1.6549
18881TIP3   OH278057   0.111   2.039  12.861 -0.0775  0.0692 -0.1353
18881TIP3    H178058   0.139   2.072  12.947  0.0227 -0.3455 -0.0081
18881TIP3    H278059   0.192   2.031  12.811 -0.0509 -0.4277 -0.0120
18882TIP3   OH278060   6.694   0.473   5.648 -0.6896  0.4229  0.3585
18882TIP3    H178061   6.702   0.408   5.578 -2.5479  0.9593 -0.4229
18882TIP3    H278062   6.708   0.424   5.729 -0.5592 -0.6337 -0.2910
18883TIP3   OH278063   5.398   6.120   5.750  0.4628  0.1820 -0.2066
18883TIP3    H178064   5.457   6.070   5.807 -1.0891 -0.6180  0.7927
18883TIP3    H278065   5.425   6.211   5.762  1.8418 -0.1918 -0.2312
18884TIP3   OH278066   1.343   0.698   3.109  0.3775 -0.2974  0.0244
18884TIP3    H178067   1.411   0.691   3.176  0.6485 -0.6445 -0.2811
18884TIP3    H278068   1.292   0.618   3.117  1.5816 -1.2789 -1.4240
18885TIP3   OH278069   5.186   0.472  11.426 -0.0295  0.3564 -0.3341
18885TIP3    H178070   5.128   0.418  11.373 -0.7045 -0.1865  0.9191
18885TIP3    H278071   5.198   0.423  11.507 -1.1348  2.3083  1.1048
18886TIP3   OH278072   5.812   3.664   2.712 -0.1259 -0.2138 -0.0689
18886TIP3    H178073   5.791   3.757   2.723  1.6357  0.2390 -0.2717
18886TIP3    H278074   5.791   3.625   2.797  1.1782  0.8070  0.7644
18887TIP3   OH278075   6.099   1.399   2.541  0.1427 -0.4733  0.1883
18887TIP3    H178076   6.089   1.440   2.627 -0.2991  1.1508 -0.5944
18887TIP3    H278077   6.058   1.461   2.480 -0.1388 -1.8866 -1.1272
18888TIP3   OH278078   2.968   5.673   4.402 -0.2538  0.1938 -0.1226
18888TIP3    H178079   2.929   5.737   4.463  0.8712 -0.5501  1.4326
18888TIP3    H278080   3.054   5.710   4.381 -0.8829  0.7850 -1.8834
18889TIP3   OH278081   3.750   5.893   2.626  0.0831 -0.2418 -0.0026
18889TIP3    H178082   3.779   5.811   2.586  0.3580 -0.9862  1.6473
18889TIP3    H278083   3.700   5.865   2.703  0.4771  1.1295  0.7778
18890TIP3   OH278084   5.633   5.484  10.664  0.4767  0.5013  0.0192
18890TIP3    H178085   5.691   5.428  10.716 -0.0050 -0.9388 -0.9534
18890TIP3    H278086   5.605   5.552  10.726 -0.8397 -1.6928  1.9750
18891TIP3   OH278087   3.452   1.450   2.587  0.0699  0.4317  0.2073
18891TIP3    H178088   3.399   1.509   2.533 -0.3725 -0.0866  0.0646
18891TIP3    H278089   3.435   1.478   2.677  0.8412  1.3265  0.0987
18892TIP3   OH278090   2.727   1.286   1.107  0.2325 -0.1213 -0.2239
18892TIP3    H178091   2.821   1.289   1.090  0.2241  2.3760 -0.2054
18892TIP3    H278092   2.719   1.249   1.195  1.3364  1.0115  0.3855
18893TIP3   OH278093   4.419   0.635   5.319  0.7928 -0.4439 -0.0537
18893TIP3    H178094   4.373   0.677   5.247  2.1747 -0.2946 -0.8870
18893TIP3    H278095   4.425   0.543   5.293  0.5008 -0.5649  0.3005
18894TIP3   OH278096   1.471   4.908  15.605 -0.6868  0.2307 -0.2522
18894TIP3    H178097   1.405   4.976  15.620 -1.7743 -0.6341 -0.9611
18894TIP3    H278098   1.502   4.925  15.516  0.4748  0.9632  0.2703
18895TIP3   OH278099   2.576   4.461  13.792 -0.0315 -0.4426 -0.5143
18895TIP3    H178100   2.488   4.462  13.829  0.5590  1.3058  1.0202
18895TIP3    H278101   2.630   4.423  13.862  0.6154 -0.3619 -0.9657
18896TIP3   OH278102   2.153   5.540   1.845 -0.1107  0.6472  0.0844
18896TIP3    H178103   2.228   5.599   1.836  0.4749  0.6479  3.5157
18896TIP3    H278104   2.181   5.458   1.805  1.1771  1.1001  0.0369
18897TIP3   OH278105   5.037   1.162  16.058  0.5299 -0.4902  0.1588
18897TIP3    H178106   5.018   1.135  16.149 -1.0833 -0.6972 -0.2015
18897TIP3    H278107   5.116   1.114  16.035  1.0149 -0.3745  1.4839
18898TIP3   OH278108   0.799   4.247   5.634  0.2198 -0.1777 -0.3849
18898TIP3    H178109   0.813   4.339   5.612 -1.1880  0.4675  1.1887
18898TIP3    H278110   0.849   4.198   5.568 -0.5000  1.6653 -2.4045
18899TIP3   OH278111   2.193   5.535   4.229 -0.1567  0.2542 -0.0416
18899TIP3    H178112   2.174   5.469   4.161  1.3896  1.0538 -1.3165
18899TIP3    H278113   2.275   5.575   4.201 -0.3074  1.7373  1.4859
18900TIP3   OH278114   6.010   5.218   3.236 -0.4428  0.3845 -0.1051
18900TIP3    H178115   6.046   5.222   3.147 -2.0694 -0.1043 -0.8146
18900TIP3    H278116   5.995   5.309   3.260 -1.2115  0.4740 -0.8694
18901TIP3   OH278117   1.823   5.699   2.006 -0.2368  0.3248  0.1307
18901TIP3    H178118   1.762   5.703   2.079  1.9587 -1.8112  2.2583
18901TIP3    H278119   1.802   5.615   1.963 -0.3965  0.7696 -0.6745
18902TIP3   OH278120   1.756   3.107   4.669 -0.7677  0.5517  0.4296
18902TIP3    H178121   1.748   3.201   4.652 -0.5518  0.2359 -1.7035
18902TIP3    H278122   1.737   3.066   4.585 -2.9002 -1.4505  1.7854
18903TIP3   OH278123   6.537   1.292   3.122 -0.1048  0.4122  0.7286
18903TIP3    H178124   6.578   1.292   3.035  0.2671  0.2059  0.9013
18903TIP3    H278125   6.445   1.312   3.105 -0.9648 -3.4052 -0.1941
18904TIP3   OH278126   3.066   4.800  14.729  0.0678 -0.1284 -0.2101
18904TIP3    H178127   3.054   4.809  14.824  0.3984 -2.0902  0.0699
18904TIP3    H278128   2.978   4.810  14.693 -0.7542 -2.9510  0.7139
18905TIP3   OH278129   2.384   2.156  15.080 -0.1774  0.1060 -0.8008
18905TIP3    H178130   2.319   2.155  15.149  0.7319 -0.5400  0.0782
18905TIP3    H278131   2.333   2.154  14.999 -1.2383 -0.3550 -0.1421
18906TIP3   OH278132   1.524   3.959   5.656 -0.0737  0.9768 -0.1351
18906TIP3    H178133   1.508   3.957   5.750  1.3447  1.1569  0.1302
18906TIP3    H278134   1.616   3.934   5.647  0.0120  1.6785 -1.4090
18907TIP3   OH278135   5.299   3.827   0.075  0.2843  0.3951 -0.5704
18907TIP3    H178136   5.219   3.774   0.077  0.4280  0.0730  2.8758
18907TIP3    H278137   5.268   3.917   0.073 -0.2473  0.2764  0.7695
18908TIP3   OH278138   5.056   5.462   4.979 -0.0947  0.0970 -0.3247
18908TIP3    H178139   5.147   5.432   4.980 -0.4815 -1.1562 -0.1003
18908TIP3    H278140   5.008   5.388   4.943 -1.1469  0.3732  0.4770
18909TIP3   OH278141   1.650   4.024   3.092  0.5140 -0.0399  0.2555
18909TIP3    H178142   1.686   3.990   3.010  2.3209  0.1504  0.9166
18909TIP3    H278143   1.557   4.036   3.074  0.8970  0.2428 -1.8424
18910TIP3   OH278144   4.176   5.989  16.616 -0.2223 -0.4018  0.2356
18910TIP3    H178145   4.183   5.916  16.678  0.3999  0.4218  1.1608
18910TIP3    H278146   4.248   5.975  16.554 -0.8111 -1.1968 -0.2967
18911TIP3   OH278147   4.332   4.529   0.327  0.5710 -0.4167 -0.3464
18911TIP3    H178148   4.327   4.433   0.336  0.8825 -0.4511 -0.5349
18911TIP3    H278149   4.270   4.562   0.392 -0.5453 -0.7765 -1.2140
18912TIP3   OH278150   2.774   3.211  16.140  0.5680  0.2863 -0.2173
18912TIP3    H178151   2.854   3.220  16.089  1.0424 -2.1282 -0.0253
18912TIP3    H278152   2.704   3.213  16.076  1.1069 -1.8995 -0.9668
18913TIP3   OH278153   2.371   0.420   1.959 -0.0475 -0.2739  0.4747
18913TIP3    H178154   2.448   0.475   1.974  1.3399 -2.6039  2.5335
18913TIP3    H278155   2.297   0.476   1.985  0.9830  1.5869 -0.3679
18914TIP3   OH278156   5.367   5.572  16.354  0.2920  0.1665  0.0109
18914TIP3    H178157   5.333   5.503  16.298  2.0535 -0.8012  0.0433
18914TIP3    H278158   5.291   5.606  16.401 -0.8958 -0.4159 -1.4277
18915TIP3   OH278159   0.182   1.774   1.942 -0.3113 -0.0345  0.4164
18915TIP3    H178160   0.231   1.852   1.915 -1.4582  0.2758 -0.8793
18915TIP3    H278161   0.201   1.765   2.035  1.7102  0.4092  0.0969
18916TIP3   OH278162   0.689   0.456   3.748 -0.1039  0.9255 -0.2101
18916TIP3    H178163   0.677   0.539   3.794 -1.4386  1.1557 -0.9163
18916TIP3    H278164   0.602   0.435   3.713  0.0790 -1.0340  0.3832
18917TIP3   OH278165   6.086   2.936  11.353  0.2752 -0.0658  0.3349
18917TIP3    H178166   6.153   2.993  11.315  1.2953 -0.6197  1.2607
18917TIP3    H278167   6.135   2.866  11.396 -0.9464 -1.4813 -0.4860
18918TIP3   OH278168   4.301   2.640   3.082 -0.0701  0.2929 -0.2533
18918TIP3    H178169   4.267   2.610   3.166  0.0376 -0.4069 -0.4544
18918TIP3    H278170   4.350   2.720   3.103  1.5889 -0.8978  0.6539
18919TIP3   OH278171   6.186   2.464   2.233 -0.2664  0.3155 -0.2802
18919TIP3    H178172   6.276   2.488   2.215  0.2037 -1.7898 -1.0835
18919TIP3    H278173   6.183   2.449   2.328  0.1298  0.7117 -0.2047
18920TIP3   OH278174   1.291   6.736  16.784 -0.0770  0.3455 -0.0067
18920TIP3    H178175   1.280   6.740  16.689 -1.1838  0.4029  0.1058
18920TIP3    H278176   1.256   6.820  16.816 -0.1048  0.1519  0.4826
18921TIP3   OH278177   5.454   3.993  10.996  0.7254  0.2410  0.2006
18921TIP3    H178178   5.369   3.949  11.004  1.4007 -1.5640 -1.5337
18921TIP3    H278179   5.508   3.952  11.064  0.2824  1.2714  1.1953
18922TIP3   OH278180   3.898   4.572   4.182  0.4540  0.2158 -0.1062
18922TIP3    H178181   3.942   4.639   4.130 -0.8928  0.7592 -0.5920
18922TIP3    H278182   3.925   4.489   4.142  1.3536  0.5035 -0.1213
18923TIP3   OH278183   6.025   3.716  10.744  0.4810  0.3316 -0.0056
18923TIP3    H178184   6.030   3.789  10.805 -1.2596  0.3686  0.1427
18923TIP3    H278185   5.967   3.653  10.786 -1.5996  0.7855 -1.9805
18924TIP3   OH278186   5.341   3.371   0.678  0.3435 -0.2502  0.3012
18924TIP3    H178187   5.254   3.370   0.640  0.6256  1.0159 -0.4430
18924TIP3    H278188   5.381   3.451   0.645  1.8652 -0.8999  0.4613
18925TIP3   OH278189   5.116   5.560  15.628 -0.4844 -0.2813 -0.6088
18925TIP3    H178190   5.080   5.645  15.602 -0.2122  0.0249 -0.0116
18925TIP3    H278191   5.208   5.564  15.602  0.0507  0.4187  1.2102
18926TIP3   OH278192   0.200   5.209   5.612  0.0488 -0.7015  0.1128
18926TIP3    H178193   0.217   5.120   5.642  0.3938 -0.6002  0.2213
18926TIP3    H278194   0.269   5.261   5.651  0.4490 -0.5522 -0.7657
18927TIP3   OH278195   6.669   0.052   2.224 -0.0154  0.3038  0.0111
18927TIP3    H178196   6.601  -0.010   2.198 -0.2002 -0.5491  2.2792
18927TIP3    H278197   6.626   0.109   2.288  0.8896  1.0042  0.0040
18928TIP3   OH278198   0.638   2.095  12.662  0.9034  0.0526 -0.0288
18928TIP3    H178199   0.711   2.055  12.709  1.5918 -0.8274 -1.7552
18928TIP3    H278200   0.665   2.185  12.647  0.8866  0.2028  0.8113
18929TIP3   OH278201   0.068   6.307   4.803  0.2301  0.8520 -0.6626
18929TIP3    H178202   0.124   6.249   4.854  0.1761 -0.2557 -1.8245
18929TIP3    H278203   0.099   6.395   4.823  1.6281  0.3164 -0.4033
18930TIP3   OH278204   1.054   4.661  16.312 -0.0914  0.1378 -0.2401
18930TIP3    H178205   0.970   4.627  16.282  1.8170 -2.6382 -3.0427
18930TIP3    H278206   1.098   4.690  16.232  2.7410 -1.3163  0.6555
18931TIP3   OH278207   0.226   2.216   5.975  0.5373  0.2521  0.1456
18931TIP3    H178208   0.199   2.144   5.918 -0.6046  1.2597 -0.6393
18931TIP3    H278209   0.202   2.295   5.927 -0.3638  1.1449  1.9701
18932TIP3   OH278210   0.744   1.318   5.579 -0.2878 -0.4102  0.4416
18932TIP3    H178211   0.726   1.270   5.498 -0.0761 -0.3765  0.3729
18932TIP3    H278212   0.773   1.404   5.549  4.0399 -1.6641  0.3265
18933TIP3   OH278213   0.612   3.565   2.533 -0.2108  0.1788  0.0383
18933TIP3    H178214   0.624   3.526   2.620  0.7988 -1.1923 -0.6735
18933TIP3    H278215   0.625   3.492   2.473 -1.1526  1.0551 -1.2684
18934TIP3   OH278216   2.925   0.411   1.201  0.0670  0.0537  0.0696
18934TIP3    H178217   2.912   0.490   1.254  0.3366 -0.0396  0.2733
18934TIP3    H278218   2.841   0.366   1.204 -0.6300  1.1594 -1.4072
18935TIP3   OH278219   2.041   2.061   4.859  0.1891 -0.3442 -0.3231
18935TIP3    H178220   1.947   2.078   4.872  0.4585  1.5305 -0.5707
18935TIP3    H278221   2.076   2.051   4.948  0.1446  1.5041 -0.0440
18936TIP3   OH278222   3.418   0.026   4.237  0.0404  0.1992 -0.5561
18936TIP3    H178223   3.428  -0.064   4.206  0.3457 -0.7088  1.9416
18936TIP3    H278224   3.363   0.069   4.170 -2.3099 -2.5608 -0.5797
18937TIP3   OH278225   0.391   0.927  14.865 -0.6988  0.1916  0.0997
18937TIP3    H178226   0.405   0.833  14.878  0.5168  0.4056  0.3932
18937TIP3    H278227   0.473   0.960  14.830 -0.8946  1.2616  0.5988
18938TIP3   OH278228   1.412   4.436  12.833  0.0339 -0.0803 -0.0689
18938TIP3    H178229   1.507   4.426  12.833  0.1065 -0.0811  2.3712
18938TIP3    H278230   1.381   4.368  12.774  1.4737 -1.8735  1.1131
18939TIP3   OH278231   1.902   4.160  12.675 -0.2277 -0.3089 -0.0473
18939TIP3    H178232   1.902   4.233  12.613 -0.0887  0.5739  0.9478
18939TIP3    H278233   1.810   4.152  12.701 -0.2695 -0.6056 -0.2900
18940TIP3   OH278234   2.204   3.386   1.101 -0.8365  0.2411 -0.3138
18940TIP3    H178235   2.209   3.436   1.019  0.3361 -0.5809 -0.7615
18940TIP3    H278236   2.258   3.436   1.163  0.6942 -0.6605 -0.8826
18941TIP3   OH278237   6.634   0.897  16.653  0.3006 -0.0489  0.1902
18941TIP3    H178238   6.577   0.884  16.577  0.3713  0.7288 -0.0009
18941TIP3    H278239   6.701   0.958  16.623  1.1794 -0.8717  0.4441
18942TIP3   OH278240   6.430   0.942   6.027 -0.0936  0.3975  0.4101
18942TIP3    H178241   6.434   0.905   6.115  0.3717  0.6538  0.4983
18942TIP3    H278242   6.359   1.007   6.031  0.0577  0.5476  0.6498
18943TIP3   OH278243   0.926   3.203  11.431  0.2427  0.5616 -0.2111
18943TIP3    H178244   0.990   3.234  11.366 -0.1213 -1.9109 -1.8886
18943TIP3    H278245   0.969   3.217  11.515  2.1269  0.8957 -1.1699
18944TIP3   OH278246   0.811   1.421   3.619  0.5179  0.1002 -0.5238
18944TIP3    H178247   0.765   1.417   3.703  2.3129  0.4306  0.5418
18944TIP3    H278248   0.893   1.374   3.635  0.5906 -0.4228 -2.3176
18945TIP3   OH278249   2.181   6.167  16.003  0.6401  0.1581 -0.0044
18945TIP3    H178250   2.192   6.238  15.940  1.1341  0.3359  0.2717
18945TIP3    H278251   2.099   6.186  16.048  0.7297  0.5184  0.0129
18946TIP3   OH278252   3.695   5.027  16.407  0.2875  0.0435  0.0632
18946TIP3    H178253   3.754   5.051  16.478 -0.0566 -0.3360  0.4811
18946TIP3    H278254   3.710   5.095  16.340 -0.1925  1.0522  0.9421
18947TIP3   OH278255   2.075   3.384   0.103  0.0779  0.0848  0.4466
18947TIP3    H178256   1.989   3.396   0.063  0.1677  0.1998  0.2838
18947TIP3    H278257   2.078   3.447   0.174 -0.7465 -1.2898  1.7511
18948TIP3   OH278258   1.924   2.677   0.692 -0.0235 -0.1430  0.1512
18948TIP3    H178259   2.011   2.671   0.651 -0.2682  0.0715 -0.4176
18948TIP3    H278260   1.869   2.620   0.638 -0.2495 -0.2377  0.4800
18949TIP3   OH278261   0.166   2.302  12.737 -0.5387  0.0517  0.0725
18949TIP3    H178262   0.184   2.301  12.643 -2.4369 -1.0515 -0.3339
18949TIP3    H278263   0.122   2.219  12.755  2.1680 -1.0333  2.5070
18950TIP3   OH278264   4.147   5.924  14.837  0.0792 -0.0312 -0.1499
18950TIP3    H178265   4.178   6.014  14.832 -1.2785  0.4226 -0.7732
18950TIP3    H278266   4.141   5.896  14.746  1.8519 -1.2764  0.0526
18951TIP3   OH278267   2.113   1.532   1.285  0.0080  0.8867  0.3364
18951TIP3    H178268   2.144   1.446   1.257 -1.0157  0.3026  0.9378
18951TIP3    H278269   2.188   1.590   1.273  0.3617  0.1575 -1.1911
18952TIP3   OH278270   4.325   4.252   4.421 -1.0926  0.2528 -0.4451
18952TIP3    H178271   4.384   4.303   4.475 -0.0382 -0.2681 -1.0720
18952TIP3    H278272   4.261   4.216   4.482  1.9631 -3.0896  1.1243
18953TIP3   OH278273   4.754   4.370   3.790 -0.4218 -0.4498  0.2314
18953TIP3    H178274   4.797   4.382   3.706 -0.0866 -2.1650  0.1178
18953TIP3    H278275   4.756   4.457   3.831  0.9727  0.0294 -0.7910
18954TIP3   OH278276   5.726   4.162   3.499  0.0275 -0.6540 -0.1109
18954TIP3    H178277   5.735   4.067   3.511 -1.2589 -0.7301  0.4351
18954TIP3    H278278   5.762   4.199   3.580 -0.3272 -0.7302  0.0846
18955TIP3   OH278279   0.790   2.058  11.653  0.5818 -0.0239  0.1873
18955TIP3    H178280   0.816   1.980  11.605 -0.0286  0.9707 -1.9044
18955TIP3    H278281   0.845   2.128  11.616 -1.5417  1.2140 -0.8339
18956TIP3   OH278282   0.428   2.069   3.045 -0.3579  0.5507 -0.0003
18956TIP3    H178283   0.506   2.110   3.007  0.3544 -0.9062 -0.1701
18956TIP3    H278284   0.378   2.038   2.969  0.1587 -0.7381  0.1675
18957TIP3   OH278285   2.202   2.136  11.346 -1.1579 -0.3402  0.4400
18957TIP3    H178286   2.284   2.176  11.315 -1.3646  0.8295  1.3419
18957TIP3    H278287   2.202   2.049  11.306  0.3808 -0.2601  0.1783
18958TIP3   OH278288   1.057   5.687  13.706 -0.3685 -0.3653 -0.8728
18958TIP3    H178289   1.007   5.661  13.783  0.9814 -0.1417  0.1093
18958TIP3    H278290   1.146   5.657  13.724  1.1838  4.0606 -0.0108
18959TIP3   OH278291   3.433   6.609  11.770  0.4911  0.3017  0.5689
18959TIP3    H178292   3.439   6.529  11.717  0.5509  0.8069 -0.1988
18959TIP3    H278293   3.523   6.641  11.775  0.3242  0.8526  0.0491
18960TIP3   OH278294   0.868   5.053  12.603 -0.2659  0.2903 -0.5810
18960TIP3    H178295   0.778   5.019  12.601 -0.0677 -0.1971 -1.4320
18960TIP3    H278296   0.868   5.113  12.678 -0.8586 -0.9151  0.4311
18961TIP3   OH278297   5.763   5.645  15.333 -0.3221  0.6153  1.0117
18961TIP3    H178298   5.670   5.668  15.326 -0.2478  0.3757 -1.7231
18961TIP3    H278299   5.767   5.553  15.307  0.7323  0.7162  0.7958
18962TIP3   OH278300   0.772   2.864  10.672 -0.0511 -0.1882  0.1118
18962TIP3    H178301   0.772   2.959  10.665 -2.7342 -0.1353 -0.1597
18962TIP3    H278302   0.813   2.833  10.592 -1.2461  0.7486 -0.8879
18963TIP3   OH278303   3.853   0.060   1.210  0.2770  0.1945 -0.2213
18963TIP3    H178304   3.856   0.074   1.116  0.8759  0.3170 -0.1869
18963TIP3    H278305   3.787   0.122   1.242  1.5093  1.6082 -0.3079
18964TIP3   OH278306   5.070   6.522  12.079  0.1108  0.2921  0.0570
18964TIP3    H178307   5.029   6.605  12.105  1.8791  1.4216 -0.5852
18964TIP3    H278308   5.140   6.509  12.144  0.5115 -0.1483 -0.4608
18965TIP3   OH278309   5.419   5.040   0.745 -0.7101  0.3644 -0.1255
18965TIP3    H178310   5.481   5.100   0.788 -0.4855  0.2764 -0.3270
18965TIP3    H278311   5.333   5.080   0.760 -0.5272  0.9608 -0.6104
18966TIP3   OH278312   4.857   5.077  12.974  0.0146 -0.1430 -0.1560
18966TIP3    H178313   4.910   5.142  12.927 -0.8297  1.0330  0.4685
18966TIP3    H278314   4.901   5.065  13.058  0.5070 -0.8635 -0.5043
18967TIP3   OH278315   6.056   5.423  12.649 -0.2329 -0.1860 -0.1184
18967TIP3    H178316   6.127   5.448  12.589  0.5196 -1.2366  0.3114
18967TIP3    H278317   6.026   5.506  12.686 -0.0011  0.3780 -1.1578
18968TIP3   OH278318   2.202   6.764  11.921  0.3096 -0.6422 -0.3692
18968TIP3    H178319   2.279   6.713  11.948  0.3654 -0.0513  0.6457
18968TIP3    H278320   2.144   6.761  11.997 -1.1495 -1.9385 -1.4821
18969TIP3   OH278321   5.362   6.147   2.750 -0.0151 -0.0781  0.0771
18969TIP3    H178322   5.310   6.090   2.694  0.7621  0.0217 -0.7814
18969TIP3    H278323   5.393   6.090   2.820 -1.4616 -0.0765  0.7529
18970TIP3   OH278324   0.433   5.344  15.523  0.2412 -0.1623 -0.0198
18970TIP3    H178325   0.400   5.395  15.449  0.0429 -0.2283  0.0206
18970TIP3    H278326   0.378   5.371  15.597  0.6373  0.1274  0.1732
18971TIP3   OH278327   4.286   3.656  15.192 -0.4212  0.0001  0.1298
18971TIP3    H178328   4.208   3.709  15.212 -0.5566  0.1122 -0.6302
18971TIP3    H278329   4.255   3.565  15.195 -0.2456 -0.0373  1.1964
18972TIP3   OH278330   4.096   0.447   4.429  0.4407  0.0286 -0.3347
18972TIP3    H178331   4.032   0.481   4.366 -0.1127  0.0715  0.2452
18972TIP3    H278332   4.175   0.434   4.377 -0.0225  0.0085 -1.0569
18973TIP3   OH278333   6.072   0.311  10.807 -0.3333  0.1136  0.0752
18973TIP3    H178334   6.078   0.360  10.725  0.8267 -3.1978 -2.0095
18973TIP3    H278335   6.008   0.242  10.789 -0.2161 -0.5650  2.0446
18974TIP3   OH278336   6.568   1.216  16.902 -0.2583 -0.1153  0.0459
18974TIP3    H178337   6.627   1.148  16.934 -0.8024  0.0944  1.5562
18974TIP3    H278338   6.560   1.278  16.974 -2.8497 -0.5042  0.2123
18975TIP3   OH278339   2.750   3.186  10.451  0.0567  0.1094  0.0582
18975TIP3    H178340   2.661   3.167  10.480  0.6975  1.1848  2.9934
18975TIP3    H278341   2.803   3.114  10.485  0.6464  0.6959  0.3938
18976TIP3   OH278342   0.172   0.438  12.994  0.3265 -0.2490  0.2030
18976TIP3    H178343   0.102   0.432  13.059  0.5521  0.0001  0.4786
18976TIP3    H278344   0.164   0.526  12.958 -0.9776 -1.0069 -1.4915
18977TIP3   OH278345   6.785   3.809  12.296  0.4613 -0.0237 -0.6008
18977TIP3    H178346   6.769   3.727  12.249 -0.3162 -1.3212  1.7866
18977TIP3    H278347   6.701   3.854  12.298  0.6437  0.3449 -0.9898
18978TIP3   OH278348   1.686   3.828  13.685  0.0138 -0.0494 -0.5211
18978TIP3    H178349   1.776   3.797  13.674  0.0630  0.6063 -2.2973
18978TIP3    H278350   1.672   3.828  13.779  1.5122 -1.1720 -0.2603
18979TIP3   OH278351   0.167   1.983  16.811  0.0073 -0.1717  0.5279
18979TIP3    H178352   0.108   1.909  16.794  2.0776 -1.5147 -1.4230
18979TIP3    H278353   0.221   1.955  16.885  0.0940 -0.1643  0.4670
18980TIP3   OH278354   4.896   5.292   1.211 -0.0829 -0.0302  0.4544
18980TIP3    H178355   4.901   5.215   1.153  0.6535  0.9785 -0.8719
18980TIP3    H278356   4.967   5.279   1.273  0.0399 -0.4184  0.2423
18981TIP3   OH278357   5.272   0.998  13.718 -1.0655  0.0483  0.0635
18981TIP3    H178358   5.257   0.969  13.808  1.7515 -1.2637  0.2152
18981TIP3    H278359   5.353   1.048  13.722  0.2448 -1.7311 -1.9943
18982TIP3   OH278360   5.260   6.800   2.863 -0.1908  0.4419  0.5120
18982TIP3    H178361   5.304   6.756   2.790  0.7192  1.2829  0.5333
18982TIP3    H278362   5.314   6.780   2.939 -0.9795 -0.1901  0.9140
18983TIP3   OH278363   0.438   1.532  11.898 -0.4916 -0.7160  0.8716
18983TIP3    H178364   0.486   1.468  11.844 -0.1628  0.8248 -0.7680
18983TIP3    H278365   0.505   1.568  11.956  0.3879  1.0525 -1.0594
18984TIP3   OH278366   1.035   3.877  13.780  0.4454  0.4298 -0.4888
18984TIP3    H178367   1.014   3.831  13.699 -2.0640  0.1386  0.2442
18984TIP3    H278368   1.122   3.913  13.765  3.4576 -5.6462 -0.6239
18985TIP3   OH278369   4.779   3.003  12.033  0.0120 -0.0919 -0.3830
18985TIP3    H178370   4.832   3.082  12.039  1.4088 -0.9482 -0.8116
18985TIP3    H278371   4.689   3.034  12.026  0.6134  1.4829 -1.7630
18986TIP3   OH278372   4.611   5.128  10.929 -0.0438  0.5031 -0.2276
18986TIP3    H178373   4.547   5.080  10.982  0.6564 -1.7284 -1.2548
18986TIP3    H278374   4.558   5.185  10.874 -0.8512  1.8907  1.8756
18987TIP3   OH278375   2.388   6.628   4.440  0.2165 -0.0671  0.1821
18987TIP3    H178376   2.293   6.629   4.451  0.2998  0.4020  0.9802
18987TIP3    H278377   2.408   6.539   4.410 -0.3552 -0.5791  1.2689
18988TIP3   OH278378   6.349   2.865   2.366 -0.1161  0.1270  0.2106
18988TIP3    H178379   6.401   2.818   2.431 -1.3338 -1.9840 -0.2496
18988TIP3    H278380   6.272   2.895   2.414 -1.4008 -2.1099 -0.3133
18989TIP3   OH278381   2.727   2.200  12.533  0.2886 -0.3347  0.1376
18989TIP3    H178382   2.682   2.259  12.471 -2.4995 -1.2681  1.1006
18989TIP3    H278383   2.772   2.259  12.593 -0.4815  0.7604 -0.3143
18990TIP3   OH278384   5.933   4.291   0.868 -0.0443  0.0133 -0.4509
18990TIP3    H178385   5.983   4.349   0.811  0.4971 -1.0938 -1.1261
18990TIP3    H278386   5.902   4.221   0.810  0.4211 -1.0764  0.5676
18991TIP3   OH278387   4.797   1.792  12.194  0.0177 -0.3447  0.0052
18991TIP3    H178388   4.830   1.703  12.209  1.2686 -0.1476 -1.3413
18991TIP3    H278389   4.827   1.814  12.106 -0.8610  1.1670  0.0523
18992TIP3   OH278390   2.019   2.303   2.085 -0.1249 -0.5300 -0.0911
18992TIP3    H178391   2.056   2.387   2.058  2.3021 -1.5844 -0.3265
18992TIP3    H278392   1.924   2.316   2.081  0.0962  1.2582 -3.2055
18993TIP3   OH278393   0.106   3.975  11.553  0.5992  0.2204  0.1154
18993TIP3    H178394   0.068   3.931  11.630  0.0819 -1.3943 -1.0071
18993TIP3    H278395   0.198   3.950  11.554  0.8182  0.9908  0.7076
18994TIP3   OH278396   4.849   5.772   3.164  0.4757 -0.6942 -0.3124
18994TIP3    H178397   4.895   5.811   3.239 -0.4477 -0.3871  0.1209
18994TIP3    H278398   4.900   5.799   3.088  1.4266 -0.9993  0.2002
18995TIP3   OH278399   4.288   0.282  14.069 -0.2116  0.2245 -0.2768
18995TIP3    H178400   4.349   0.265  14.140 -0.5779 -1.1692 -0.2663
18995TIP3    H278401   4.215   0.221  14.084 -0.7321  0.5576 -1.3217
18996TIP3   OH278402   3.377   1.002   1.297  0.3285 -0.4150 -0.1522
18996TIP3    H178403   3.383   0.948   1.376 -1.8499 -0.7477 -0.1540
18996TIP3    H278404   3.458   0.983   1.249 -0.1733 -3.4811 -0.0010
18997TIP3   OH278405   3.279   4.068   6.071 -0.1675 -0.0042  0.1884
18997TIP3    H178406   3.302   4.059   5.979 -0.0838  1.0622  0.1031
18997TIP3    H278407   3.362   4.088   6.115 -0.1665 -0.7180  0.5405
18998TIP3   OH278408   4.366   0.541  16.703  1.2318  0.2087  0.2110
18998TIP3    H178409   4.420   0.573  16.776  0.6398 -0.5690  1.0134
18998TIP3    H278410   4.398   0.589  16.627  1.0663  1.9658  1.1800
18999TIP3   OH278411   3.224   0.911   4.048  0.3475  0.1496 -0.4179
18999TIP3    H178412   3.219   0.826   4.093 -1.1706 -0.1575 -1.1394
18999TIP3    H278413   3.244   0.973   4.118  1.5412 -0.7801  0.1136
19000TIP3   OH278414   2.589   0.100  11.971  0.5895 -0.3839  0.1980
19000TIP3    H178415   2.536   0.075  11.896  0.2777 -1.2082  0.6745
19000TIP3    H278416   2.672   0.052  11.958  0.8869  0.1940 -0.0830
19001TIP3   OH278417   0.028   0.333  16.898  0.4964  0.0577  0.2083
19001TIP3    H178418   0.096   0.301  16.956  0.5356 -0.1199  0.0685
19001TIP3    H278419   0.052   0.423  16.879 -0.4815  0.7195  1.9066
19002TIP3   OH278420   0.453   6.170  16.667  0.4628  0.4103 -0.3711
19002TIP3    H178421   0.380   6.141  16.612  0.2062  0.7490 -0.2196
19002TIP3    H278422   0.445   6.118  16.747 -0.6062  1.5591  0.3183
19003TIP3   OH278423   0.481   1.419  16.793  0.6877 -0.4296  0.2671
19003TIP3    H178424   0.500   1.326  16.779 -1.0658 -0.5976 -1.3024
19003TIP3    H278425   0.502   1.461  16.710  0.8856  0.4946  0.7676
19004TIP3   OH278426   1.574   4.275   2.738  0.6971  0.0712  0.0045
19004TIP3    H178427   1.579   4.371   2.734 -1.1676  0.2979  1.5788
19004TIP3    H278428   1.662   4.247   2.761  0.9032  1.5506  1.1540
19005TIP3   OH278429   2.254   0.242   2.115 -0.5068 -0.2512 -0.3756
19005TIP3    H178430   2.271   0.157   2.073 -2.1151 -0.0401 -1.5539
19005TIP3    H278431   2.300   0.305   2.059  1.1123 -0.3474  0.7844
19006TIP3   OH278432   4.905   6.302  11.934  0.2400 -0.1963 -0.8522
19006TIP3    H178433   4.876   6.294  11.843 -0.2484  0.9913 -0.8176
19006TIP3    H278434   4.974   6.368  11.930 -0.4254  0.5544 -0.2435
19007TIP3   OH278435   3.283   0.057   2.892 -0.3014 -0.5070  0.3087
19007TIP3    H178436   3.297   0.152   2.887 -3.5812  0.0827  0.1457
19007TIP3    H278437   3.307   0.034   2.981 -2.1800  1.1134  1.3392
19008TIP3   OH278438   0.415   1.540  13.869 -0.2517  0.1929 -0.3928
19008TIP3    H178439   0.440   1.582  13.951  0.1212  1.0997 -0.9482
19008TIP3    H278440   0.442   1.602  13.801 -0.3088 -0.6555 -1.2158
19009TIP3   OH278441   5.918   6.192  12.089 -0.3063  0.4670 -0.7124
19009TIP3    H178442   5.863   6.226  12.019 -0.1140  0.0430 -1.0754
19009TIP3    H278443   5.881   6.229  12.169  0.6787  2.6116 -1.1654
19010TIP3   OH278444   1.934   3.179  14.835  0.0357 -0.2004 -0.3315
19010TIP3    H178445   1.855   3.194  14.887  0.3668  0.2453  0.0503
19010TIP3    H278446   1.928   3.086  14.810 -0.8657 -0.0368 -0.7587
19011TIP3   OH278447   5.553   5.200   0.231 -0.5930 -0.1986  0.6790
19011TIP3    H178448   5.499   5.124   0.209 -1.5194 -0.1042  2.4603
19011TIP3    H278449   5.643   5.166   0.227 -1.0050 -1.5947  1.9760
19012TIP3   OH278450   3.974   3.562  13.781  0.1502 -0.0722 -0.3355
19012TIP3    H178451   3.954   3.592  13.870  0.3011  0.1925 -0.3922
19012TIP3    H278452   3.896   3.584  13.730 -0.0376 -0.4483 -0.2176
19013TIP3   OH278453   1.867   5.059  10.703  0.8095  0.3008 -0.3745
19013TIP3    H178454   1.952   5.086  10.738  0.0659  1.7073  0.4301
19013TIP3    H278455   1.879   5.057  10.608  1.9756 -0.4089 -0.2297
19014TIP3   OH278456   1.186   3.518  14.903 -0.1498 -0.0678 -0.0452
19014TIP3    H178457   1.091   3.514  14.910 -0.5372  2.2222 -2.3335
19014TIP3    H278458   1.217   3.506  14.993 -2.6065 -0.1891  0.8765
19015TIP3   OH278459   0.725   5.066  11.960  0.1050 -0.2518 -0.3391
19015TIP3    H178460   0.650   5.007  11.961  0.5159 -0.8070  1.4449
19015TIP3    H278461   0.691   5.149  11.991  0.2206 -0.5156  0.5135
19016TIP3   OH278462   1.248   1.715  11.974  0.5362 -0.0126  0.0775
19016TIP3    H178463   1.265   1.765  12.053  0.5297  1.3009 -0.7241
19016TIP3    H278464   1.192   1.771  11.921  1.1022 -0.5634 -1.1590
19017TIP3   OH278465   0.668   1.425   1.812  0.0606 -0.2729 -0.0508
19017TIP3    H178466   0.585   1.381   1.790  0.5739 -2.2555  1.7510
19017TIP3    H278467   0.649   1.472   1.893  0.3067  0.5298 -0.4522
19018TIP3   OH278468   3.171   5.402   1.052  0.4725  0.1317 -0.2095
19018TIP3    H178469   3.197   5.490   1.026 -0.7479  0.3375 -0.7739
19018TIP3    H278470   3.238   5.375   1.115  2.7535  0.1448 -2.4764
19019TIP3   OH278471   3.636   3.453  12.019  0.2628  0.2325 -0.4351
19019TIP3    H178472   3.692   3.526  11.989  0.6006  0.4239  0.6102
19019TIP3    H278473   3.621   3.472  12.112 -1.3901  0.0718 -0.6536
19020TIP3   OH278474   6.423   0.634  15.810  0.2038  1.1568 -0.1627
19020TIP3    H178475   6.498   0.647  15.868  0.2996 -1.7927  0.5084
19020TIP3    H278476   6.355   0.690  15.847  1.1805  1.6384  0.9810
19021TIP3   OH278477   4.493   3.417  12.613 -0.1390  0.2721  0.2730
19021TIP3    H178478   4.586   3.440  12.611 -0.1223  0.2034  0.2408
19021TIP3    H278479   4.486   3.343  12.552  0.0987 -0.8342  1.5514
19022TIP3   OH278480   2.309   3.377  11.990  0.1216  0.3905  0.1824
19022TIP3    H178481   2.260   3.302  12.024 -2.4740  1.7859 -0.2673
19022TIP3    H278482   2.322   3.357  11.897 -0.4585  0.4559  0.0882
19023TIP3   OH278483   4.448   6.451  15.251 -0.9870  0.7140  0.3586
19023TIP3    H178484   4.531   6.498  15.247 -1.0228  0.7598 -3.5457
19023TIP3    H278485   4.384   6.518  15.273 -0.4043  1.4815 -0.2119
19024TIP3   OH278486   6.352   5.603  17.039 -0.6591  0.1147 -0.1394
19024TIP3    H178487   6.295   5.680  17.045 -0.1491  0.3819  1.8762
19024TIP3    H278488   6.441   5.639  17.035 -0.4087 -0.3641  0.9057
19025TIP3   OH278489   2.636   1.076   5.621 -0.0317  0.2192  0.2166
19025TIP3    H178490   2.574   1.117   5.562  0.8806  0.0195 -0.9056
19025TIP3    H278491   2.700   1.033   5.564  2.5349  2.4030  1.2214
19026TIP3   OH278492   2.723   5.277  13.439  0.2286 -0.6154  0.3547
19026TIP3    H178493   2.810   5.313  13.421 -0.1538 -0.6937 -1.9343
19026TIP3    H278494   2.718   5.274  13.534  0.6101  4.5789  0.8371
19027TIP3   OH278495   2.234   3.534  16.773  0.4209 -0.2990  0.2416
19027TIP3    H178496   2.301   3.599  16.790  0.5543 -0.5229  0.5801
19027TIP3    H278497   2.190   3.565  16.694 -0.1684  0.7112  0.9534
19028TIP3   OH278498   4.813   3.644   2.990 -0.5688  0.6218  0.1262
19028TIP3    H178499   4.854   3.569   3.033 -0.5065  0.2899 -0.4974
19028TIP3    H278500   4.871   3.717   3.008 -0.1709  0.3406  0.0070
19029TIP3   OH278501   0.719   0.936   0.593  0.2594  0.5209  0.3455
19029TIP3    H178502   0.809   0.925   0.625 -0.8837 -2.8957  2.8931
19029TIP3    H278503   0.709   0.869   0.526 -0.0649  1.7719 -0.9023
19030TIP3   OH278504   3.760   4.380   0.787 -1.0041 -0.2990 -0.0662
19030TIP3    H178505   3.774   4.448   0.720  0.0056 -2.1189 -1.8064
19030TIP3    H278506   3.807   4.412   0.864 -1.1616  1.2903 -0.5903
19031TIP3   OH278507   0.006   4.989   5.317 -0.0477 -0.0300 -0.1423
19031TIP3    H178508  -0.045   4.977   5.238 -0.7575  0.9389  0.1663
19031TIP3    H278509   0.048   5.074   5.307 -0.4324  0.2652  0.6771
19032TIP3   OH278510   5.362   1.792   6.007  0.5925 -0.3305 -0.1179
19032TIP3    H178511   5.347   1.815   5.916  0.2356 -0.1635 -0.0204
19032TIP3    H278512   5.442   1.839   6.031 -0.3501  1.2096  0.1988
19033TIP3   OH278513   2.072   1.539   0.085  0.2561  0.1968  0.0275
19033TIP3    H178514   2.091   1.454   0.125  0.2228  0.8530  1.5090
19033TIP3    H278515   2.147   1.558   0.030 -0.0334 -1.0842 -0.8281
19034TIP3   OH278516   3.688   4.189  13.564 -0.6349 -0.0409  0.4744
19034TIP3    H178517   3.594   4.169  13.569 -0.6446 -0.4147 -0.7553
19034TIP3    H278518   3.723   4.123  13.503 -0.1434  1.8805 -1.4643
19035TIP3   OH278519   4.348   6.506  14.325 -0.6777  0.4225 -0.6622
19035TIP3    H178520   4.306   6.520  14.240  0.3349 -1.2358 -1.4804
19035TIP3    H278521   4.336   6.413  14.343  0.1800  0.5045  0.4560
19036TIP3   OH278522   6.011   5.654  11.354  0.5250 -0.2403 -0.2209
19036TIP3    H178523   5.922   5.686  11.368  1.0539  0.8961  0.6585
19036TIP3    H278524   6.017   5.641  11.260 -1.2657 -2.4702 -0.1095
19037TIP3   OH278525   1.343   6.432   0.246  0.0832 -0.0933  0.5247
19037TIP3    H178526   1.267   6.489   0.259  0.9068  1.1991 -0.1597
19037TIP3    H278527   1.365   6.402   0.334 -1.8915 -1.4451  0.6281
19038TIP3   OH278528   2.078   2.552   1.905 -0.1959  0.1687 -0.2468
19038TIP3    H178529   1.987   2.558   1.873  0.5047 -0.0482 -2.4486
19038TIP3    H278530   2.123   2.625   1.861  0.4115  1.2449  2.0388
19039TIP3   OH278531   0.632   6.579   0.656  0.5445  1.2042 -0.1645
19039TIP3    H178532   0.558   6.525   0.682  0.4836 -0.6205 -3.5678
19039TIP3    H278533   0.708   6.534   0.693  0.2723  0.3822 -0.5780
19040TIP3   OH278534   5.184   5.350  14.759 -0.5896  0.1640  0.3937
19040TIP3    H178535   5.156   5.423  14.704  1.7915  0.9936  0.1649
19040TIP3    H278536   5.250   5.304  14.707 -0.3842 -0.7810  1.4403
19041TIP3   OH278537   2.290   3.522   6.234  0.4537 -0.6149 -0.1036
19041TIP3    H178538   2.361   3.471   6.273 -0.3006 -2.5388 -1.1285
19041TIP3    H278539   2.221   3.458   6.216 -0.4814  0.7453 -1.6199
19042TIP3   OH278540   4.503   2.164   1.643  0.3639  0.1013 -0.2654
19042TIP3    H178541   4.481   2.087   1.592  0.0316  0.6958 -1.0345
19042TIP3    H278542   4.564   2.214   1.588 -1.4024  1.6601 -0.9197
19043TIP3   OH278543   1.584   4.120  15.111  0.3349 -0.3905  0.3723
19043TIP3    H178544   1.523   4.101  15.182 -0.8595  1.3371 -0.1203
19043TIP3    H278545   1.629   4.200  15.139  0.1131  0.1017 -0.6119
19044TIP3   OH278546   5.402   0.015  11.040  0.0294  0.0541 -0.4763
19044TIP3    H178547   5.415   0.027  10.946 -0.2725  0.6094 -0.4516
19044TIP3    H278548   5.417   0.102  11.077 -0.0029 -0.1314 -0.0309
19045TIP3   OH278549   4.094   6.677   6.377  0.2014  0.8900  0.6532
19045TIP3    H178550   4.038   6.633   6.312 -0.7622  2.8456  0.0774
19045TIP3    H278551   4.183   6.660   6.347 -0.1999  0.9005 -0.6417
19046TIP3   OH278552   4.031   0.697  11.827  0.0709  0.2077 -0.1755
19046TIP3    H178553   4.100   0.655  11.879 -0.0867  1.3692  1.0301
19046TIP3    H278554   3.960   0.711  11.889 -0.6145  0.5109 -1.0153
19047TIP3   OH278555   0.453   5.152  13.452 -0.3503 -1.0412 -0.0652
19047TIP3    H178556   0.361   5.128  13.464 -0.3660 -1.0569 -0.2089
19047TIP3    H278557   0.451   5.244  13.425 -0.3421 -1.1198 -0.3414
19048TIP3   OH278558   4.260   1.497  14.241  0.0269  0.3949  0.2435
19048TIP3    H178559   4.317   1.566  14.274  0.0069 -0.0387  1.2098
19048TIP3    H278560   4.192   1.488  14.308 -0.2933 -0.1711 -0.1492
19049TIP3   OH278561   3.765   3.303   2.530  0.2115  0.2869  0.0765
19049TIP3    H178562   3.747   3.368   2.462 -0.5884  1.4091  1.3105
19049TIP3    H278563   3.724   3.339   2.609 -1.0798 -2.1439  0.6220
19050TIP3   OH278564   4.791   2.631  11.764  0.1522 -0.3827  0.1252
19050TIP3    H178565   4.815   2.631  11.857 -0.6895  0.4917  0.3721
19050TIP3    H278566   4.697   2.613  11.764 -0.2543  1.4936 -0.3956
19051TIP3   OH278567   5.777   0.646  16.067  0.2460  0.7414  0.2617
19051TIP3    H178568   5.835   0.570  16.077 -0.1058  0.6148  1.5356
19051TIP3    H278569   5.798   0.681  15.980 -0.6520 -1.7023 -1.0640
19052TIP3   OH278570   1.911   6.069   1.543  0.7778 -0.0759 -0.1657
19052TIP3    H178571   1.863   6.100   1.620  2.6955  2.2895  0.2282
19052TIP3    H278572   1.924   5.976   1.558 -3.0384 -0.7547 -0.0435
19053TIP3   OH278573   6.728   4.795  16.727  0.0278  0.4943 -0.6759
19053TIP3    H178574   6.698   4.883  16.746  1.4157  1.3819 -2.2481
19053TIP3    H278575   6.824   4.800  16.734  0.0578 -1.6026  1.8691
19054TIP3   OH278576   3.757   4.990   3.945 -0.3334 -0.5622 -0.2126
19054TIP3    H178577   3.740   4.924   3.877 -0.2140 -1.8860  1.0099
19054TIP3    H278578   3.755   4.942   4.027 -1.6919  1.2185  0.8707
19055TIP3   OH278579   1.940   5.417  16.026 -0.6921  0.2597  0.4369
19055TIP3    H178580   1.847   5.441  16.022 -0.7321  0.0637  0.1746
19055TIP3    H278581   1.945   5.333  15.979 -0.3843  0.2676  0.4560
19056TIP3   OH278582   2.739   2.121   1.118  0.1282 -0.1908  0.2577
19056TIP3    H178583   2.821   2.170   1.121  0.1659  0.0168 -2.2513
19056TIP3    H278584   2.676   2.177   1.164  0.7762  0.9719 -0.2413
19057TIP3   OH278585   5.621   1.172  12.469  0.0012 -0.1273 -0.1317
19057TIP3    H178586   5.545   1.197  12.417 -0.1697  0.4352  0.3733
19057TIP3    H278587   5.696   1.206  12.420 -0.1212 -0.0516 -0.2679
19058TIP3   OH278588   0.873   1.817  11.555  0.2007  0.0827 -0.4118
19058TIP3    H178589   0.865   1.722  11.546 -0.7913  0.3116 -2.3343
19058TIP3    H278590   0.941   1.842  11.493 -1.4706  0.8868 -2.0119
19059TIP3   OH278591   4.100   6.259  16.640 -0.4137 -0.5312  0.1802
19059TIP3    H178592   4.123   6.171  16.610 -0.6747 -0.6267  0.2533
19059TIP3    H278593   4.111   6.255  16.735 -1.4503 -0.8022  0.2976
19060TIP3   OH278594   0.916   0.836  15.552 -0.2734  0.6733  0.3008
19060TIP3    H178595   0.938   0.753  15.508 -0.1959  1.4819 -1.2348
19060TIP3    H278596   0.904   0.811  15.644  0.4255 -0.9298 -0.0019
19061TIP3   OH278597   1.202   3.347  15.210  0.2414 -0.0135 -0.0980
19061TIP3    H178598   1.110   3.339  15.188 -0.3231  2.7106  0.8746
19061TIP3    H278599   1.244   3.274  15.165 -2.6638 -2.9567  1.4882
19062TIP3   OH278600   3.117   4.490   5.209 -0.1051  0.0299 -0.9615
19062TIP3    H178601   3.136   4.519   5.298 -2.5215  2.2798 -1.0515
19062TIP3    H278602   3.179   4.537   5.154  1.8676 -1.9019 -0.4996
19063TIP3   OH278603   3.424   3.042   5.021  0.0626  0.3306  0.5597
19063TIP3    H178604   3.425   2.974   5.087 -0.4880  0.5330  0.7867
19063TIP3    H278605   3.467   3.117   5.062 -0.7216  0.6190  0.8829
19064TIP3   OH278606   4.050   5.388  14.756  0.0103 -0.4389 -0.9311
19064TIP3    H178607   4.131   5.419  14.716 -1.2307  0.1976 -3.1701
19064TIP3    H278608   4.037   5.300  14.719 -0.4236 -0.4540 -0.7504
19065TIP3   OH278609   5.615   2.305  13.784  0.0015  0.2478  0.5038
19065TIP3    H178610   5.594   2.262  13.867 -0.7689  2.8997  1.7703
19065TIP3    H278611   5.646   2.392  13.808 -2.9921  2.2347 -2.0203
19066TIP3   OH278612   6.774   4.325  11.152  0.5933 -0.0679 -0.5575
19066TIP3    H178613   6.721   4.306  11.229  0.7518 -0.7576 -0.6185
19066TIP3    H278614   6.798   4.417  11.163 -2.7796  1.1310 -1.8590
19067TIP3   OH278615   1.362   2.886   5.021 -0.7031  0.1371 -0.0960
19067TIP3    H178616   1.391   2.944   5.091 -0.0129  1.5316 -1.4775
19067TIP3    H278617   1.413   2.912   4.945 -1.1992 -1.5407 -1.0723
19068TIP3   OH278618   4.944   1.432   1.942 -0.0969  0.4903 -0.1110
19068TIP3    H178619   4.937   1.351   1.891 -1.6068  0.0736  0.7105
19068TIP3    H278620   4.914   1.500   1.882  0.6535  0.3908 -0.6203
19069TIP3   OH278621   3.734   1.986  11.558  0.0245  0.4593 -0.3018
19069TIP3    H178622   3.777   2.062  11.598 -0.9036  0.5133  0.6481
19069TIP3    H278623   3.802   1.944  11.506  1.3312  0.3017  1.4688
19070TIP3   OH278624   2.708   6.163  14.860  0.4242  0.0829  0.1578
19070TIP3    H178625   2.687   6.188  14.950  3.5998  3.6321  0.1601
19070TIP3    H278626   2.658   6.224  14.806 -0.1314 -0.8738 -0.4206
19071TIP3   OH278627   4.107   5.645  11.291  0.4290 -0.4645 -0.6100
19071TIP3    H178628   4.075   5.636  11.381  1.0270 -0.6455 -0.4107
19071TIP3    H278629   4.197   5.676  11.301  0.3686 -0.0958 -1.1584
19072TIP3   OH278630   5.093   3.717  12.705 -0.1733  0.3312 -0.6099
19072TIP3    H178631   5.175   3.706  12.752  0.6697  3.8571 -0.9485
19072TIP3    H278632   5.025   3.706  12.772  0.7320  0.3431  0.3298
19073TIP3   OH278633   1.557   6.696  11.199 -0.0064 -0.1062  0.3536
19073TIP3    H178634   1.604   6.735  11.272 -0.2059 -0.1971  0.5323
19073TIP3    H278635   1.579   6.750  11.124  2.1494 -1.3954 -0.0315
19074TIP3   OH278636   0.107   3.755  13.744 -0.1221 -0.0971 -0.7159
19074TIP3    H178637   0.086   3.818  13.675  1.1841 -0.2076 -1.2472
19074TIP3    H278638   0.063   3.789  13.822 -0.8234  0.5519 -1.3804
19075TIP3   OH278639   0.912   5.340  11.225  0.3810  0.1122 -0.0435
19075TIP3    H178640   0.920   5.279  11.151  0.5930  0.9456 -0.7312
19075TIP3    H278641   0.947   5.423  11.191 -2.6063  1.4673 -0.1717
19076TIP3   OH278642   5.452   4.339   2.892 -0.1352 -0.3214 -0.0779
19076TIP3    H178643   5.532   4.322   2.942  0.2570  1.1812 -0.1571
19076TIP3    H278644   5.382   4.310   2.950  0.3813  0.2390  0.8621
19077TIP3   OH278645   4.918   6.583  17.058  0.0428 -0.4510  0.2224
19077TIP3    H178646   4.862   6.531  17.001 -0.2245  0.6256 -0.5258
19077TIP3    H278647   4.914   6.671  17.022  0.7077  0.0410  1.2946
19078TIP3   OH278648   0.883   3.423  15.211  0.3272  0.5596 -0.4360
19078TIP3    H178649   0.883   3.329  15.231  0.0029  0.6188 -0.1543
19078TIP3    H278650   0.790   3.447  15.210  0.4413  1.0750  0.4038
19079TIP3   OH278651   6.152   6.166  13.798 -0.5097 -0.0093 -0.5328
19079TIP3    H178652   6.096   6.239  13.824  0.3922  0.1278  1.1236
19079TIP3    H278653   6.124   6.093  13.853  1.3735  0.2588  0.8508
19080TIP3   OH278654   5.134   5.448   4.325 -0.2656 -0.0309  0.1362
19080TIP3    H178655   5.175   5.492   4.250  1.3311 -0.6370  0.6262
19080TIP3    H278656   5.069   5.390   4.285  0.1436  0.0923 -0.7402
19081TIP3   OH278657   1.938   4.312  14.443 -0.9120 -0.2578 -0.0245
19081TIP3    H178658   1.842   4.303  14.450 -1.1472  0.3123 -1.9389
19081TIP3    H278659   1.967   4.325  14.533 -2.8008  0.9045  0.4844
19082TIP3   OH278660   5.702   4.862  15.664 -0.2313 -0.6742  0.2959
19082TIP3    H178661   5.766   4.878  15.594 -1.8631  0.3555 -1.0531
19082TIP3    H278662   5.749   4.811  15.729  1.3414 -1.7585 -1.6027
19083TIP3   OH278663   1.468   0.381  12.740 -0.1034  0.5009 -0.7925
19083TIP3    H178664   1.483   0.474  12.756  0.8055 -0.0660  2.3279
19083TIP3    H278665   1.542   0.337  12.782 -1.1900 -1.6964 -1.0334
19084TIP3   OH278666   4.908   1.509   3.453 -0.9435 -0.1846  0.3783
19084TIP3    H178667   4.986   1.508   3.509 -0.2662 -1.6393 -0.5205
19084TIP3    H278668   4.895   1.417   3.429 -2.7677  0.0819  0.2473
19085TIP3   OH278669   6.774   3.120  10.778  0.0351  0.8396  0.5572
19085TIP3    H178670   6.727   3.058  10.722 -0.1711 -0.3555  2.0052
19085TIP3    H278671   6.822   3.175  10.716 -0.3044 -0.3273 -0.8128
19086TIP3   OH278672   3.434   3.506  11.291 -0.2090  0.1386  0.5876
19086TIP3    H178673   3.413   3.515  11.198 -2.8072 -1.3009  0.9639
19086TIP3    H278674   3.493   3.431  11.294  2.0380  1.7614 -0.0743
19087TIP3   OH278675   2.414   1.331   2.250 -0.2688 -0.2761  0.2183
19087TIP3    H178676   2.359   1.333   2.328 -1.6523 -3.2722 -0.5080
19087TIP3    H278677   2.375   1.395   2.190 -1.6392 -0.7537  0.5619
19088TIP3   OH278678   3.112   3.480   1.166 -0.1962  0.3376  0.3112
19088TIP3    H178679   3.162   3.429   1.229 -0.8832 -0.4195  0.2628
19088TIP3    H278680   3.159   3.563   1.159  0.2298  0.1958  1.3456
19089TIP3   OH278681   4.117   1.880   5.524 -0.0518 -0.6021  0.0719
19089TIP3    H178682   4.165   1.919   5.451  1.3862 -1.8864  0.3016
19089TIP3    H278683   4.093   1.793   5.494 -0.2766 -0.7958  0.7912
19090TIP3   OH278684   0.887   1.552  11.172  0.2489  0.1787  0.5228
19090TIP3    H178685   0.868   1.643  11.148  2.8055  0.6972  0.2354
19090TIP3    H278686   0.945   1.520  11.103 -1.3212 -2.0301  0.1084
19091TIP3   OH278687   1.719   0.671   4.151  0.2283  0.0305  0.3001
19091TIP3    H178688   1.754   0.751   4.113  0.8918 -0.7427 -0.7920
19091TIP3    H278689   1.783   0.603   4.129 -1.5549 -1.3140 -1.2235
19092TIP3   OH278690   1.313   3.430  12.374  0.1900  0.0931 -0.1952
19092TIP3    H178691   1.254   3.394  12.308  0.7175  0.9114 -1.1538
19092TIP3    H278692   1.262   3.498  12.418  0.7788  1.8072 -1.9909
19093TIP3   OH278693   0.307   5.588   0.387  0.2381 -0.8122  0.1202
19093TIP3    H178694   0.368   5.545   0.447 -0.6271  0.0802  1.7073
19093TIP3    H278695   0.232   5.530   0.383  0.2501 -0.8188 -0.0211
19094TIP3   OH278696   0.325   6.553  13.574 -0.1053 -0.1683 -0.1253
19094TIP3    H178697   0.419   6.537  13.580  0.1366  0.9573 -0.5607
19094TIP3    H278698   0.285   6.483  13.625  0.8722 -1.5973 -1.2196
19095TIP3   OH278699   4.823   1.684   2.676 -0.7850 -0.6687  0.4047
19095TIP3    H178700   4.767   1.637   2.615 -0.6028  0.7267 -0.9059
19095TIP3    H278701   4.902   1.705   2.625  0.1326 -0.9836  1.6572
19096TIP3   OH278702   6.542   0.534  13.869 -0.0910  0.0193  0.2982
19096TIP3    H178703   6.599   0.611  13.866  0.4222 -0.3574  0.2715
19096TIP3    H278704   6.556   0.498  13.957  0.9386 -0.9820 -0.2429
19097TIP3   OH278705   1.796   2.578  13.588 -0.1844 -0.2852 -0.2185
19097TIP3    H178706   1.718   2.629  13.570  0.3780  0.0057 -2.1243
19097TIP3    H278707   1.805   2.520  13.512  1.5945 -0.1047 -0.2052
19098TIP3   OH278708   3.921   2.616  15.176  0.3833  0.0342 -0.2334
19098TIP3    H178709   3.939   2.667  15.097  1.5735 -0.2646 -0.1674
19098TIP3    H278710   3.827   2.596  15.171  0.6798 -0.9911 -2.1525
19099TIP3   OH278711   2.218   1.028   2.962 -0.1856  0.1720 -0.4974
19099TIP3    H178712   2.268   0.972   3.021  0.0907  2.2176  1.3524
19099TIP3    H278713   2.280   1.049   2.891  0.3162 -0.3258 -0.2142
19100TIP3   OH278714   5.033   2.791   4.606  0.1067 -0.5304 -0.3961
19100TIP3    H178715   5.067   2.876   4.581  3.8586 -2.1859 -1.5852
19100TIP3    H278716   4.997   2.754   4.526  0.8398 -1.0364 -0.5004
19101TIP3   OH278717   5.452   1.303  14.449  0.6643  0.3656 -0.2962
19101TIP3    H178718   5.357   1.295  14.435  1.0264 -0.6671 -2.6799
19101TIP3    H278719   5.481   1.215  14.470  1.0686  0.7579  0.8699
19102TIP3   OH278720   6.552   4.872  16.303 -0.1214  0.3240  0.1983
19102TIP3    H178721   6.569   4.832  16.218 -0.0844 -0.3648  0.5276
19102TIP3    H278722   6.639   4.883  16.342 -0.2128 -0.5146  0.6625
19103TIP3   OH278723   1.214   3.042  10.728 -0.1484  0.0555  0.4935
19103TIP3    H178724   1.203   3.031  10.633 -1.1756  0.4248  0.5549
19103TIP3    H278725   1.253   2.959  10.757  0.3808  0.0219 -0.2733
19104TIP3   OH278726   0.759   4.713  13.127 -0.1136  0.2990  0.3333
19104TIP3    H178727   0.696   4.667  13.182 -1.0033  0.5611 -0.4313
19104TIP3    H278728   0.840   4.712  13.177 -0.6848 -0.1784  1.2787
19105TIP3   OH278729   4.751   4.438   4.655 -0.0334 -0.3532 -0.1343
19105TIP3    H178730   4.776   4.518   4.700  0.7395 -0.8174  0.2742
19105TIP3    H278731   4.787   4.367   4.709 -2.0613 -1.0542  0.3982
19106TIP3   OH278732   3.697   1.575  14.328  0.2857 -0.3007  0.2579
19106TIP3    H178733   3.620   1.553  14.274  1.3354  0.6197 -1.7151
19106TIP3    H278734   3.766   1.518  14.294  0.5095 -1.1141  2.0136
19107TIP3   OH278735   6.080   6.718  16.033  0.0660  0.4569  0.8279
19107TIP3    H178736   6.067   6.787  16.098 -1.7180  1.2528 -0.3272
19107TIP3    H278737   6.174   6.723  16.012  0.5954  0.5137  2.8930
19108TIP3   OH278738   6.625   2.973   1.055 -0.3937 -0.0966 -0.0364
19108TIP3    H178739   6.575   3.017   1.123  1.4477 -0.1402  1.4080
19108TIP3    H278740   6.667   3.044   1.006 -0.1158 -0.1256  0.1572
19109TIP3   OH278741   5.989   5.400  14.641 -0.0679 -0.4221  0.1070
19109TIP3    H178742   6.054   5.388  14.572 -1.6221 -1.1338 -1.3181
19109TIP3    H278743   5.988   5.317  14.688 -0.6038 -0.7694 -0.4974
19110TIP3   OH278744   4.153   0.320  10.937  0.3178  0.0383  0.2098
19110TIP3    H178745   4.181   0.339  10.847  1.7727 -1.8187  0.2100
19110TIP3    H278746   4.228   0.343  10.991 -0.0905 -0.0417  0.8232
19111TIP3   OH278747   1.036   1.203   0.498 -0.4286 -0.2356 -0.0306
19111TIP3    H178748   0.977   1.128   0.492  1.2446 -1.5996 -0.2789
19111TIP3    H278749   1.090   1.197   0.419  1.1985 -0.1040  1.0218
19112TIP3   OH278750   3.860   0.029   0.240  0.2139  0.1690  0.6024
19112TIP3    H178751   3.805   0.108   0.233 -0.0228  0.0207  0.7777
19112TIP3    H278752   3.828  -0.028   0.170  0.4858  0.2892  0.3792
19113TIP3   OH278753   4.756   6.043  10.670  0.1878  0.1275 -0.6091
19113TIP3    H178754   4.667   6.075  10.683  0.6263  0.8741  0.7762
19113TIP3    H278755   4.752   5.951  10.697 -0.5164 -0.3229 -2.1776
19114TIP3   OH278756   1.231   0.495   4.398  0.0267  0.3513 -0.0655
19114TIP3    H178757   1.182   0.546   4.464  0.3466  1.0998 -0.3924
19114TIP3    H278758   1.195   0.524   4.314  0.5504  0.3923 -0.2780
19115TIP3   OH278759   1.832   1.911  16.913  0.0458 -0.0639  0.1795
19115TIP3    H178760   1.777   1.838  16.942 -0.0246 -0.0555  0.0696
19115TIP3    H278761   1.815   1.917  16.819  0.8343 -0.5625 -0.0048
19116TIP3   OH278762   5.931   1.615   2.536  0.2448 -0.0309 -0.1153
19116TIP3    H178763   5.875   1.561   2.592 -1.3377  1.2339 -0.4191
19116TIP3    H278764   5.895   1.703   2.542  0.7226  0.3778 -2.2212
19117TIP3   OH278765   1.842   4.278  15.746 -0.1184  0.0692 -0.5132
19117TIP3    H178766   1.793   4.353  15.780  1.3733  0.5770  0.6256
19117TIP3    H278767   1.904   4.317  15.684 -1.1298 -0.5665 -1.9731
19118TIP3   OH278768   6.130   0.161   3.916 -0.0880 -0.1100 -0.2967
19118TIP3    H178769   6.137   0.254   3.897  0.1277  0.1129  0.8067
19118TIP3    H278770   6.036   0.143   3.910 -0.1109  0.1274 -0.7029
19119TIP3   OH278771   5.489   5.353  16.150 -0.3622  0.2096  0.2733
19119TIP3    H178772   5.523   5.264  16.155 -0.5964  0.0459 -0.6962
19119TIP3    H278773   5.400   5.347  16.183 -0.2862  0.1342  0.4635
19120TIP3   OH278774   6.339   2.755   4.125 -0.0105 -0.5339 -0.1891
19120TIP3    H178775   6.294   2.686   4.077  0.1403 -0.4805 -0.4108
19120TIP3    H278776   6.318   2.835   4.077 -1.3042 -0.2270  0.8527
19121TIP3   OH278777   6.449   6.616  13.333 -0.1015 -0.3402  0.3260
19121TIP3    H178778   6.439   6.575  13.246 -0.6691  1.7994 -0.6822
19121TIP3    H278779   6.510   6.559  13.379  0.7303 -1.1996 -1.7232
19122TIP3   OH278780   0.931   0.803   0.723  0.2566 -1.1657  0.0633
19122TIP3    H178781   1.019   0.806   0.761  0.2678 -2.4543  0.2042
19122TIP3    H278782   0.874   0.781   0.796 -0.0867 -0.9799 -0.1493
19123TIP3   OH278783   2.782   1.839  11.662  0.2355 -0.3386  0.1318
19123TIP3    H178784   2.729   1.860  11.584  0.3644  0.2394  0.1933
19123TIP3    H278785   2.724   1.855  11.736  0.6282  0.7540  0.2194
19124TIP3   OH278786   0.677   4.477  11.872 -0.6982 -0.0482  0.3109
19124TIP3    H178787   0.754   4.490  11.927 -1.6656 -0.9810  1.9987
19124TIP3    H278788   0.668   4.558  11.823  0.4088  0.7154  1.3044
19125TIP3   OH278789   5.335   3.462   3.889  0.5934 -0.3045  0.2312
19125TIP3    H178790   5.399   3.428   3.827  0.6833  1.2610 -0.5712
19125TIP3    H278791   5.309   3.546   3.853 -1.6698 -0.7307  0.7267
19126TIP3   OH278792   2.903   0.694   5.516 -0.2319 -0.1907  0.2693
19126TIP3    H178793   2.899   0.614   5.569  1.3942  0.2623  1.1552
19126TIP3    H278794   2.984   0.685   5.465 -1.2869 -0.1933 -1.5057
19127TIP3   OH278795   3.610   6.451   1.994  0.0223  0.0621  0.3060
19127TIP3    H178796   3.704   6.451   1.976 -0.4019 -0.1383 -2.2994
19127TIP3    H278797   3.571   6.492   1.917 -1.9304  2.3726  2.3248
19128TIP3   OH278798   4.046   0.193   6.436 -0.8260  0.3285 -0.6914
19128TIP3    H178799   4.121   0.250   6.420 -0.5325  0.2835  0.4473
19128TIP3    H278800   4.077   0.129   6.499 -1.9556  0.6278  0.2050
19129TIP3   OH278801   4.127   0.178  15.571  0.3145 -0.3276 -0.4983
19129TIP3    H178802   4.105   0.214  15.486  1.8555  0.0987 -0.7582
19129TIP3    H278803   4.220   0.154  15.564  0.0321 -1.9021  0.5083
19130TIP3   OH278804   6.813   4.822  15.006  0.2782  0.8054 -0.2784
19130TIP3    H178805   6.855   4.759  14.947  0.3869  0.7876 -0.1817
19130TIP3    H278806   6.850   4.906  14.981 -0.4079  0.9355 -0.8994
19131TIP3   OH278807   0.276   5.217  11.350 -0.0280 -0.3110  0.1347
19131TIP3    H178808   0.335   5.291  11.356  0.8144 -0.9147 -0.4588
19131TIP3    H278809   0.217   5.227  11.424  0.0115  0.9908  0.0164
19132TIP3   OH278810   5.027   3.422   6.808 -0.1598 -0.9172  0.4230
19132TIP3    H178811   5.084   3.414   6.731 -0.6271 -2.2320  0.1869
19132TIP3    H278812   4.955   3.477   6.779  1.5262  1.8426  1.0880
19133TIP3   OH278813   1.529   0.221   0.578  0.2055  0.1449  0.0589
19133TIP3    H178814   1.566   0.142   0.618 -0.9332  0.0876  1.0408
19133TIP3    H278815   1.536   0.206   0.484  1.8783 -0.2218  0.1965
19134TIP3   OH278816   5.400   6.262  12.060 -0.1797 -0.5514 -0.7790
19134TIP3    H178817   5.456   6.250  12.137 -1.5409 -2.2260  0.0264
19134TIP3    H278818   5.348   6.340  12.081 -0.3286 -0.8179 -0.1039
19135TIP3   OH278819   2.417   0.476   3.632  0.8190  0.2518  0.2726
19135TIP3    H178820   2.421   0.571   3.622 -0.0723  0.1468 -1.3919
19135TIP3    H278821   2.507   0.450   3.648  1.3710  1.2206 -1.0633
19136TIP3   OH278822   0.221   0.347   1.045 -0.4706 -0.0220 -0.0984
19136TIP3    H178823   0.207   0.276   0.982 -0.9408  1.5728 -1.8970
19136TIP3    H278824   0.312   0.374   1.032 -0.8214  0.9108 -0.8413
19137TIP3   OH278825   2.219   6.202   0.640  0.3182  0.2542 -0.2321
19137TIP3    H178826   2.266   6.139   0.584 -0.1201  0.1995 -0.5419
19137TIP3    H278827   2.273   6.207   0.719 -0.1851 -1.3506  0.2622
19138TIP3   OH278828   1.266   5.158   1.681  0.5231  0.2488 -0.2239
19138TIP3    H178829   1.205   5.101   1.635  1.1402 -2.6464  2.2127
19138TIP3    H278830   1.352   5.134   1.647  0.7376  0.1619  0.3540
19139TIP3   OH278831   4.532   4.441   4.494 -0.1239 -0.0929 -1.0771
19139TIP3    H178832   4.551   4.509   4.430  0.5952  0.5279 -0.2374
19139TIP3    H278833   4.609   4.439   4.551 -0.4564 -1.0894 -0.6359
19140TIP3   OH278834   3.034   4.194   5.211  0.1195  0.8278  0.1914
19140TIP3    H178835   3.082   4.234   5.138  1.3346  1.0743  1.0847
19140TIP3    H278836   3.071   4.236   5.289 -0.6171  0.0214  0.9880
19141TIP3   OH278837   4.593   6.037  14.749  0.5304 -0.1927  0.4081
19141TIP3    H178838   4.621   6.047  14.658 -0.1766 -2.9754 -0.2156
19141TIP3    H278839   4.498   6.051  14.746  0.5086 -0.2719  0.7189
19142TIP3   OH278840   1.209   0.829   2.673  0.3189  0.3188 -0.0996
19142TIP3    H178841   1.257   0.848   2.754 -2.1470 -0.0212  1.5313
19142TIP3    H278842   1.150   0.903   2.663  0.4152  0.2310 -1.5053
19143TIP3   OH278843   6.525   2.197  15.735 -0.2528  0.0970 -0.0489
19143TIP3    H178844   6.470   2.135  15.687 -1.8356  0.7211  0.8723
19143TIP3    H278845   6.524   2.276  15.681  0.9310 -0.3050 -0.7136
19144TIP3   OH278846   5.795   1.337  13.828 -0.0655  0.0607 -0.8189
19144TIP3    H178847   5.741   1.262  13.853 -1.4943  0.3709 -2.7689
19144TIP3    H278848   5.778   1.350  13.735 -0.3681  3.1577 -0.4595
19145TIP3   OH278849   2.405   2.363  14.493 -0.7154  0.2266  0.1175
19145TIP3    H178850   2.430   2.285  14.444  0.8318  0.2744  0.7574
19145TIP3    H278851   2.399   2.333  14.584  0.5185  0.9536  0.4626
19146TIP3   OH278852   0.284   5.114   3.537 -0.2162 -0.0051 -0.5264
19146TIP3    H178853   0.347   5.047   3.510  0.1952  0.4923 -0.8413
19146TIP3    H278854   0.239   5.138   3.456 -1.5096 -1.0454 -0.1386
19147TIP3   OH278855   6.540   5.214   3.763  0.2973 -0.1404 -0.1333
19147TIP3    H178856   6.458   5.199   3.810 -0.0292  0.9529 -0.3279
19147TIP3    H278857   6.591   5.134   3.777  0.0856  0.0193  1.7962
19148TIP3   OH278858   6.471   2.817  11.585 -0.5002  0.3585  0.0697
19148TIP3    H178859   6.501   2.898  11.627  0.3878  0.5153 -0.8175
19148TIP3    H278860   6.477   2.751  11.654 -1.2278  1.0313  0.7999
19149TIP3   OH278861   6.615   1.357   2.664 -0.1369  0.4254  0.5919
19149TIP3    H178862   6.619   1.264   2.684  0.6717 -0.0299 -1.3987
19149TIP3    H278863   6.534   1.368   2.614 -0.1539  0.7495  0.6885
19150TIP3   OH278864   5.238   0.116   5.770 -0.2344  0.0742 -0.3391
19150TIP3    H178865   5.244   0.077   5.682  0.9919 -2.2444  0.6948
19150TIP3    H278866   5.326   0.109   5.806 -0.4615  1.9855  0.7461
19151TIP3   OH278867   5.755   0.898  12.555  0.2214  0.7401 -0.5377
19151TIP3    H178868   5.669   0.927  12.525 -1.0751 -1.6210  0.6895
19151TIP3    H278869   5.792   0.851  12.480 -0.7812 -0.6566 -0.1792
19152TIP3   OH278870   2.978   5.429  13.336 -0.2342  0.0115  0.0776
19152TIP3    H178871   2.916   5.501  13.344  0.4057  0.4441  1.5238
19152TIP3    H278872   3.006   5.411  13.426 -0.1192 -1.8311 -0.2887
19153TIP3   OH278873   3.166   1.417   2.188 -0.3001  0.5748 -0.2759
19153TIP3    H178874   3.149   1.435   2.281  0.7255  0.2705 -0.0078
19153TIP3    H278875   3.127   1.332   2.172  0.2623  0.2307  0.1207
19154TIP3   OH278876   6.645   5.350   0.939 -0.4045  0.8269  0.3997
19154TIP3    H178877   6.740   5.347   0.952 -0.2657  1.9673 -0.2265
19154TIP3    H278878   6.626   5.443   0.926 -1.8901  0.8865  2.5443
19155TIP3   OH278879   6.820   6.191   4.258 -0.5717  0.0887  0.1258
19155TIP3    H178880   6.875   6.166   4.184  0.3169  2.8585 -0.2581
19155TIP3    H278881   6.878   6.188   4.334 -1.0343 -1.0707  0.4535
19156TIP3   OH278882   0.275   1.630   5.882 -0.4250 -0.4042  0.4694
19156TIP3    H178883   0.212   1.637   5.953 -0.5500 -0.2293  0.3401
19156TIP3    H278884   0.341   1.697   5.901 -0.5681 -0.2163  0.3098
19157TIP3   OH278885   1.296   4.703   1.597  0.6982 -0.5266  0.3975
19157TIP3    H178886   1.223   4.641   1.600  1.3015 -1.2531  0.4525
19157TIP3    H278887   1.268   4.769   1.534 -0.4683 -0.1798  1.2334
19158TIP3   OH278888   4.597   2.868  13.033 -0.0681 -0.2213  0.0442
19158TIP3    H178889   4.649   2.815  12.973  0.1610  0.3056 -0.2318
19158TIP3    H278890   4.575   2.947  12.983 -0.1493  0.0806  0.5424
19159TIP3   OH278891   6.415   0.263  14.032  0.0600 -0.3030 -0.1679
19159TIP3    H178892   6.495   0.211  14.029  1.6099  1.9778 -1.2064
19159TIP3    H278893   6.420   0.310  14.115  0.5405  0.8769 -0.8396
19160TIP3   OH278894   6.744   4.895  14.704  0.0381 -0.4014  0.1760
19160TIP3    H178895   6.838   4.888  14.685  0.6123  1.6389  1.8883
19160TIP3    H278896   6.711   4.954  14.637  1.1274  3.0493  2.4104
19161TIP3   OH278897   4.562   4.979  12.976  0.2003  0.4238  0.1170
19161TIP3    H178898   4.641   4.928  12.990 -0.7539 -1.3598 -0.6707
19161TIP3    H278899   4.592   5.062  12.940  1.7197 -0.0149  0.3264
19162TIP3   OH278900   0.957   4.629   4.918 -0.4993 -0.1359  0.0279
19162TIP3    H178901   0.929   4.672   4.837  3.0571 -0.0107 -1.3237
19162TIP3    H278902   0.984   4.701   4.975 -0.4781 -0.3080  0.2332
19163TIP3   OH278903   0.594   4.428   5.857 -0.0807  0.4828 -0.0678
19163TIP3    H178904   0.519   4.479   5.886  1.2287  2.8755 -0.6087
19163TIP3    H278905   0.670   4.483   5.877  1.5512 -1.7085  0.2196
19164TIP3   OH278906   3.211   5.995  10.265  0.3424 -0.3595 -0.2238
19164TIP3    H178907   3.247   6.077  10.300 -1.0382  1.5627 -2.9064
19164TIP3    H278908   3.262   5.979  10.185  0.3005 -1.9213  0.0336
19165TIP3   OH278909   4.226   5.923  12.412 -0.3474 -0.0072 -0.3406
19165TIP3    H178910   4.317   5.898  12.428 -0.6382 -0.0324  1.4832
19165TIP3    H278911   4.175   5.861  12.463 -1.2764  1.4421  0.5577
19166TIP3   OH278912   3.331   5.914   2.647  0.4135 -0.1706 -0.4239
19166TIP3    H178913   3.284   5.993   2.676  0.0668 -0.5208 -0.0295
19166TIP3    H278914   3.373   5.941   2.565 -1.8194 -0.3161 -1.6944
19167TIP3   OH278915   4.639   0.778   2.878  0.4744 -0.0863  0.1008
19167TIP3    H178916   4.734   0.778   2.867  0.3502  0.7089 -1.1367
19167TIP3    H278917   4.608   0.714   2.814  0.2201 -1.0213  1.1295
19168TIP3   OH278918   4.717   2.533   5.784  0.5865  0.0025 -0.8876
19168TIP3    H178919   4.726   2.624   5.758  2.2088 -0.7270 -3.1846
19168TIP3    H278920   4.725   2.483   5.703 -2.0138 -2.1664  0.0214
19169TIP3   OH278921   4.476   4.863   6.517  0.2709  0.0058 -0.3083
19169TIP3    H178922   4.514   4.869   6.605 -1.2420  1.2609  0.3100
19169TIP3    H278923   4.533   4.801   6.470  0.6013 -1.3804  1.7991
19170TIP3   OH278924   4.709   6.023   2.473 -0.1273 -0.1953  0.4616
19170TIP3    H178925   4.684   5.953   2.533 -0.9680 -1.7881 -1.6373
19170TIP3    H278926   4.636   6.031   2.413  1.1016  0.6040 -1.0021
19171TIP3   OH278927   0.081   0.008   1.439 -0.7853 -0.3233 -0.2387
19171TIP3    H178928  -0.006   0.034   1.406 -0.2691 -0.1355 -1.5024
19171TIP3    H278929   0.128   0.091   1.449 -1.0536 -0.3372  1.4258
19172TIP3   OH278930   3.059   0.193   2.006 -0.5270  0.3273 -0.1880
19172TIP3    H178931   2.994   0.256   1.976 -0.1574  0.2310 -1.2232
19172TIP3    H278932   3.120   0.185   1.933  0.9656  0.8233  0.9401
19173TIP3   OH278933   2.007   0.097  16.052 -0.3657 -0.2604  0.4188
19173TIP3    H178934   1.983   0.189  16.057 -1.2083 -0.3484 -1.1805
19173TIP3    H278935   2.034   0.085  15.960  0.1134 -1.5147  0.7032
19174TIP3   OH278936   5.627   2.034  15.229  0.3589  0.1443  0.0229
19174TIP3    H178937   5.625   2.029  15.134  1.8170 -0.4715  0.0008
19174TIP3    H278938   5.602   2.124  15.249 -2.0276 -0.2712 -0.8092
19175TIP3   OH278939   5.765   6.279   4.377  0.0820  0.0679  0.2013
19175TIP3    H178940   5.674   6.272   4.405  0.2875 -3.6167  0.4550
19175TIP3    H278941   5.763   6.255   4.284  0.8495 -0.5851  0.3490
19176TIP3   OH278942   5.784   2.544  15.180 -0.3272 -0.5890 -0.1193
19176TIP3    H178943   5.783   2.457  15.220 -1.0710 -0.0559  1.0950
19176TIP3    H278944   5.853   2.591  15.226 -0.2654 -0.3853 -0.4170
19177TIP3   OH278945   0.358   4.897   4.850  0.1986  0.1759 -0.1288
19177TIP3    H178946   0.405   4.849   4.918 -1.0737  0.7157  1.2000
19177TIP3    H278947   0.293   4.948   4.898 -0.4597  0.9190 -1.7387
19178TIP3   OH278948   4.144   0.037   3.293  0.3225 -0.4438 -0.0809
19178TIP3    H178949   4.208   0.061   3.226  1.5649 -2.3174  0.3686
19178TIP3    H278950   4.152   0.106   3.359 -1.1518  1.6162 -1.8936
19179TIP3   OH278951   4.649   1.268   6.905  0.2195 -0.3977 -0.1850
19179TIP3    H178952   4.598   1.346   6.882  0.2428 -0.5483 -0.7720
19179TIP3    H278953   4.740   1.296   6.899  0.2406 -0.5891 -0.8728
19180TIP3   OH278954   2.411   0.341  12.523 -0.0211  0.7944  0.1642
19180TIP3    H178955   2.437   0.408  12.586 -1.0713  2.6008 -1.2235
19180TIP3    H278956   2.317   0.329  12.539 -0.0102  0.2598 -0.1487
19181TIP3   OH278957   2.895   4.610   4.264  0.3457 -0.0912  0.0413
19181TIP3    H178958   2.950   4.596   4.340  2.4769  1.4250 -1.0947
19181TIP3    H278959   2.934   4.686   4.219 -2.5669  0.9863 -0.9877
19182TIP3   OH278960   2.694   3.634   2.740  0.1266  0.2601  0.1053
19182TIP3    H178961   2.680   3.584   2.660  0.7379  0.6942 -0.2749
19182TIP3    H278962   2.607   3.642   2.778 -0.5146  1.8532 -1.5808
19183TIP3   OH278963   6.429   1.671   1.318 -0.7393 -0.2449 -0.1817
19183TIP3    H178964   6.462   1.641   1.233  1.4166 -0.7654  0.7544
19183TIP3    H278965   6.371   1.601   1.348 -1.2843 -0.1908 -1.0775
19184TIP3   OH278966   4.947   2.921  11.850 -0.1891 -0.1301  0.4370
19184TIP3    H178967   5.010   2.868  11.898 -0.0831  0.1016  0.5543
19184TIP3    H278968   4.884   2.949  11.917  0.0528  0.3332  0.4797
19185TIP3   OH278969   1.860   2.932   2.664  0.1777  0.0267  0.0428
19185TIP3    H178970   1.924   2.867   2.634  0.8763  0.0576  1.4154
19185TIP3    H278971   1.870   3.005   2.604 -0.0780 -0.8062 -1.0543
19186TIP3   OH278972   1.969   2.393   5.019  0.0676  0.2692 -0.0035
19186TIP3    H178973   1.993   2.408   4.927  1.3496 -0.8676  0.1110
19186TIP3    H278974   2.052   2.372   5.062 -0.9335 -2.7364  0.6731
19187TIP3   OH278975   0.725   3.497  16.466  0.3118  0.0479 -0.4893
19187TIP3    H178976   0.714   3.490  16.371  1.4932  0.0160 -0.6371
19187TIP3    H278977   0.815   3.528  16.478  0.0473  0.4539  0.6139
19188TIP3   OH278978   5.060   5.227  16.907 -0.2761  0.1222 -0.1484
19188TIP3    H178979   5.133   5.207  16.848  0.6259  1.6628  0.3888
19188TIP3    H278980   5.061   5.156  16.971  0.0377 -0.4528 -0.7719
19189TIP3   OH278981   2.127   0.839   4.075  0.2378  0.4138 -0.1586
19189TIP3    H178982   2.131   0.758   4.126  2.1549  0.8763  0.5201
19189TIP3    H278983   2.219   0.860   4.057 -0.1119  3.0035  0.6879
19190TIP3   OH278984   5.157   2.008   0.868  0.2875  0.0472 -0.0500
19190TIP3    H178985   5.197   2.095   0.866  0.1984  0.0855 -2.3970
19190TIP3    H278986   5.231   1.948   0.858  0.3228 -0.1853  1.3460
19191TIP3   OH278987   1.256   4.822   0.728  0.0127  0.0850 -0.0541
19191TIP3    H178988   1.350   4.805   0.738  0.0075  1.0767  2.6369
19191TIP3    H278989   1.216   4.735   0.726  0.8517 -0.3676  1.3392
19192TIP3   OH278990   2.264   6.551   0.763  0.0058  0.9176 -0.6085
19192TIP3    H178991   2.337   6.538   0.703 -0.8885 -0.5881 -1.4429
19192TIP3    H278992   2.304   6.558   0.849  1.0995 -1.3317 -0.8672
19193TIP3   OH278993   4.202   6.325  13.635  0.0968 -0.3365  0.3749
19193TIP3    H178994   4.120   6.313  13.586  0.2150  1.7852 -0.4517
19193TIP3    H278995   4.262   6.365  13.572  0.3779  2.1491  2.0700
19194TIP3   OH278996   4.892   4.048  15.031 -0.2027 -0.3042  0.3392
19194TIP3    H178997   4.838   3.975  15.060 -0.3329  0.1288  1.2240
19194TIP3    H278998   4.908   4.099  15.110 -2.3863  2.1567 -0.6751
19195TIP3   OH278999   0.576   6.180   1.825 -0.5329  0.7844  0.3777
19195TIP3    H179000   0.589   6.101   1.772 -1.5295  0.2254  0.9323
19195TIP3    H279001   0.664   6.212   1.842 -0.1097 -0.1542  0.0414
19196TIP3   OH279002   4.594   3.926  13.404 -0.2240  0.3948 -0.2714
19196TIP3    H179003   4.685   3.953  13.420 -0.2787  0.3081  0.2120
19196TIP3    H279004   4.545   3.968  13.474 -0.4954  0.0891 -0.2787
19197TIP3   OH279005   5.267   6.349  16.777  0.1035  0.3016  0.6853
19197TIP3    H179006   5.175   6.375  16.770 -0.1627 -0.8824 -0.7076
19197TIP3    H279007   5.267   6.276  16.839  0.1205  0.4229  0.8262
19198TIP3   OH279008   6.735   2.006   2.858 -0.2711  0.2947  0.1462
19198TIP3    H179009   6.748   1.960   2.776  2.1539  1.4491 -0.2066
19198TIP3    H279010   6.683   2.083   2.834 -1.0646 -0.2632  0.0423
19199TIP3   OH279011   2.566   2.129   0.901 -0.1019 -0.3889 -0.0555
19199TIP3    H179012   2.477   2.109   0.931  0.7107 -1.9760  1.4517
19199TIP3    H279013   2.619   2.128   0.980  1.5686 -1.3820 -1.1218
19200TIP3   OH279014   0.869   3.679   2.291  0.3481  0.2256 -0.6746
19200TIP3    H179015   0.927   3.753   2.308 -1.1302  1.0189  1.2508
19200TIP3    H279016   0.895   3.613   2.356 -0.6418  0.4638 -0.0161
19201TIP3   OH279017   4.783   3.003  14.770  0.0524  0.1608 -0.3022
19201TIP3    H179018   4.709   2.944  14.788  0.0762  0.4159  0.6731
19201TIP3    H279019   4.754   3.054  14.695 -1.5662  1.5516  1.1832
19202TIP3   OH279020   5.467   5.654   6.169 -0.1264  0.0880 -0.4124
19202TIP3    H179021   5.417   5.591   6.221 -0.2568  0.2324 -0.3588
19202TIP3    H279022   5.425   5.738   6.188 -1.1626 -0.0332 -1.9099
19203TIP3   OH279023   1.612   5.340  16.817 -0.5642  0.3763 -0.1603
19203TIP3    H179024   1.586   5.393  16.892  0.9286 -0.7173  1.1988
19203TIP3    H279025   1.651   5.402  16.755  1.6250  0.9051  1.6039
19204TIP3   OH279026   3.371   1.678   5.804  0.1652 -0.0710  0.3658
19204TIP3    H179027   3.284   1.702   5.772 -0.8072  0.6607  3.2538
19204TIP3    H279028   3.368   1.583   5.811  0.2608 -0.2119 -1.1737
19205TIP3   OH279029   0.842   2.561   2.635  0.4017 -0.2332 -0.4736
19205TIP3    H179030   0.904   2.611   2.688  0.2190 -1.2047  0.7009
19205TIP3    H279031   0.879   2.472   2.632  0.4663 -0.1878 -2.1032
19206TIP3   OH279032   5.839   0.602  17.020  0.1177  0.8266 -0.2077
19206TIP3    H179033   5.763   0.657  17.040  0.2629  0.6632  0.8735
19206TIP3    H279034   5.915   0.658  17.038  0.2706  0.2124  1.2121
19207TIP3   OH279035   2.130   1.820  13.145 -0.6704  0.5598  0.1359
19207TIP3    H179036   2.222   1.813  13.122 -0.5628 -1.2314  1.0183
19207TIP3    H279037   2.093   1.877  13.077  0.9165  0.6886 -0.6551
19208TIP3   OH279038   2.284   3.353   6.525  0.3841  0.0347 -0.1083
19208TIP3    H179039   2.264   3.315   6.610  0.4556 -0.3964 -0.2797
19208TIP3    H279040   2.223   3.426   6.516 -0.6120 -0.7909 -0.2978
19209TIP3   OH279041   4.780   1.986   0.476  0.3297 -0.2290  0.3877
19209TIP3    H179042   4.841   1.922   0.437  1.2677  0.1935  1.1357
19209TIP3    H279043   4.704   1.933   0.502 -0.4234 -0.5249 -2.0795
19210TIP3   OH279044   1.562   3.924  15.949 -0.3030  0.1976  0.8115
19210TIP3    H179045   1.591   3.968  15.868 -1.0373  0.2364  0.5679
19210TIP3    H279046   1.613   3.843  15.951 -0.2121  0.2383  0.3563
19211TIP3   OH279047   3.379   5.512  14.265 -0.1358 -0.7189  0.3166
19211TIP3    H179048   3.442   5.565  14.218 -1.8224  2.0994  1.0027
19211TIP3    H279049   3.327   5.469  14.197 -1.3687  1.8556 -0.4879
19212TIP3   OH279050   5.511   4.383  17.057  0.3760 -0.1372 -0.0067
19212TIP3    H179051   5.554   4.384  16.972  0.9821 -1.6121  0.2476
19212TIP3    H279052   5.581   4.396  17.120 -0.0199  0.5975  0.2965
19213TIP3   OH279053   5.202   0.630   0.735 -0.1559  0.3483 -0.4130
19213TIP3    H179054   5.244   0.699   0.786 -0.5701 -0.0636  0.5154
19213TIP3    H279055   5.275   0.579   0.699  0.1515  0.3862  0.1408
19214TIP3   OH279056   1.945   4.061   5.828  0.0060 -0.0002  0.0395
19214TIP3    H179057   2.012   3.994   5.836  0.8545  0.8644  0.3671
19214TIP3    H279058   1.927   4.087   5.919  0.9180  1.3822 -0.1406
19215TIP3   OH279059   2.821   3.347  12.371  0.2637 -0.5864 -0.3029
19215TIP3    H179060   2.885   3.377  12.436 -0.8395 -3.2233  2.2407
19215TIP3    H279061   2.796   3.426  12.323  2.0676  1.3011  1.6285
19216TIP3   OH279062   1.195   1.803   2.044  0.1844  0.0087 -0.2976
19216TIP3    H179063   1.101   1.787   2.044  0.3779 -1.3723  0.7880
19216TIP3    H279064   1.227   1.754   2.120  1.6933  0.9928 -0.2553
19217TIP3   OH279065   5.713   5.616   1.669  0.1538 -0.0832 -0.0423
19217TIP3    H179066   5.671   5.622   1.755  0.7015  1.9761  0.1426
19217TIP3    H279067   5.646   5.648   1.608 -0.2636 -1.6187 -0.4398
19218TIP3   OH279068   5.876   4.713  15.141  0.4690  0.3427 -0.4096
19218TIP3    H179069   5.815   4.728  15.069 -0.2825 -1.2457 -0.1485
19218TIP3    H279070   5.956   4.681  15.100  0.8677  1.6358 -0.6869
19219TIP3   OH279071   0.195   6.211  14.337 -0.2761  0.2689  0.1708
19219TIP3    H179072   0.190   6.233  14.430  2.3906  0.9726  0.2192
19219TIP3    H279073   0.105   6.189  14.313 -1.2368  1.1574  2.6327
19220TIP3   OH279074   1.799   0.983   3.817 -0.0913  0.2908 -0.7361
19220TIP3    H179075   1.870   1.039   3.788 -1.3293  2.4135  0.0944
19220TIP3    H279076   1.809   0.976   3.912  1.7478 -3.4947 -1.0043
19221TIP3   OH279077   3.216   2.144  11.038  0.2441 -0.7042 -0.1231
19221TIP3    H179078   3.136   2.092  11.044  0.4071 -0.9010  0.4234
19221TIP3    H279079   3.202   2.218  11.097 -0.1043  0.0477 -1.1228
19222TIP3   OH279080   5.269   6.487  13.484  0.1689  0.0322 -0.1228
19222TIP3    H179081   5.334   6.418  13.469  0.0801  0.0626 -0.6675
19222TIP3    H279082   5.302   6.563  13.435  0.5438  0.5524  0.9095
19223TIP3   OH279083   5.161   3.342   4.912  0.4891 -0.6189  0.4173
19223TIP3    H179084   5.159   3.277   4.982 -0.0806  1.3065  2.3006
19223TIP3    H279085   5.069   3.353   4.887  0.3971  0.4161  1.1189
19224TIP3   OH279086   3.266   3.353  15.933  0.3886 -0.5101  0.2032
19224TIP3    H179087   3.300   3.430  15.887  0.1178  0.3316  1.3558
19224TIP3    H279088   3.288   3.368  16.025  0.1727 -1.7339  0.4761
19225TIP3   OH279089   2.010   3.819   4.078  0.1677  0.3507  0.0440
19225TIP3    H179090   2.073   3.888   4.099 -1.4956  1.8996  0.1339
19225TIP3    H279091   1.960   3.808   4.159 -1.2726  0.8929 -0.7544
19226TIP3   OH279092   5.262   3.717   1.241  0.3343  0.1653  0.1154
19226TIP3    H179093   5.348   3.744   1.275  0.7100 -0.2828 -0.4679
19226TIP3    H279094   5.218   3.800   1.221  0.9214  0.3876 -0.2894
19227TIP3   OH279095   1.494   5.874   2.014 -0.0032  0.1447 -0.5593
19227TIP3    H179096   1.464   5.793   1.972 -0.9579  0.0020  0.3557
19227TIP3    H279097   1.545   5.844   2.089  0.3581  0.3971 -0.7036
19228TIP3   OH279098   6.156   4.195  14.535  0.0914  0.2309  0.1321
19228TIP3    H179099   6.186   4.285  14.547  1.4976 -0.1497 -0.3353
19228TIP3    H279100   6.219   4.142  14.584 -0.8537 -0.4957  0.5916
19229TIP3   OH279101   2.828   0.203  11.829 -0.8546  0.1069 -0.1500
19229TIP3    H179102   2.743   0.167  11.855 -1.5480  0.3807 -1.8502
19229TIP3    H279103   2.840   0.279  11.886 -2.5192  0.9749 -0.8571
19230TIP3   OH279104   0.579   0.132  16.337  0.7098  0.6152 -0.1603
19230TIP3    H179105   0.672   0.108  16.335  0.8342  1.0561  0.2126
19230TIP3    H279106   0.576   0.211  16.390 -0.0299 -0.0766  0.8635
19231TIP3   OH279107   5.296   6.352   4.316  0.3535 -0.8146 -0.2259
19231TIP3    H179108   5.302   6.444   4.290  0.4812 -0.5639  0.6406
19231TIP3    H279109   5.379   6.333   4.359 -0.0126 -1.0648  0.3973
19232TIP3   OH279110   1.492   6.166  14.941 -0.4078  0.0526  0.1117
19232TIP3    H179111   1.427   6.162  14.871 -0.4365  1.1685  0.0419
19232TIP3    H279112   1.489   6.080  14.983 -0.1293 -0.7680 -1.4826
19233TIP3   OH279113   0.304   0.252  12.315  0.9137  0.3942 -0.1186
19233TIP3    H179114   0.230   0.294  12.359  1.1411 -0.0128  0.6926
19233TIP3    H279115   0.308   0.165  12.356  1.9180  0.4639 -0.0613
19234TIP3   OH279116   5.739   4.683  13.887 -0.0712  0.7445  0.3790
19234TIP3    H179117   5.801   4.698  13.816  1.7023 -0.2646  1.6213
19234TIP3    H279118   5.733   4.767  13.932  0.0210  0.9704 -0.0210
19235TIP3   OH279119   3.577   2.282   4.804 -0.0457 -0.3472 -0.4170
19235TIP3    H179120   3.506   2.323   4.854  0.5124  0.5261 -0.3187
19235TIP3    H279121   3.615   2.353   4.753  1.2713 -0.6181  0.1418
19236TIP3   OH279122   1.981   2.745  13.701 -0.0800  0.0475 -0.1875
19236TIP3    H179123   1.903   2.697  13.674 -1.0469 -0.1478  2.5651
19236TIP3    H279124   2.054   2.686  13.683 -1.1048 -1.9328  1.7379
19237TIP3   OH279125   5.447   0.788   4.035  0.6544 -0.3539 -0.4856
19237TIP3    H179126   5.428   0.698   4.062  1.5795 -0.3969  0.0548
19237TIP3    H279127   5.369   0.815   3.986 -0.3095 -0.8961  0.6848
19238TIP3   OH279128   2.722   5.519  16.923 -0.6497 -0.3456 -0.2531
19238TIP3    H179129   2.643   5.501  16.975 -0.7888  1.7582  0.3453
19238TIP3    H279130   2.731   5.443  16.866 -1.7104 -1.7593  1.3697
19239TIP3   OH279131   2.144   3.496  13.403 -0.3357  0.1177  0.3340
19239TIP3    H179132   2.081   3.426  13.420 -0.1813  0.2696  1.6479
19239TIP3    H279133   2.224   3.451  13.375 -0.3524 -0.2068  0.7996
19240TIP3   OH279134   5.608   3.565   2.891 -0.2578  0.0333 -0.7693
19240TIP3    H179135   5.599   3.480   2.933 -0.2958  0.4561  0.0987
19240TIP3    H279136   5.654   3.619   2.955  1.3220  0.1980 -1.9825
19241TIP3   OH279137   2.593   5.008   2.490  0.7274 -0.3918  0.6381
19241TIP3    H179138   2.561   4.946   2.425 -1.5538 -0.2918  1.5466
19241TIP3    H279139   2.532   4.999   2.563  0.3983  2.7140  0.8945
19242TIP3   OH279140   6.004   4.727   1.438 -0.1358  0.4280  0.0914
19242TIP3    H179141   6.003   4.631   1.439 -1.7117  0.3636 -1.7569
19242TIP3    H279142   6.090   4.749   1.403 -0.1050 -0.3541 -0.3628
19243TIP3   OH279143   3.967   2.299   4.574  0.1841 -0.5873  0.6406
19243TIP3    H179144   3.952   2.376   4.629  1.3197  0.2515 -0.1553
19243TIP3    H279145   3.885   2.251   4.576 -0.3437  0.3135  1.6810
19244TIP3   OH279146   3.364   5.602  11.392  0.6141 -0.2790  0.0156
19244TIP3    H179147   3.403   5.546  11.325 -0.1693 -0.6021 -0.1853
19244TIP3    H279148   3.274   5.617  11.361  1.2712  2.5071 -0.8232
19245TIP3   OH279149   5.870   5.713  14.423 -0.0419  0.6242 -0.0544
19245TIP3    H179150   5.883   5.709  14.518  0.1759 -1.5219 -0.1390
19245TIP3    H279151   5.784   5.755  14.412 -1.2316 -1.3487  1.2156
19246TIP3   OH279152   1.171   1.548  16.458  0.6164 -0.9251 -0.4780
19246TIP3    H179153   1.083   1.538  16.495 -0.3348 -0.2631 -2.4347
19246TIP3    H279154   1.229   1.531  16.532 -1.1492  1.3464  1.6121
19247TIP3   OH279155   2.023   4.478   5.717  0.1701  0.1437 -0.0514
19247TIP3    H179156   2.054   4.530   5.643  2.4892  0.4221  1.0237
19247TIP3    H279157   2.044   4.531   5.794  1.9603 -2.0014  1.0399
19248TIP3   OH279158   2.618   3.008  15.525 -0.3171  0.1407  0.3724
19248TIP3    H179159   2.650   2.955  15.598 -1.0093  0.1442  0.6930
19248TIP3    H279160   2.675   2.986  15.452 -1.5951 -2.3588 -0.0036
19249TIP3   OH279161   5.857   1.837   0.626 -0.0380 -0.2321 -0.3875
19249TIP3    H179162   5.855   1.917   0.573  0.4063  0.0422 -0.0043
19249TIP3    H279163   5.781   1.787   0.597 -2.1279  1.6533  1.3879
19250TIP3   OH279164   6.570   0.789   1.197 -0.3056  0.1040  0.1128
19250TIP3    H179165   6.500   0.724   1.207  0.0732 -0.3131  0.0735
19250TIP3    H279166   6.593   0.785   1.105  0.9279 -0.9773  0.4410
19251TIP3   OH279167   1.051   2.785  12.560  0.4823  0.1071  0.2610
19251TIP3    H179168   0.967   2.830  12.567 -0.4987 -1.6106 -0.0066
19251TIP3    H279169   1.096   2.807  12.642 -1.6884 -1.7394  2.0678
19252TIP3   OH279170   2.243   1.321  12.425 -0.6507 -0.2900 -0.3405
19252TIP3    H179171   2.278   1.410  12.420 -1.0058 -0.1302 -0.0228
19252TIP3    H279172   2.208   1.303  12.338  0.0555 -0.3860 -0.6136
19253TIP3   OH279173   3.720   1.435  12.884  0.3731  0.2997 -0.8551
19253TIP3    H179174   3.752   1.444  12.974  1.6520  0.4485 -1.3002
19253TIP3    H279175   3.757   1.353  12.853  1.6459  1.2015 -1.8808
19254TIP3   OH279176   1.187   0.234   1.174  0.0265  0.5518  0.0764
19254TIP3    H179177   1.128   0.278   1.112 -1.2171  1.1450  1.6216
19254TIP3    H279178   1.198   0.296   1.245 -0.2474 -0.8775  1.4247
19255TIP3   OH279179   4.636   1.296  10.635  0.2074  0.0279  0.1272
19255TIP3    H179180   4.544   1.285  10.611  0.4050 -1.3731 -0.0702
19255TIP3    H279181   4.634   1.356  10.709 -0.8182  0.4205 -0.1985
19256TIP3   OH279182   5.175   6.602   0.894 -0.3178 -0.3931 -0.2183
19256TIP3    H179183   5.163   6.659   0.817 -1.1859  0.4219  0.4910
19256TIP3    H279184   5.236   6.650   0.950 -0.7973 -0.3080  0.2371
19257TIP3   OH279185   2.149   6.810   0.704 -0.4834  0.7064 -0.0218
19257TIP3    H179186   2.188   6.743   0.761  1.6271  1.3827 -0.6146
19257TIP3    H279187   2.133   6.764   0.621  0.5541  0.7964 -0.2855
19258TIP3   OH279188   2.484   1.303   6.189  0.4873 -0.3616  0.5437
19258TIP3    H179189   2.409   1.270   6.238  0.2772  0.0810  0.5264
19258TIP3    H279190   2.544   1.228   6.183  0.4128 -0.4849  1.2657
19259TIP3   OH279191   4.681   4.701  13.627  0.0077  0.2838 -0.3702
19259TIP3    H179192   4.684   4.746  13.542  2.6421  0.0353 -0.5018
19259TIP3    H279193   4.725   4.617  13.610  0.1360  0.0328  1.1273
19260TIP3   OH279194   1.546   1.804   3.063  0.0924  0.0409 -0.1321
19260TIP3    H179195   1.453   1.798   3.085  0.4372 -0.7213  1.1807
19260TIP3    H279196   1.573   1.714   3.044  0.4087  0.3510 -1.2506
19261TIP3   OH279197   0.741   0.566   3.084 -0.1188  0.7500  0.0032
19261TIP3    H179198   0.816   0.603   3.129 -0.1179  0.6561  0.0783
19261TIP3    H279199   0.730   0.622   3.006  0.7228  0.0854 -0.6124
19262TIP3   OH279200   1.545   5.563  12.345  0.2375  0.2882  0.5332
19262TIP3    H179201   1.600   5.513  12.405  0.3978 -0.7524 -0.4409
19262TIP3    H279202   1.603   5.629  12.308  0.4349  0.1788  0.6488
19263TIP3   OH279203   6.483   5.607  10.679 -0.2407 -0.5166  0.1981
19263TIP3    H179204   6.571   5.645  10.680 -0.7409  0.8617 -1.5508
19263TIP3    H279205   6.497   5.513  10.665  1.0195 -1.0510  4.0131
19264TIP3   OH279206   5.976   3.543   0.630 -0.7606  0.2887 -0.4073
19264TIP3    H179207   6.032   3.620   0.631 -0.0962 -0.1892  0.0040
19264TIP3    H279208   5.953   3.530   0.538  2.5614 -1.4560 -1.1494
19265TIP3   OH279209   2.980   5.145   6.321  0.4841 -0.3036 -0.0234
19265TIP3    H179210   2.918   5.073   6.306 -0.8517  0.5394  1.1542
19265TIP3    H279211   3.028   5.119   6.399  1.2946 -0.7224 -0.6452
19266TIP3   OH279212   3.920   0.604  12.234  0.0115 -0.8306  0.4622
19266TIP3    H179213   3.880   0.523  12.265 -1.0210 -0.6843 -0.4305
19266TIP3    H279214   4.003   0.609  12.281  0.7823 -3.1273 -0.4742
19267TIP3   OH279215   0.672   0.701   1.678 -0.1936  0.4754  0.2848
19267TIP3    H179216   0.680   0.608   1.656 -2.6495  0.3738 -0.4208
19267TIP3    H279217   0.728   0.746   1.614 -0.3798 -0.3964 -0.5028
19268TIP3   OH279218   2.670   2.613   0.658 -0.4604  0.4287  0.2744
19268TIP3    H179219   2.639   2.524   0.672 -1.3742  0.5159 -1.0672
19268TIP3    H279220   2.717   2.610   0.575  0.5532  0.9564  0.8031
19269TIP3   OH279221   2.537   5.717  15.210 -0.7557  0.5329  0.0399
19269TIP3    H179222   2.573   5.764  15.134 -1.3183  0.7262 -0.1143
19269TIP3    H279223   2.450   5.691  15.182 -0.8946  0.4378  0.5576
19270TIP3   OH279224   0.652   6.044   3.730  0.3431 -0.5571 -0.3737
19270TIP3    H179225   0.593   6.032   3.656  0.3740 -1.5221 -0.2478
19270TIP3    H279226   0.730   6.084   3.692 -0.3787  0.7629 -0.5373
19271TIP3   OH279227   0.077   3.223   3.387 -0.2052  0.1354  0.4943
19271TIP3    H179228   0.038   3.199   3.303 -1.5023 -0.9701  1.3606
19271TIP3    H279229   0.156   3.169   3.393  0.6940  1.2816 -0.6170
19272TIP3   OH279230   3.202   3.608  11.730 -0.0476  0.6421 -0.3011
19272TIP3    H179231   3.160   3.692  11.717  1.1134  1.0607 -1.4694
19272TIP3    H279232   3.271   3.604  11.665  0.0650 -1.1340 -0.1448
19273TIP3   OH279233   6.574   1.185  14.128 -0.0140  0.1813 -0.3042
19273TIP3    H179234   6.485   1.184  14.163  0.0189 -0.7479 -0.2384
19273TIP3    H279235   6.577   1.110  14.069  0.8190  0.0401 -0.0840
19274TIP3   OH279236   0.401   1.966  13.191 -0.0753  0.0010 -0.1693
19274TIP3    H179237   0.418   1.874  13.213  0.1951 -0.0513 -0.5831
19274TIP3    H279238   0.324   1.990  13.243 -1.5300 -1.1139 -1.6846
19275TIP3   OH279239   0.121   1.898  11.764 -0.0584  0.3579  0.0961
19275TIP3    H179240   0.112   1.945  11.681 -1.3615 -0.1919 -0.1048
19275TIP3    H279241   0.202   1.848  11.756  1.3712  2.5353  0.3202
19276TIP3   OH279242   2.794   1.049   0.210 -0.2479 -0.0040 -0.0940
19276TIP3    H179243   2.843   0.968   0.224 -0.9705 -0.1901  1.5656
19276TIP3    H279244   2.859   1.111   0.176  0.8858 -0.5644  0.9832
19277TIP3   OH279245   1.137   5.269  13.048  0.2578  0.2944  0.1523
19277TIP3    H179246   1.045   5.298  13.045  0.6001  1.3668 -2.6131
19277TIP3    H279247   1.187   5.349  13.033  1.6317 -0.4180  0.8514
19278TIP3   OH279248   6.238   0.825   1.919  0.0905  0.2883  0.6479
19278TIP3    H179249   6.270   0.907   1.957 -0.4320 -0.4733  2.8285
19278TIP3    H279250   6.317   0.781   1.888  0.7875  0.1326  2.5349
19279TIP3   OH279251   6.013   1.303  14.627 -0.5215 -0.1001  0.2209
19279TIP3    H179252   5.923   1.310  14.594 -0.0618  1.0079 -0.8660
19279TIP3    H279253   6.030   1.208  14.629 -0.6223 -0.2825 -2.7363
19280TIP3   OH279254   5.971   6.420   0.958  0.3520 -1.0160  0.0770
19280TIP3    H179255   5.942   6.512   0.962 -1.7712 -1.6633  2.4848
19280TIP3    H279256   6.045   6.421   0.897  0.7519  2.3675  0.4103
19281TIP3   OH279257   1.702   6.280  12.347 -0.0607  0.5902 -0.1025
19281TIP3    H179258   1.673   6.242  12.264  0.2357 -0.4113  0.2432
19281TIP3    H279259   1.625   6.324  12.381 -0.4584  0.1713 -0.4413
19282TIP3   OH279260   5.162   4.658   2.330  0.3320  0.3341  0.3687
19282TIP3    H179261   5.088   4.716   2.311  1.2037  1.6565  0.8172
19282TIP3    H279262   5.224   4.676   2.259  0.2973 -0.6269  0.0916
19283TIP3   OH279263   5.679   6.788  15.941 -0.0050  0.3069  0.1774
19283TIP3    H179264   5.709   6.848  16.009 -0.6747 -0.1587  0.8998
19283TIP3    H279265   5.735   6.710  15.953  0.2580  0.4412 -0.1739
19284TIP3   OH279266   1.327   3.822  16.141  0.5493  0.5654 -0.4438
19284TIP3    H179267   1.339   3.830  16.236  1.6676 -1.4564 -0.3615
19284TIP3    H279268   1.356   3.906  16.106 -1.4049  1.9900  1.0665
19285TIP3   OH279269   0.686   3.177  13.490  0.3410  0.4186 -0.5447
19285TIP3    H179270   0.712   3.118  13.419 -0.7595  0.2716 -0.8345
19285TIP3    H279271   0.685   3.264  13.450 -0.8022  0.2691 -0.8602
19286TIP3   OH279272   1.692   0.709   1.874  0.1340 -0.3402  0.1302
19286TIP3    H179273   1.615   0.702   1.930  1.2737 -3.5047  1.5564
19286TIP3    H279274   1.686   0.635   1.814  3.4323 -2.7534  2.3852
19287TIP3   OH279275   6.715   5.831  15.138 -0.6008 -0.5719 -0.0489
19287TIP3    H179276   6.806   5.804  15.151 -0.1163  1.7903  2.2331
19287TIP3    H279277   6.719   5.903  15.075 -0.8925 -0.4542  0.0638
19288TIP3   OH279278   6.196   0.456   4.897 -0.1441  0.7335 -0.1737
19288TIP3    H179279   6.128   0.452   4.964  0.4900  4.2698  0.9427
19288TIP3    H279280   6.250   0.379   4.913 -2.7876 -1.2215  0.0434
19289TIP3   OH279281   5.952   0.774   4.352  0.5863  0.1525 -0.1482
19289TIP3    H179282   5.886   0.789   4.420  0.5943  3.0173 -0.6299
19289TIP3    H279283   6.036   0.781   4.397  0.5816  1.5089 -0.3021
19290TIP3   OH279284   3.578   4.049  11.776 -0.0003 -0.2925 -0.0543
19290TIP3    H179285   3.657   4.013  11.735 -0.7609 -0.6662 -1.2212
19290TIP3    H279286   3.523   3.972  11.792 -0.2234 -0.0105  0.5685
19291TIP3   OH279287   6.387   4.918   6.210  0.0815 -0.1840  0.1331
19291TIP3    H179288   6.294   4.904   6.193  0.2286 -1.7744  0.4755
19291TIP3    H279289   6.391   5.002   6.257 -1.0246  0.5621 -1.0360
19292TIP3   OH279290   5.238   2.451   4.958  0.2237 -0.5361  0.0786
19292TIP3    H179291   5.223   2.357   4.946 -1.6341 -0.0626 -1.7272
19292TIP3    H279292   5.306   2.455   5.026  0.8996 -3.1807 -0.3095
19293TIP3   OH279293   2.796   2.418   3.669 -0.0694  0.1881 -0.3034
19293TIP3    H179294   2.813   2.339   3.618 -0.8572 -0.1927  0.0141
19293TIP3    H279295   2.883   2.445   3.701  0.3932  0.2453 -1.5450
19294TIP3   OH279296   3.955   1.317   0.939 -0.5530  0.5504  0.0205
19294TIP3    H179297   3.977   1.406   0.968  0.3755  0.0742  0.8196
19294TIP3    H279298   3.893   1.285   1.004  0.0241  0.1898  0.3995
19295TIP3   OH279299   0.225   3.902  15.192  0.3299  0.1895 -0.1055
19295TIP3    H179300   0.260   3.817  15.219  1.8851  0.2652 -1.7190
19295TIP3    H279301   0.262   3.964  15.254 -0.5141 -0.2394  0.8559
19296TIP3   OH279302   2.676   5.381   1.499 -0.6714 -0.0216  0.0104
19296TIP3    H179303   2.725   5.368   1.581 -0.4908  1.5082  0.1606
19296TIP3    H279304   2.639   5.294   1.480  1.9112 -1.2293 -0.0046
19297TIP3   OH279305   0.087   2.137  13.976  0.3804  0.1408  0.0230
19297TIP3    H179306   0.004   2.130  14.024 -0.0474 -1.4564 -0.8828
19297TIP3    H279307   0.061   2.131  13.884  1.6337 -2.5037 -0.2404
19298TIP3   OH279308   5.695   6.747  11.678 -0.1019  0.2108  0.3309
19298TIP3    H179309   5.602   6.748  11.659 -0.2422 -4.0942 -0.0666
19298TIP3    H279310   5.737   6.768  11.595 -0.6768  0.9288  0.2107
19299TIP3   OH279311   5.777   6.212  10.931  0.2293 -0.1096 -0.1874
19299TIP3    H179312   5.719   6.206  10.855  0.1633  0.6223 -0.2045
19299TIP3    H279313   5.835   6.286  10.910 -0.6562  0.9689  1.0644
19300TIP3   OH279314   4.722   0.458  15.054 -0.0911  0.6358  0.0559
19300TIP3    H179315   4.764   0.454  14.968  4.2648 -2.3895  1.9668
19300TIP3    H279316   4.745   0.545  15.088  0.7918  0.6995 -0.6815
19301TIP3   OH279317   5.365   3.102   0.413  0.3947  0.1429 -0.2185
19301TIP3    H179318   5.384   3.024   0.362 -0.4438  1.1223 -2.1141
19301TIP3    H279319   5.441   3.113   0.471  0.3882 -2.2110  0.3346
19302TIP3   OH279320   4.762   3.401  16.885 -0.3871 -0.1885 -0.2470
19302TIP3    H179321   4.836   3.398  16.945  0.1062  1.4140 -0.7217
19302TIP3    H279322   4.691   3.358  16.932 -0.4041  2.1736  2.1031
19303TIP3   OH279323   5.694   6.198   2.644 -0.0462  0.1016 -0.1752
19303TIP3    H179324   5.693   6.228   2.553 -0.4563  0.3007 -0.1055
19303TIP3    H279325   5.682   6.103   2.638 -2.8441  0.3694 -0.2365
19304TIP3   OH279326   2.137   5.563   5.481  0.2387  0.1490  0.5103
19304TIP3    H179327   2.061   5.602   5.438  0.2567 -0.1731  0.1847
19304TIP3    H279328   2.212   5.611   5.445  0.3686 -1.0390 -0.8743
19305TIP3   OH279329   3.624   3.534  15.925 -0.4652  0.4316 -0.9870
19305TIP3    H179330   3.656   3.609  15.975 -0.7006  1.0088 -1.6845
19305TIP3    H279331   3.528   3.544  15.926 -0.4234  1.5999 -3.2329
19306TIP3   OH279332   3.202   1.892  15.614  0.0709 -0.2862  0.2495
19306TIP3    H179333   3.183   1.818  15.558 -0.0379  0.0704 -0.1936
19306TIP3    H279334   3.297   1.904  15.606  0.1805 -0.7553  0.8042
19307TIP3   OH279335   2.233   1.072   3.953  0.4013  0.1028 -0.2381
19307TIP3    H179336   2.224   0.991   3.903 -0.8024  0.5940 -0.8676
19307TIP3    H279337   2.321   1.103   3.933  1.0234 -1.2355  0.3233
19308TIP3   OH279338   2.773   6.754   4.904  0.1586 -0.5680 -0.3003
19308TIP3    H179339   2.698   6.806   4.876  0.9556 -0.0614 -1.5810
19308TIP3    H279340   2.737   6.666   4.919 -0.7237 -0.2871 -0.7251
19309TIP3   OH279341   2.182   5.005  11.249  0.1438  0.2091  0.2070
19309TIP3    H179342   2.214   4.932  11.302  0.4610 -0.4126 -0.8107
19309TIP3    H279343   2.249   5.017  11.182 -0.6116  0.4682 -0.5143
19310TIP3   OH279344   2.905   3.582   1.666  0.2851  0.3962  0.1654
19310TIP3    H179345   2.989   3.628   1.660  0.8280 -0.4818  0.8402
19310TIP3    H279346   2.886   3.554   1.577  1.7711 -1.2176  0.3101
19311TIP3   OH279347   4.428   3.505   3.957  0.3231  0.1291 -0.4470
19311TIP3    H179348   4.430   3.591   3.998  3.8472 -0.4634  0.9814
19311TIP3    H279349   4.470   3.518   3.871 -0.4177  0.0618 -0.8279
19312TIP3   OH279350   6.264   3.441   2.574  0.4622  0.5436  0.0856
19312TIP3    H179351   6.222   3.464   2.491  1.8235  0.1830 -0.7405
19312TIP3    H279352   6.308   3.359   2.556  0.9817  0.5841  1.1082
19313TIP3   OH279353   3.266   5.427  12.373 -0.0727 -0.0024  0.3204
19313TIP3    H179354   3.176   5.430  12.341  0.5471  0.1860 -1.4833
19313TIP3    H279355   3.303   5.348  12.335  0.7086  0.2478  0.5421
19314TIP3   OH279356   3.318   6.332  14.063 -0.1995 -0.3407 -0.4927
19314TIP3    H179357   3.342   6.414  14.106 -0.0570 -0.7666  0.2485
19314TIP3    H279358   3.401   6.289  14.045 -0.3028 -0.6486 -0.2336
19315TIP3   OH279359   3.591   4.090  13.875  0.4506  0.0350 -0.2236
19315TIP3    H179360   3.637   4.020  13.826  1.6025 -0.6908  1.7609
19315TIP3    H279361   3.658   4.157  13.889  0.3291 -0.0598  0.8803
19316TIP3   OH279362   6.316   5.519   1.776  0.7957  0.2132 -0.1432
19316TIP3    H179363   6.246   5.568   1.819  0.3078  1.2417 -2.0012
19316TIP3    H279364   6.294   5.427   1.792 -0.4875  0.5396  0.0604
19317TIP3   OH279365   4.168   3.243   2.754 -0.3598  0.7302  0.4540
19317TIP3    H179366   4.133   3.237   2.665  1.0236 -0.7322 -0.0502
19317TIP3    H279367   4.095   3.217   2.810 -0.5626 -0.8287 -0.4602
19318TIP3   OH279368   2.615   1.361  15.233 -0.4033 -0.7405  0.4359
19318TIP3    H179369   2.573   1.432  15.282  1.4013 -0.9133  2.3392
19318TIP3    H279370   2.542   1.309  15.200 -1.7264  0.8978  0.6325
19319TIP3   OH279371   5.826   1.477  15.782  0.0046  0.0073  0.0980
19319TIP3    H179372   5.848   1.470  15.689 -1.8419 -0.6420 -0.3305
19319TIP3    H279373   5.731   1.485  15.784  0.0386  0.4902  1.9253
19320TIP3   OH279374   2.996   1.972  11.217  0.8072 -0.1596 -0.0328
19320TIP3    H179375   2.934   1.904  11.190  1.5040 -0.8140  0.0003
19320TIP3    H279376   3.026   1.945  11.304 -1.1464  1.7474  1.3618
19321TIP3   OH279377   0.238   0.977   5.443  0.3439 -0.3501 -0.2940
19321TIP3    H179378   0.150   0.940   5.439  0.3838 -0.5091  0.2604
19321TIP3    H279379   0.225   1.068   5.467  0.3704 -0.5626  0.5427
19322TIP3   OH279380   3.248   5.658   0.480 -0.0675 -0.3112  0.5620
19322TIP3    H179381   3.269   5.607   0.402 -2.1219  1.0424 -0.9725
19322TIP3    H279382   3.192   5.599   0.532 -0.7105 -0.3625 -0.1803
19323TIP3   OH279383   2.916   2.943   6.514 -0.0988 -0.1334  1.0383
19323TIP3    H179384   2.982   2.990   6.564 -0.0717 -0.2652  1.1284
19323TIP3    H279385   2.918   2.982   6.427 -0.7734  0.7036  1.3870
19324TIP3   OH279386   6.369   2.193  16.600  0.3458  0.3930 -0.4042
19324TIP3    H179387   6.352   2.286  16.585  1.5773  0.6611 -0.2189
19324TIP3    H279388   6.434   2.169  16.535 -0.1041 -0.3995 -0.5774
19325TIP3   OH279389   6.370   5.780   5.176  0.0566 -0.0441 -0.0929
19325TIP3    H179390   6.327   5.696   5.157 -0.7107  0.1261  0.7692
19325TIP3    H279391   6.324   5.812   5.254  1.9356  0.0515  1.0117
19326TIP3   OH279392   5.373   2.674   5.870 -0.5427 -0.6524  0.0275
19326TIP3    H179393   5.453   2.658   5.920 -0.9701  1.4997  1.5450
19326TIP3    H279394   5.380   2.765   5.842 -2.8532 -0.1065  1.0269
19327TIP3   OH279395   6.237   6.766  11.625 -0.5240 -0.2245  0.0347
19327TIP3    H179396   6.330   6.752  11.639  0.0965  1.7097 -1.7077
19327TIP3    H279397   6.200   6.678  11.617  1.2881 -1.0090 -0.1759
19328TIP3   OH279398   2.279   1.167   1.757  0.0234  0.1220  0.7224
19328TIP3    H179399   2.309   1.254   1.784  2.2831  0.0432 -1.1594
19328TIP3    H279400   2.339   1.106   1.802 -1.0730 -0.4534  1.4489
19329TIP3   OH279401   4.296   2.501   2.826 -0.1404 -0.2516  0.1415
19329TIP3    H179402   4.295   2.539   2.914  0.9295  0.0017  0.0627
19329TIP3    H279403   4.387   2.508   2.799 -0.5111 -0.0786 -1.1065
19330TIP3   OH279404   2.801   5.827   4.540  0.5514 -0.3226  0.1039
19330TIP3    H179405   2.808   5.891   4.469  0.6655 -0.6453 -0.1765
19330TIP3    H279406   2.865   5.857   4.605  0.9667 -0.4354 -0.2473
19331TIP3   OH279407   0.006   1.556   2.627 -0.3480  0.2848 -0.1844
19331TIP3    H179408  -0.064   1.491   2.628  1.2587 -1.5103  0.6230
19331TIP3    H279409   0.047   1.546   2.541 -0.4828  0.7094 -0.3039
19332TIP3   OH279410   2.098   1.691   0.323  1.0830 -0.6402  0.7504
19332TIP3    H179411   2.115   1.782   0.299 -0.0711 -0.2183  1.4362
19332TIP3    H279412   2.080   1.647   0.240 -1.5338  0.5063  0.6077
19333TIP3   OH279413   4.339   3.110  12.645 -0.0584 -0.0169  0.0353
19333TIP3    H179414   4.408   3.144  12.588 -0.2450  0.5609  0.1516
19333TIP3    H279415   4.311   3.029  12.603  0.3644 -0.0110 -0.2630
19334TIP3   OH279416   1.421   4.222   3.612  0.7014 -0.1422  0.1862
19334TIP3    H179417   1.485   4.278   3.570  0.9041 -0.1098  0.5314
19334TIP3    H279418   1.411   4.259   3.700  1.5670 -1.2105  0.7643
19335TIP3   OH279419   2.558   6.403  14.808 -0.4396  1.0269 -0.1459
19335TIP3    H179420   2.592   6.469  14.868 -0.4857  1.6221 -0.7601
19335TIP3    H279421   2.600   6.423  14.724  0.0861 -0.1552 -0.1832
19336TIP3   OH279422   4.281   0.092  11.253  0.1572 -0.6744 -0.5771
19336TIP3    H179423   4.338   0.154  11.208  0.1490 -0.3481 -0.1456
19336TIP3    H279424   4.340   0.028  11.291  0.2004 -0.6313 -0.5715
19337TIP3   OH279425   3.029   2.797   0.691  0.1687  0.9847 -0.1934
19337TIP3    H179426   2.969   2.754   0.753  0.6490  1.8195  0.8844
19337TIP3    H279427   3.072   2.865   0.743 -0.5198  2.7527 -1.7973
19338TIP3   OH279428   2.350   2.587  11.310  0.5604  0.0055 -0.0728
19338TIP3    H179429   2.291   2.636  11.253 -0.2807 -1.3503 -0.4024
19338TIP3    H279430   2.428   2.572  11.257  1.3684  2.0324  0.4520
19339TIP3   OH279431   2.090   6.341  16.298  0.2820 -0.6987 -0.0222
19339TIP3    H179432   2.061   6.273  16.237 -0.4890  0.4518 -0.9796
19339TIP3    H279433   2.160   6.387  16.251 -1.0543  0.8931 -0.5439
19340TIP3   OH279434   6.230   0.332   2.991 -0.0797  0.1211  0.0444
19340TIP3    H179435   6.139   0.316   3.015  0.2686 -0.9379  0.7074
19340TIP3    H279436   6.255   0.257   2.938  0.7248 -0.1443  0.7816
19341TIP3   OH279437   2.591   2.831   1.316  0.4321 -0.0664  0.1845
19341TIP3    H179438   2.593   2.920   1.279 -1.1395  0.0302  0.2818
19341TIP3    H279439   2.528   2.836   1.387  0.7103 -1.1585  0.5280
19342TIP3   OH279440   5.041   6.127  16.107 -0.4019 -0.0877  0.1983
19342TIP3    H179441   5.017   6.124  16.015 -1.8387 -1.8249  0.5517
19342TIP3    H279442   4.959   6.148  16.153  0.0994 -0.0506  1.1119
19343TIP3   OH279443   4.993   2.287  15.190 -0.7948  0.2001  0.2679
19343TIP3    H179444   5.023   2.364  15.239  1.4065 -0.2400 -0.3035
19343TIP3    H279445   4.966   2.224  15.257  1.2316 -0.0134  0.9312
19344TIP3   OH279446   3.298   0.166   2.147 -0.3697 -0.5814 -0.2484
19344TIP3    H179447   3.332   0.244   2.103  0.5543 -1.2988 -0.8417
19344TIP3    H279448   3.203   0.173   2.138 -0.3016  0.4798 -0.2732
19345TIP3   OH279449   6.111   0.101  16.227 -0.2444 -0.5646 -0.1868
19345TIP3    H179450   6.121   0.157  16.304 -1.2650  1.1270 -1.2226
19345TIP3    H279451   6.116   0.161  16.153  1.7100 -2.2617 -1.5503
19346TIP3   OH279452   1.199   5.891  16.757 -0.3081  0.0801  0.5594
19346TIP3    H179453   1.174   5.866  16.846 -0.3531  0.3032  0.6106
19346TIP3    H279454   1.144   5.966  16.737 -0.1372  0.1707  0.4293
19347TIP3   OH279455   5.605   4.391   5.331  0.4132  0.6813 -0.1019
19347TIP3    H179456   5.667   4.352   5.393 -1.8371 -0.4089  1.5985
19347TIP3    H279457   5.583   4.321   5.271 -1.7365 -0.0514  1.4358
19348TIP3   OH279458   0.198   2.178   2.243  0.2903  0.1138  0.1193
19348TIP3    H179459   0.186   2.217   2.156  1.3102 -2.4779 -1.2868
19348TIP3    H279460   0.240   2.248   2.295  0.6099  1.4022 -1.7631
19349TIP3   OH279461   4.265   4.379  17.000 -0.2376  0.2551  0.5883
19349TIP3    H179462   4.271   4.368  17.095  1.1021 -0.5999  0.4313
19349TIP3    H279463   4.327   4.449  16.981  1.5372 -1.3639  0.0898
19350TIP3   OH279464   3.147   1.839   5.120  0.4086  0.3346  0.0115
19350TIP3    H179465   3.115   1.876   5.203 -1.0266 -0.4138 -0.1703
19350TIP3    H279466   3.236   1.809   5.140 -0.6135 -1.7449  1.9481
19351TIP3   OH279467   4.819   2.917   2.312  0.0229  0.3021  0.1613
19351TIP3    H179468   4.879   2.984   2.279  0.9585  0.1586  1.4736
19351TIP3    H279469   4.734   2.961   2.316  0.7259  1.6454  1.5215
19352TIP3   OH279470   4.662   3.798  14.415  0.2066  0.2653 -0.0871
19352TIP3    H179471   4.568   3.782  14.415  0.1256  0.6438  0.9222
19352TIP3    H279472   4.671   3.893  14.404  0.5114  0.1255 -1.1476
19353TIP3   OH279473   5.537   6.389   3.009 -0.1927 -0.3337 -0.6963
19353TIP3    H179474   5.591   6.443   2.951  0.6452  0.2306  0.5424
19353TIP3    H279475   5.574   6.301   3.000  0.3051 -0.1406 -0.6060
19354TIP3   OH279476   2.110   0.263  13.065 -0.2771 -0.3323 -0.2433
19354TIP3    H179477   2.200   0.283  13.039  0.5387 -0.9591  1.9086
19354TIP3    H279478   2.104   0.168  13.060 -0.5753 -0.3492  0.3294
19355TIP3   OH279479   2.612   5.137  16.616  0.0398 -0.5746 -0.0548
19355TIP3    H179480   2.643   5.059  16.663 -2.3285 -2.8102 -1.8909
19355TIP3    H279481   2.546   5.175  16.675  1.8638  0.7350  1.2656
19356TIP3   OH279482   1.272   4.689  14.425 -0.1624  0.0524  0.8364
19356TIP3    H179483   1.282   4.645  14.341  1.0230  0.1885  0.8770
19356TIP3    H279484   1.357   4.731  14.440 -0.4344  0.2370  1.9830
19357TIP3   OH279485   1.789   2.913   5.693 -0.1461  0.8359  0.1532
19357TIP3    H179486   1.719   2.848   5.697  0.7487 -0.4057 -2.1224
19357TIP3    H279487   1.826   2.913   5.781 -0.9346 -0.8862  0.5478
19358TIP3   OH279488   0.043   3.563   1.407  0.5566 -0.2560  0.1494
19358TIP3    H179489   0.041   3.482   1.457 -0.5436  0.3762  1.1854
19358TIP3    H279490   0.068   3.536   1.318 -0.9288 -1.8939  0.1782
19359TIP3   OH279491   5.071   4.371   4.111 -0.1004  0.3771  0.1360
19359TIP3    H179492   4.995   4.377   4.168  1.9943 -1.7136  3.5067
19359TIP3    H279493   5.114   4.456   4.121  0.2897  0.0204  1.9423
19360TIP3   OH279494   0.754   1.188   1.147  0.3378  0.2699 -0.8188
19360TIP3    H179495   0.664   1.213   1.128 -0.1719 -0.6902  0.2095
19360TIP3    H279496   0.781   1.247   1.217 -0.3717 -0.9932  0.5941
19361TIP3   OH279497   3.421   4.045  13.561 -0.2084 -0.5737  0.5443
19361TIP3    H179498   3.379   4.082  13.484  1.3311 -0.4263 -0.2663
19361TIP3    H279499   3.367   4.074  13.634 -0.9755  0.3608 -0.3612
19362TIP3   OH279500   0.040   5.822  13.415  0.5024  0.1937 -0.1990
19362TIP3    H179501   0.033   5.796  13.324  1.0681 -3.0603  0.5610
19362TIP3    H279502  -0.037   5.878  13.430  1.6809  2.8827 -3.1535
19363TIP3   OH279503   0.769   5.024   2.198  0.2641  0.5033 -0.0025
19363TIP3    H179504   0.782   5.117   2.219 -2.3956  0.7473  1.0664
19363TIP3    H279505   0.790   4.978   2.279  1.9010  0.0974 -0.6305
19364TIP3   OH279506   5.062   5.705  10.626  0.0807 -0.1707 -0.1799
19364TIP3    H179507   5.086   5.704  10.719  0.9582  0.1496 -0.3898
19364TIP3    H279508   4.986   5.648  10.620 -0.8209  0.8316  0.9608
19365TIP3   OH279509   0.336   3.188  13.159  0.6346 -0.1176 -0.2671
19365TIP3    H179510   0.350   3.142  13.241 -2.0298 -2.2631 -0.8728
19365TIP3    H279511   0.259   3.243  13.175  0.4556 -0.0975 -1.1336
19366TIP3   OH279512   3.260   4.513   6.507 -0.6804 -0.1495 -0.2359
19366TIP3    H179513   3.335   4.508   6.566 -0.4776 -2.7284 -0.5793
19366TIP3    H279514   3.187   4.539   6.563 -0.0104 -0.0507  0.6217
19367TIP3   OH279515   6.273   4.602   4.479  0.9321 -0.3312  0.2652
19367TIP3    H179516   6.307   4.550   4.406 -1.8671 -0.5565 -0.9962
19367TIP3    H279517   6.220   4.670   4.437 -0.4447 -0.2286  2.0460
19368TIP3   OH279518   5.576   6.690  15.727  0.5457  0.5511 -0.2784
19368TIP3    H179519   5.661   6.661  15.694  0.6042 -2.2436  2.0037
19368TIP3    H279520   5.597   6.749  15.799  0.5549  0.5651 -0.2925
19369TIP3   OH279521   1.271   5.556  10.572  0.3495  0.5837 -0.8297
19369TIP3    H179522   1.359   5.517  10.566 -0.7716 -2.1706 -0.5287
19369TIP3    H279523   1.218   5.505  10.512 -1.3904  1.2800  0.0649
19370TIP3   OH279524   1.579   6.157   4.596 -0.0230 -0.3398 -0.6563
19370TIP3    H179525   1.535   6.080   4.630 -1.7751 -0.1824 -2.3714
19370TIP3    H279526   1.667   6.127   4.573 -0.5959 -1.7839 -1.0611
19371TIP3   OH279527   6.097   0.011   4.705  0.1877 -0.0137  0.4338
19371TIP3    H179528   6.039  -0.064   4.720 -0.0147 -0.6769 -2.8636
19371TIP3    H279529   6.184  -0.027   4.698  0.2861  0.2636  0.1654
19372TIP3   OH279530   6.336   6.661  14.323  0.2970  0.3773 -0.1123
19372TIP3    H179531   6.321   6.747  14.282  0.8574  0.1610 -0.7977
19372TIP3    H279532   6.416   6.673  14.374  0.8708  0.0381 -0.9101
19373TIP3   OH279533   2.493   4.165   3.934 -0.3447  0.6796 -0.9755
19373TIP3    H179534   2.425   4.158   3.868 -0.1366  0.2341 -1.1427
19373TIP3    H279535   2.489   4.257   3.962 -2.3962  0.2348  0.4885
19374TIP3   OH279536   4.660   0.080  15.305 -0.4917  0.2326  0.2637
19374TIP3    H179537   4.709   0.016  15.253 -0.2063 -1.2355  2.2429
19374TIP3    H279538   4.572   0.078  15.267 -0.5057 -1.4093  0.3124
19375TIP3   OH279539   1.179   0.482  15.130  1.3850 -0.4477  0.1608
19375TIP3    H179540   1.236   0.507  15.203  0.0219  1.0946  0.7818
19375TIP3    H279541   1.125   0.560  15.115 -0.8116 -1.9366 -0.1313
19376TIP3   OH279542   6.153   1.265  16.734  0.2498  0.4016 -0.2913
19376TIP3    H179543   6.058   1.272  16.735  0.2451  0.6739 -1.2622
19376TIP3    H279544   6.179   1.298  16.647  1.2885  1.1993  0.2905
19377TIP3   OH279545   5.929   0.906   3.563 -0.6260 -0.0170  0.5670
19377TIP3    H179546   6.011   0.941   3.599 -0.4101 -0.3019  0.3569
19377TIP3    H279547   5.861   0.946   3.616 -0.3982  0.9028  0.1942
19378TIP3   OH279548   6.816   2.773   5.439  0.2723 -0.2506 -0.0455
19378TIP3    H179549   6.725   2.765   5.412  0.2344 -0.4489  0.1456
19378TIP3    H279550   6.817   2.747   5.531  0.5854 -0.6187 -0.1509
19379TIP3   OH279551   3.086   0.145   5.177 -0.2542 -0.2677 -0.0775
19379TIP3    H179552   3.047   0.058   5.179  0.6037 -0.6632  0.0437
19379TIP3    H279553   3.155   0.142   5.243  0.0170  0.3852 -0.3171
19380TIP3   OH279554   4.137   1.057   5.677 -0.4334 -0.0875 -0.0418
19380TIP3    H179555   4.216   1.084   5.725  0.7097  0.4652 -2.0903
19380TIP3    H279556   4.170   1.004   5.605 -2.2856 -2.9542  1.0453
19381TIP3   OH279557   1.908   4.872  11.326  0.0625 -0.6423 -0.4775
19381TIP3    H179558   1.952   4.834  11.402 -0.2026  1.8673  1.0553
19381TIP3    H279559   1.977   4.919  11.279  0.1539 -1.8885 -1.6390
19382TIP3   OH279560   3.789   3.096   5.592  0.1344 -0.0772 -0.4177
19382TIP3    H179561   3.792   3.191   5.598  0.4762 -0.1920  1.7268
19382TIP3    H279562   3.717   3.079   5.530  0.3404  1.5450 -1.1647
19383TIP3   OH279563   6.781   5.529  12.784 -0.4056  0.2709 -0.7668
19383TIP3    H179564   6.791   5.462  12.851 -1.6453  1.8543  1.1127
19383TIP3    H279565   6.747   5.482  12.707  1.9893 -1.7477 -0.6884
19384TIP3   OH279566   2.148   1.027  10.318  0.2619  0.5504  0.5941
19384TIP3    H179567   2.201   1.057  10.244  1.1319  1.0683  1.4214
19384TIP3    H279568   2.210   1.013  10.389 -0.1713 -2.4430  0.5419
19385TIP3   OH279569   1.668   5.070  12.133  0.0311  0.3322 -0.5655
19385TIP3    H179570   1.607   5.014  12.182  0.0708  0.2165 -0.6476
19385TIP3    H279571   1.753   5.053  12.173  0.8766 -2.9487 -3.2691
19386TIP3   OH279572   3.584   2.630  17.079 -0.4553 -0.5160 -0.0118
19386TIP3    H179573   3.515   2.581  17.124 -0.5985 -0.0465  0.2905
19386TIP3    H279574   3.575   2.719  17.113 -0.3004 -0.2447 -0.6722
19387TIP3   OH279575   5.131   1.475  17.066  0.1261  0.3479 -0.2130
19387TIP3    H179576   5.144   1.466  17.160 -1.3082 -3.0504 -0.1819
19387TIP3    H279577   5.036   1.480  17.056  0.1760 -0.6540 -1.4883
19388TIP3   OH279578   5.917   0.204  12.321  0.2222  0.2437 -1.0754
19388TIP3    H179579   6.006   0.173  12.303  0.5392  1.7835 -2.3872
19388TIP3    H279580   5.891   0.157  12.401  2.0240 -0.5699 -0.9118
19389TIP3   OH279581   4.748   6.006  13.463 -0.1613 -0.1756 -0.3689
19389TIP3    H179582   4.815   6.067  13.493  0.3892 -0.8789 -0.1329
19389TIP3    H279583   4.788   5.962  13.388 -0.2283 -0.8242 -0.0342
19390TIP3   OH279584   0.047   2.380  11.149  0.1077  0.4920 -0.6633
19390TIP3    H179585   0.050   2.405  11.241 -0.4207  1.6725 -0.9466
19390TIP3    H279586  -0.033   2.327  11.141 -0.5492  1.4590 -0.6769
19391TIP3   OH279587   3.397   4.364   3.493  0.0537 -0.6614 -0.0064
19391TIP3    H179588   3.330   4.297   3.480  1.5931 -2.0608 -1.3459
19391TIP3    H279589   3.471   4.316   3.531  1.0631  0.3321 -0.6308
19392TIP3   OH279590   2.220   1.096  14.389  0.4249 -0.4135 -0.8445
19392TIP3    H179591   2.261   1.062  14.469  1.0979  1.4624 -0.3358
19392TIP3    H279592   2.174   1.175  14.417 -0.2541 -0.3198 -2.1414
19393TIP3   OH279593   6.294   0.538  13.303  0.4851  0.5156  0.2900
19393TIP3    H179594   6.320   0.453  13.340 -2.2709 -0.5591  0.0026
19393TIP3    H279595   6.331   0.538  13.215 -0.0498 -0.7422  0.0393
19394TIP3   OH279596   4.095   5.251   0.039 -0.3130 -0.7946  0.1426
19394TIP3    H179597   4.070   5.168   0.080  0.8266 -1.1152  0.2235
19394TIP3    H279598   4.188   5.261   0.061 -0.0760 -0.1992 -1.0673
19395TIP3   OH279599   4.102   5.641   3.309 -0.8190  0.5448  0.0538
19395TIP3    H179600   4.070   5.678   3.227  0.9052  0.3732 -0.7423
19395TIP3    H279601   4.167   5.704   3.340  2.0488 -1.5384 -1.2355
19396TIP3   OH279602   1.675   2.295   6.352  0.7725 -0.4675 -0.2189
19396TIP3    H179603   1.624   2.375   6.360  0.0409 -0.4636 -3.6317
19396TIP3    H279604   1.753   2.321   6.302 -0.5196 -2.1274 -3.3629
19397TIP3   OH279605   5.269   1.601  13.291 -0.4406 -0.3815  0.1626
19397TIP3    H179606   5.215   1.526  13.267  0.5153  0.0267 -3.9629
19397TIP3    H279607   5.338   1.564  13.346 -2.0856 -1.7412  1.4413
19398TIP3   OH279608   0.593   1.880  11.028 -0.2433 -0.1920  0.2012
19398TIP3    H179609   0.641   1.911  11.105  0.0274  1.2371 -0.5084
19398TIP3    H279610   0.661   1.861  10.963 -0.5613  1.0162 -0.5186
19399TIP3   OH279611   0.537   6.667  14.618 -0.3201  0.2316 -0.0171
19399TIP3    H179612   0.543   6.667  14.714 -2.7330  0.4227  0.2003
19399TIP3    H279613   0.573   6.583  14.592 -0.7234 -0.3385  1.1783
19400TIP3   OH279614   6.341   0.447   4.373  0.1445  0.1386  0.0372
19400TIP3    H179615   6.279   0.375   4.360  1.6228 -0.7928 -2.4520
19400TIP3    H279616   6.400   0.416   4.441  0.0374 -0.5039 -0.1508
19401TIP3   OH279617   3.004   0.131   3.976 -0.2899  0.1853  0.0702
19401TIP3    H179618   3.080   0.180   4.005 -0.1610  0.3230 -0.4826
19401TIP3    H279619   3.028   0.039   3.987 -0.3768  0.2368  0.7186
19402TIP3   OH279620   3.956   6.357   4.610  0.3385 -0.0083  0.6298
19402TIP3    H179621   3.999   6.307   4.679  0.7253  0.2968  0.6134
19402TIP3    H279622   3.893   6.296   4.572  1.2234 -0.6961  0.2103
19403TIP3   OH279623   2.483   4.080  15.220 -0.3932 -0.1346  0.4420
19403TIP3    H179624   2.480   3.987  15.195  1.7654 -0.1375  0.0012
19403TIP3    H279625   2.398   4.096  15.262 -0.4969 -2.5266  1.3178
19404TIP3   OH279626   1.766   6.341  13.264 -0.7274 -0.4991 -0.5836
19404TIP3    H179627   1.684   6.362  13.309 -1.6871 -0.2482 -2.3698
19404TIP3    H279628   1.811   6.280  13.323 -2.2860 -0.8188  0.3304
19405TIP3   OH279629   4.036   3.878  11.754 -0.4900 -0.4305  0.2797
19405TIP3    H179630   4.036   3.896  11.848 -0.8083 -0.3481  0.2660
19405TIP3    H279631   4.071   3.790  11.745  0.8251  0.0564  0.3796
19406TIP3   OH279632   6.658   5.764   2.052 -0.1520 -0.0707  0.5828
19406TIP3    H179633   6.620   5.717   1.978 -0.5930 -1.2716  1.5358
19406TIP3    H279634   6.722   5.824   2.013 -1.5516  0.5117 -0.8812
19407TIP3   OH279635   3.717   5.909   5.274 -1.1012 -0.0155  0.4971
19407TIP3    H179636   3.709   5.979   5.339  1.9596  0.4619  0.4687
19407TIP3    H279637   3.632   5.910   5.228 -1.0741  4.0082  0.1683
19408TIP3   OH279638   6.720   1.999  12.658 -0.4515  0.2619 -0.1657
19408TIP3    H179639   6.715   2.076  12.601  1.4222 -1.8155 -3.4196
19408TIP3    H279640   6.797   2.015  12.712 -0.5797  1.0021 -0.1785
19409TIP3   OH279641   2.856   6.434  14.976  0.1543  0.2911  0.3612
19409TIP3    H179642   2.797   6.507  14.958  0.7460  0.4752 -0.9858
19409TIP3    H279643   2.887   6.449  15.066  0.5953  1.9563 -0.0286
19410TIP3   OH279644   0.973   6.818   2.073  0.0816  0.2391  0.3920
19410TIP3    H179645   1.035   6.867   2.018  1.3427 -1.6559  0.0476
19410TIP3    H279646   1.023   6.796   2.151  0.4648 -2.6974 -0.5649
19411TIP3   OH279647   4.322   2.047   2.815 -0.0872 -0.2341  0.8003
19411TIP3    H179648   4.284   1.965   2.785 -0.9381  0.4572 -0.1000
19411TIP3    H279649   4.246   2.101   2.838  0.0299  2.0123 -3.1503
19412TIP3   OH279650   6.067   2.350  13.245 -0.8028 -0.3411 -0.0105
19412TIP3    H179651   6.131   2.406  13.202  0.7253 -0.3854  2.0578
19412TIP3    H279652   6.044   2.285  13.178 -0.2063  0.8387 -1.4237
19413TIP3   OH279653   2.153   1.483  13.050  0.3857 -0.5220  0.4517
19413TIP3    H179654   2.207   1.556  13.020 -0.4834  0.2844  0.8286
19413TIP3    H279655   2.079   1.524  13.095 -2.1608 -1.4573 -2.5470
19414TIP3   OH279656   0.558   5.862   4.192 -0.0489 -0.5717  0.2596
19414TIP3    H179657   0.621   5.817   4.249  0.4212 -0.9031 -0.4994
19414TIP3    H279658   0.610   5.889   4.116 -0.7462 -0.4989 -0.1964
19415TIP3   OH279659   4.526   1.754  14.309 -0.1098 -0.4689 -0.1192
19415TIP3    H179660   4.611   1.788  14.339  0.4687 -1.1212 -0.9510
19415TIP3    H279661   4.531   1.759  14.213 -1.6664  1.0006 -0.1615
19416TIP3   OH279662   4.305   0.486  11.619 -0.1551  0.0865 -0.5250
19416TIP3    H179663   4.321   0.488  11.525  0.9328  0.1086 -0.3482
19416TIP3    H279664   4.367   0.549  11.656 -0.6791  0.1973  0.1953
19417TIP3   OH279665   6.145   0.842   5.964  0.0635 -0.3122  0.3514
19417TIP3    H179666   6.125   0.820   5.874  0.5722  0.4364  0.0450
19417TIP3    H279667   6.141   0.758   6.011  0.8780 -0.8862 -0.5708
19418TIP3   OH279668   3.939   1.410  11.761  0.0876 -0.2317  0.1997
19418TIP3    H179669   3.948   1.350  11.836 -0.1091 -0.7346 -0.1723
19418TIP3    H279670   3.952   1.354  11.684 -1.0247  0.0170 -0.1847
19419TIP3   OH279671   2.885   2.184   3.022 -0.2408 -0.2778 -0.0305
19419TIP3    H179672   2.954   2.242   2.989 -2.1792  2.4541  0.3814
19419TIP3    H279673   2.895   2.187   3.118 -2.1607  1.9593  0.1818
19420TIP3   OH279674   0.327   0.666   1.618 -0.7583 -0.3982  0.4011
19420TIP3    H179675   0.415   0.694   1.591 -0.4560 -2.2631 -0.7927
19420TIP3    H279676   0.277   0.666   1.536 -2.2117  1.6275  1.2260
19421TIP3   OH279677   6.436   6.071   0.740  0.1789 -0.2373  0.0285
19421TIP3    H179678   6.527   6.045   0.750 -0.1449 -3.0352 -2.6490
19421TIP3    H279679   6.404   6.082   0.830  3.5041  2.7929  1.0483
19422TIP3   OH279680   5.221   1.849  15.747 -0.1447  0.0088  0.3100
19422TIP3    H179681   5.284   1.878  15.813 -0.0480  1.3708 -0.3531
19422TIP3    H279682   5.274   1.832  15.669 -0.7423  3.8089 -1.1399
19423TIP3   OH279683   0.250   5.719  16.441 -0.0023 -0.4912  0.0094
19423TIP3    H179684   0.188   5.651  16.416  0.4640 -1.4808  1.3696
19423TIP3    H279685   0.211   5.759  16.519  0.7054 -0.6247  0.4386
19424TIP3   OH279686   1.241   3.546   2.746  0.1274  0.0878 -0.0380
19424TIP3    H179687   1.146   3.542   2.730  0.4724 -2.6287 -2.1231
19424TIP3    H279688   1.265   3.636   2.724 -1.8464  0.6321 -0.1760
19425TIP3   OH279689   3.047   4.935   0.483  0.3178  0.4747  0.1216
19425TIP3    H179690   2.974   4.883   0.449  0.7595  0.1760 -0.3858
19425TIP3    H279691   3.120   4.874   0.487  0.6095  0.8404  0.3662
19426TIP3   OH279692   0.798   5.933  11.896  0.4005  0.1975  0.2419
19426TIP3    H179693   0.801   5.890  11.982  1.2732 -0.6117 -0.1778
19426TIP3    H279694   0.747   6.012  11.911  1.2245  0.4888  1.6975
19427TIP3   OH279695   0.277   6.618  15.643 -0.2151 -0.1097 -0.1722
19427TIP3    H179696   0.239   6.550  15.588  0.4058 -0.3150 -0.3530
19427TIP3    H279697   0.202   6.657  15.688 -0.4979 -1.6128  0.7359
19428TIP3   OH279698   5.067   2.032  13.213 -0.6076  0.0384  0.6441
19428TIP3    H179699   4.980   2.002  13.187 -0.2398  1.1859 -2.3487
19428TIP3    H279700   5.126   1.960  13.190 -0.6632 -0.6932  2.5654
19429TIP3   OH279701   3.198   1.296   3.118  0.2347  0.2209  0.3484
19429TIP3    H179702   3.134   1.240   3.162 -0.6641  0.3860 -0.7039
19429TIP3    H279703   3.222   1.362   3.183 -0.4881  0.0186  0.8267
19430TIP3   OH279704   2.958   6.549  14.566  0.3764  0.4490 -0.8654
19430TIP3    H179705   2.882   6.496  14.545  0.5399 -0.4619  0.6640
19430TIP3    H279706   2.982   6.522  14.655  2.5391  0.6494 -1.3337
19431TIP3   OH279707   0.494   5.960   3.487 -0.5262 -1.0342  0.3024
19431TIP3    H179708   0.452   5.885   3.445  0.1795 -0.9402 -0.5900
19431TIP3    H279709   0.454   6.036   3.445 -0.6795 -0.9118  0.6628
19432TIP3   OH279710   2.978   5.268   2.323 -0.0692  0.5103 -0.8153
19432TIP3    H179711   2.939   5.196   2.373 -2.8476  1.5600 -1.2641
19432TIP3    H279712   3.011   5.328   2.389 -0.9339  0.4634 -0.3272
19433TIP3   OH279713   6.331   3.800   3.982  0.0337 -0.3589  0.3194
19433TIP3    H179714   6.247   3.838   4.007  0.1552 -0.0126  0.2078
19433TIP3    H279715   6.378   3.872   3.941  0.2770 -0.6269  0.1286
19434TIP3   OH279716   0.451   1.625  12.436 -0.7509  0.2644 -0.3843
19434TIP3    H179717   0.361   1.601  12.412 -0.6804  0.5410 -0.9517
19434TIP3    H279718   0.491   1.543  12.465 -1.1925  0.1441 -0.1069
19435TIP3   OH279719   1.928   0.305  16.935  0.4297  0.6571  0.1276
19435TIP3    H179720   2.002   0.320  16.994  0.6577  2.6438 -0.6033
19435TIP3    H279721   1.967   0.270  16.855  0.1121 -2.1224  1.0707
19436TIP3   OH279722   1.342   4.912   0.463  0.0912  0.0579 -0.6158
19436TIP3    H179723   1.298   4.872   0.538  2.0678 -0.4246  0.3316
19436TIP3    H279724   1.398   4.979   0.500 -0.5730  1.3745 -1.8929
19437TIP3   OH279725   6.234   5.418  15.291 -0.1061 -0.5571  0.6279
19437TIP3    H179726   6.279   5.497  15.323 -1.7330  0.6972 -0.0322
19437TIP3    H279727   6.223   5.364  15.370  0.4859  0.1458  1.2140
19438TIP3   OH279728   4.137   0.066  13.404  0.4759  0.8994  0.1221
19438TIP3    H179729   4.128   0.072  13.499  0.7439  1.8046  0.1017
19438TIP3    H279730   4.224   0.100  13.386  0.7777 -0.0996 -0.3821
19439TIP3   OH279731   0.788   0.006   3.828  0.0096 -0.3879 -0.1232
19439TIP3    H179732   0.799  -0.046   3.749  1.3590 -0.1059 -0.1411
19439TIP3    H279733   0.746  -0.053   3.890  0.7271 -1.2370 -0.4257
19440TIP3   OH279734   2.418   3.874  12.370  0.0102  0.3661 -0.4374
19440TIP3    H179735   2.421   3.883  12.275  0.6543  0.9844 -0.3725
19440TIP3    H279736   2.400   3.963  12.402  1.2104  0.4529  0.0550
19441TIP3   OH279737   0.509   5.259  11.954 -0.5142  0.4170  0.0408
19441TIP3    H179738   0.587   5.313  11.945  2.4473 -2.8699  2.9211
19441TIP3    H279739   0.439   5.320  11.976  2.0640  3.2624  1.0205
19442TIP3   OH279740   0.623   2.321   4.600  0.2459 -0.6078 -0.1211
19442TIP3    H179741   0.587   2.323   4.689  2.2494 -1.6466  0.7873
19442TIP3    H279742   0.547   2.316   4.543 -1.0614 -1.1869  1.5973
19443TIP3   OH279743   5.614   0.680   1.218  0.3690  0.3568 -0.0692
19443TIP3    H179744   5.543   0.669   1.155 -0.5539 -1.0377  1.1626
19443TIP3    H279745   5.621   0.775   1.228 -2.3328  0.5565  0.8251
19444TIP3   OH279746   2.040   5.987   0.213  0.7026  0.1130  0.1836
19444TIP3    H179747   1.959   5.951   0.249  0.7187 -1.1268 -0.9247
19444TIP3    H279748   2.037   5.963   0.120  2.4540 -0.1831  0.1756
19445TIP3   OH279749   0.899   0.970   3.425  0.0109  0.3813 -0.3827
19445TIP3    H179750   0.902   0.898   3.487  1.2314  0.9355  0.2306
19445TIP3    H279751   0.835   1.031   3.462 -0.7894 -0.2109 -0.7444
19446TIP3   OH279752   5.291   0.981  13.173 -0.0411 -0.1166 -0.1517
19446TIP3    H179753   5.319   0.959  13.084  0.0027  0.1932 -0.2177
19446TIP3    H279754   5.270   0.897  13.214  0.0106 -0.2655 -0.4310
19447TIP3   OH279755   6.034   2.864  15.790 -0.0875  0.2583  0.0120
19447TIP3    H179756   6.103   2.893  15.730 -0.3045 -2.9320 -2.0304
19447TIP3    H279757   5.953   2.884  15.745 -0.3098 -0.6078  0.0090
19448TIP3   OH279758   6.065   3.231  12.315 -0.1004 -0.4441 -0.0747
19448TIP3    H179759   6.152   3.216  12.278  0.2410  0.4195  0.3511
19448TIP3    H279760   6.021   3.287  12.251  0.0886  0.1023  0.2604
19449TIP3   OH279761   2.754   5.333  16.736 -0.0123  0.4809  0.2373
19449TIP3    H179762   2.825   5.290  16.783 -0.8361  0.5183  1.5602
19449TIP3    H279763   2.723   5.267  16.674  1.3675  0.5779 -0.6073
19450TIP3   OH279764   3.201   5.245  11.890  0.8486  0.1195 -0.0282
19450TIP3    H179765   3.233   5.161  11.922  2.3483  1.0761  1.1194
19450TIP3    H279766   3.186   5.230  11.796 -0.3686 -1.8067  0.4115
19451TIP3   OH279767   2.079   6.070  15.377 -0.5706 -0.3582  0.9978
19451TIP3    H179768   2.134   6.103  15.307  0.6828 -0.0941  2.0720
19451TIP3    H279769   1.992   6.106  15.358  0.2360  1.6051  0.8276
19452TIP3   OH279770   2.991   4.340  12.732 -0.2273  0.4151  0.0100
19452TIP3    H179771   3.022   4.291  12.655 -1.2713 -0.6603  0.2389
19452TIP3    H279772   3.066   4.393  12.758  0.9614 -1.0526 -0.2869
19453TIP3   OH279773   4.711   3.285  14.252 -0.0825  0.1937  0.3004
19453TIP3    H179774   4.712   3.342  14.175 -0.7073 -0.8367 -0.5100
19453TIP3    H279775   4.751   3.337  14.321 -1.3736  1.9155 -0.1816
19454TIP3   OH279776   0.977   6.019  11.451  0.1379 -0.2843 -0.0354
19454TIP3    H179777   0.993   6.078  11.378 -0.0554 -1.0501 -0.7059
19454TIP3    H279778   1.065   5.998  11.484  0.1926  0.6638  0.4553
19455TIP3   OH279779   4.722   5.612  15.340 -0.0984  0.4384  0.4513
19455TIP3    H179780   4.776   5.536  15.320 -0.7816 -0.7336  2.7115
19455TIP3    H279781   4.746   5.677  15.274  1.2683 -1.3533 -0.9077
19456TIP3   OH279782   2.216   4.428   6.837  0.0291  0.1578 -0.2892
19456TIP3    H179783   2.286   4.370   6.866  0.5326  0.4824 -0.8135
19456TIP3    H279784   2.255   4.478   6.765 -0.3932  1.1432  0.1504
19457TIP3   OH279785   2.457   2.405  15.294 -0.0548  0.7482 -0.0647
19457TIP3    H179786   2.543   2.363  15.304 -0.3214 -0.0485 -0.9308
19457TIP3    H279787   2.440   2.402  15.200 -1.0805  0.7847  0.1061
19458TIP3   OH279788   6.164   0.493  15.773  0.8438 -0.2379 -0.9175
19458TIP3    H179789   6.244   0.543  15.788  1.5467 -1.0551 -1.8365
19458TIP3    H279790   6.134   0.467  15.860 -0.1304  2.6106 -0.2676
19459TIP3   OH279791   2.569   3.714   5.639  0.6735 -0.0382 -0.0690
19459TIP3    H179792   2.598   3.649   5.703  1.5077  0.3600 -0.0258
19459TIP3    H279793   2.478   3.731   5.662 -0.6175 -3.4149 -1.9349
19460TIP3   OH279794   0.390   2.870  11.887  0.4694 -0.0624  0.2027
19460TIP3    H179795   0.394   2.775  11.892 -0.7951 -0.1866 -0.6273
19460TIP3    H279796   0.329   2.895  11.956  0.5157  0.1033  0.1834
19461TIP3   OH279797   5.097   0.827   4.028  0.3271  0.2919  0.5731
19461TIP3    H179798   5.122   0.902   4.081 -1.7929  2.0634 -0.7860
19461TIP3    H279799   5.162   0.825   3.957  0.8701  0.2950  1.0611
19462TIP3   OH279800   3.754   6.576  13.209 -0.7223 -0.0989 -0.2314
19462TIP3    H179801   3.809   6.576  13.131  0.4502  0.9357  0.5723
19462TIP3    H279802   3.812   6.548  13.280 -2.1373 -2.5559  0.0804
19463TIP3   OH279803   3.798   3.463   2.014 -0.2828 -0.6958  0.6115
19463TIP3    H179804   3.797   3.539   2.072 -0.9394 -0.5497  0.4171
19463TIP3    H279805   3.768   3.497   1.930 -1.6439 -1.3913  0.7977
19464TIP3   OH279806   2.195   2.121   3.025 -0.2114 -0.6993 -0.4447
19464TIP3    H179807   2.253   2.055   3.062 -0.1621 -0.9337 -0.9367
19464TIP3    H279808   2.221   2.128   2.934 -0.5154 -0.3225 -0.5069
19465TIP3   OH279809   3.140   5.633   5.010 -0.0595  0.0186  0.0711
19465TIP3    H179810   3.182   5.622   5.095 -2.4725  0.0190  1.3635
19465TIP3    H279811   3.114   5.544   4.985 -0.4782  0.1649 -0.0222
19466TIP3   OH279812   0.353   1.422   5.690  0.0896  0.0102 -0.5672
19466TIP3    H179813   0.443   1.426   5.721 -0.4285 -0.7233  1.1857
19466TIP3    H279814   0.304   1.476   5.752 -0.7109  0.2244 -1.3621
19467TIP3   OH279815   0.411   0.169   5.505  0.6484  0.0377  0.4376
19467TIP3    H179816   0.432   0.261   5.492  0.5650  0.2862  1.8701
19467TIP3    H279817   0.353   0.168   5.582 -1.4419 -0.9725 -1.0519
19468TIP3   OH279818   3.826   1.626  10.731 -0.0132  0.2019  0.3016
19468TIP3    H179819   3.814   1.568  10.806  1.7739  0.1038  0.5661
19468TIP3    H279820   3.883   1.576  10.672 -1.1132  0.4163 -0.9838
19469TIP3   OH279821   2.660   5.585   0.239  0.3115 -0.1726 -0.0330
19469TIP3    H179822   2.579   5.593   0.290 -0.1060 -0.5669 -0.6100
19469TIP3    H279823   2.640   5.628   0.156  1.7711  2.6330  0.9342
19470TIP3   OH279824   5.287   1.722  12.642  0.0459  0.0414 -0.2453
19470TIP3    H179825   5.375   1.700  12.611  0.6510  0.2288  1.2438
19470TIP3    H279826   5.254   1.640  12.679  0.4376  0.4438  1.0555
19471TIP3   OH279827   6.017   2.292   2.633  0.1834  0.0342  0.1708
19471TIP3    H179828   6.011   2.340   2.715 -0.5278  1.8899 -0.9081
19471TIP3    H279829   6.075   2.345   2.578  0.3523 -0.9712 -0.6534
19472TIP3   OH279830   2.111   0.549  11.246 -0.0208 -0.1713  0.4406
19472TIP3    H179831   2.070   0.462  11.237 -1.0581  0.2769  0.7261
19472TIP3    H279832   2.091   0.576  11.335 -0.2723  0.6358  0.1505
19473TIP3   OH279833   2.183   4.368   0.251  0.2422  0.7645  0.1474
19473TIP3    H179834   2.169   4.461   0.265 -0.4445  0.8000 -0.6927
19473TIP3    H279835   2.113   4.342   0.191  0.0395 -0.4317  0.8899
19474TIP3   OH279836   1.960   4.272   0.099  0.3595  0.7519 -0.7933
19474TIP3    H179837   1.955   4.223   0.017 -0.8439  0.0068 -0.3174
19474TIP3    H279838   1.956   4.364   0.073 -0.7417  0.5165 -1.5590
19475TIP3   OH279839   5.613   2.494   1.360 -0.2977 -0.0920 -0.4689
19475TIP3    H179840   5.597   2.535   1.275 -2.8315  0.7673  0.3257
19475TIP3    H279841   5.544   2.428   1.368 -0.2310 -0.0139  0.9978
19476TIP3   OH279842   1.716   6.671  15.509  0.2935  0.1655 -0.0498
19476TIP3    H179843   1.787   6.684  15.572  0.2647 -2.2192  0.5478
19476TIP3    H279844   1.753   6.701  15.425  1.4017  0.5342  0.5505
19477TIP3   OH279845   2.021   1.512  13.769  0.1932 -0.2876  0.4085
19477TIP3    H179846   1.994   1.477  13.685  1.2546 -2.2320  0.8287
19477TIP3    H279847   1.939   1.523  13.818 -0.2646 -1.1214 -0.1490
19478TIP3   OH279848   0.991   3.160  15.143  0.2314  0.3645 -0.3875
19478TIP3    H179849   0.913   3.113  15.175  0.3327 -0.3041 -1.0914
19478TIP3    H279850   1.059   3.138  15.207  0.3631 -0.7434 -0.8854
19479TIP3   OH279851   0.632   2.140  14.496  0.7934 -0.3970  0.3553
19479TIP3    H179852   0.633   2.055  14.453 -0.0839 -1.0931  1.6346
19479TIP3    H279853   0.647   2.203  14.426 -2.2857 -1.3351 -1.3282
19480TIP3   OH279854   0.959   1.800   5.560  0.0839  0.3701  0.5485
19480TIP3    H179855   1.004   1.880   5.533  2.2098 -0.6927  0.7192
19480TIP3    H279856   0.921   1.766   5.479 -0.6786  1.4289  0.4429
19481TIP3   OH279857   2.635   2.375  13.942  0.1118 -0.1226  0.0364
19481TIP3    H179858   2.553   2.420  13.960 -0.2996 -0.7927 -0.1443
19481TIP3    H279859   2.702   2.432  13.980 -0.2799  1.2345 -1.1900
19482TIP3   OH279860   3.268   3.643  16.554 -0.0709  0.1606  0.2866
19482TIP3    H179861   3.361   3.658  16.567 -0.0000  1.1289 -1.0918
19482TIP3    H279862   3.225   3.714  16.601 -0.2341 -1.2753  2.4114
19483TIP3   OH279863   4.194   0.263   1.146 -0.3086 -0.5952  0.0312
19483TIP3    H179864   4.170   0.180   1.188 -0.7378  0.2354  1.4964
19483TIP3    H279865   4.279   0.286   1.185  0.5900 -1.0994 -1.5359
19484TIP3   OH279866   4.021   6.486  16.242  0.0571  0.0928  0.3195
19484TIP3    H179867   3.934   6.522  16.257 -0.4319  0.1701 -2.2740
19484TIP3    H279868   4.005   6.404  16.196  1.3628 -0.0442  0.0698
19485TIP3   OH279869   2.455   5.324  11.086  0.1509  0.1753  0.0521
19485TIP3    H179870   2.508   5.369  11.020 -1.0042  1.4555 -0.0300
19485TIP3    H279871   2.414   5.252  11.038  0.9133 -0.1506 -0.1346
19486TIP3   OH279872   4.246   0.890   5.498  0.1379 -0.4598 -0.0120
19486TIP3    H179873   4.329   0.864   5.458  0.2874  0.7619 -0.5389
19486TIP3    H279874   4.180   0.840   5.450  0.5966 -1.8830  0.8057
19487TIP3   OH279875   2.603   0.544  13.095  0.7361  0.2159  0.2671
19487TIP3    H179876   2.654   0.620  13.069 -0.6955  1.2315  0.2804
19487TIP3    H279877   2.521   0.552  13.045  0.2434 -0.8821  0.8585
19488TIP3   OH279878   3.160   0.934   0.623 -0.1898  0.3978 -0.2418
19488TIP3    H179879   3.255   0.925   0.621 -0.2029  0.3259 -0.6313
19488TIP3    H279880   3.140   0.993   0.550 -0.5590 -0.6694 -1.0276
19489TIP3   OH279881   5.318   3.879  13.882 -0.2701 -0.4858 -0.6378
19489TIP3    H179882   5.317   3.966  13.922 -0.1154 -0.5689 -0.4515
19489TIP3    H279883   5.362   3.823  13.946 -1.1903 -0.9017 -0.3465
19490TIP3   OH279884   4.951   1.248  12.322 -0.3141 -0.2214  0.2036
19490TIP3    H179885   4.968   1.279  12.233  1.0331 -0.4848  0.3463
19490TIP3    H279886   5.037   1.224  12.356 -1.0206 -2.0611  0.8587
19491TIP3   OH279887   5.968   6.644  13.427 -0.2299  0.3879  0.4207
19491TIP3    H179888   6.003   6.627  13.339  0.5173 -1.0520  0.9541
19491TIP3    H279889   6.023   6.714  13.462 -0.1044  0.5105 -0.0153
19492TIP3   OH279890   5.312   4.022  15.175 -0.2184  0.4314 -0.1051
19492TIP3    H179891   5.328   4.037  15.082 -0.4916  0.8206 -0.0937
19492TIP3    H279892   5.333   3.930  15.189  0.2737  0.4868 -0.4535
19493TIP3   OH279893   3.611   0.969  10.661  0.2033 -0.3154  0.0192
19493TIP3    H179894   3.607   1.065  10.669  0.8901  0.1035 -3.1697
19493TIP3    H279895   3.521   0.943  10.640 -0.4653 -0.7434  3.0117
19494TIP3   OH279896   2.053   3.248   3.189  0.4775 -0.1168 -0.1109
19494TIP3    H179897   2.028   3.211   3.105  0.0709 -1.3171  0.5046
19494TIP3    H279898   1.996   3.324   3.201  0.9964  0.4623 -1.1991
19495TIP3   OH279899   5.772   5.861   5.192  0.2344 -0.0278  0.6162
19495TIP3    H179900   5.819   5.926   5.244  0.2323  0.1490  0.3978
19495TIP3    H279901   5.805   5.777   5.224  0.9548  0.0989  0.2379
19496TIP3   OH279902   5.408   2.783  13.119  0.6830 -0.1795  0.5425
19496TIP3    H179903   5.331   2.837  13.136  0.3833 -0.0986 -0.9994
19496TIP3    H279904   5.414   2.777  13.024  1.5313 -1.7163  0.6591
19497TIP3   OH279905   3.937   6.632  12.591 -0.0734 -0.1773  0.2942
19497TIP3    H179906   3.886   6.711  12.573  0.2831  0.0701  0.3432
19497TIP3    H279907   3.881   6.560  12.563 -0.4203  0.0914  0.2891
19498TIP3   OH279908   1.862   1.239   4.454  0.4443  0.6845 -0.0252
19498TIP3    H179909   1.816   1.160   4.482  0.4247  1.2383  1.6547
19498TIP3    H279910   1.803   1.279   4.390  1.0628 -1.3005 -1.9437
19499TIP3   OH279911   0.957   1.254   5.389 -0.4832 -0.3907  0.1749
19499TIP3    H179912   0.997   1.334   5.356 -0.5689  1.1334  3.4094
19499TIP3    H279913   0.923   1.210   5.311 -0.4645  2.7041 -1.7396
19500TIP3   OH279914   0.192   1.419  11.897 -0.3293  0.0117  0.6188
19500TIP3    H179915   0.228   1.338  11.859 -0.8683 -1.3648  2.8647
19500TIP3    H279916   0.268   1.476  11.906  0.3603 -0.8545  0.4643
19501TIP3   OH279917   6.689   4.918   5.071  0.0714 -0.3636  0.5447
19501TIP3    H179918   6.613   4.885   5.120  0.4910 -2.6549 -0.2304
19501TIP3    H279919   6.743   4.840   5.057  1.1632  0.6966 -1.4136
19502TIP3   OH279920   2.797   3.407  13.807  0.0471  0.3756 -0.1887
19502TIP3    H179921   2.841   3.326  13.781 -0.6828 -0.3242  0.6840
19502TIP3    H279922   2.813   3.467  13.735  0.6967 -0.5104 -0.8069
19503TIP3   OH279923   3.602   5.109  14.418 -0.2003 -0.6503  0.0318
19503TIP3    H179924   3.580   5.151  14.501 -1.2738  1.0362 -1.0149
19503TIP3    H279925   3.535   5.041  14.406 -1.0996  0.2394 -0.1939
19504TIP3   OH279926   6.330   2.853   1.893  0.1401  0.4529 -0.0677
19504TIP3    H179927   6.397   2.822   1.955  0.9007  0.8582 -0.6651
19504TIP3    H279928   6.367   2.933   1.857 -0.6166  0.6018 -0.5247
19505TIP3   OH279929   2.179   1.372   6.467  0.5876  0.8294  0.2810
19505TIP3    H179930   2.236   1.295   6.463 -1.6148 -1.0464  1.6580
19505TIP3    H279931   2.143   1.380   6.379  1.4937  0.8449 -0.0982
19506TIP3   OH279932   5.596   4.659   6.470 -0.2495  0.0694 -0.2619
19506TIP3    H179933   5.665   4.599   6.440  1.1183  0.9866  0.8720
19506TIP3    H279934   5.564   4.620   6.551 -1.3098 -0.5102 -0.9446
19507TIP3   OH279935   3.218   6.280   2.451  0.0634 -0.3386  0.4613
19507TIP3    H179936   3.221   6.371   2.423  0.6947  0.1056  1.8562
19507TIP3    H279937   3.209   6.229   2.370  3.7663  0.7229 -0.7964
19508TIP3   OH279938   4.708   4.694   5.006  0.3253  0.2873 -0.2688
19508TIP3    H179939   4.649   4.748   5.058 -0.6342  0.0250 -1.0717
19508TIP3    H279940   4.705   4.733   4.918  1.6370  0.4942 -0.2422
19509TIP3   OH279941   4.954   6.571   3.415  0.2522 -0.3139  0.1654
19509TIP3    H179942   5.037   6.524   3.414  1.1436  0.8510  3.7585
19509TIP3    H279943   4.887   6.503   3.420  1.2310 -1.2498  0.7282
19510TIP3   OH279944   5.252   3.400  13.327  0.3524 -0.5450  0.3933
19510TIP3    H179945   5.328   3.363  13.281  1.0253  1.2121 -0.0054
19510TIP3    H279946   5.224   3.473  13.271 -0.5411 -0.0715  1.4297
19511TIP3   OH279947   6.773   1.381  11.123 -0.3861 -0.5823  0.2115
19511TIP3    H179948   6.794   1.423  11.039 -0.7393 -1.5805 -0.3947
19511TIP3    H279949   6.856   1.342  11.151 -0.2983 -0.3669  0.2474
19512TIP3   OH279950   0.868   1.097  11.515 -0.2611  0.4360  0.0820
19512TIP3    H179951   0.932   1.042  11.561  0.8453  1.0171 -0.7226
19512TIP3    H279952   0.871   1.181  11.560  1.6129  1.3558 -1.6350
19513TIP3   OH279953   3.362   4.450   0.673  0.2564 -0.4626  0.4924
19513TIP3    H179954   3.319   4.496   0.600  1.5338 -0.3022 -0.1795
19513TIP3    H279955   3.324   4.362   0.672  0.4708 -0.5501 -0.5521
19514TIP3   OH279956   4.297   0.088  13.057  0.1141  0.7927  0.2361
19514TIP3    H179957   4.392   0.095  13.060  0.1088  0.6616  0.8699
19514TIP3    H279958   4.270   0.091  13.149 -0.5550  1.7126  0.0267
19515TIP3   OH279959   0.711   6.200   1.282 -0.3616 -0.1605  0.4505
19515TIP3    H179960   0.711   6.105   1.291  0.2851 -0.2299 -0.1690
19515TIP3    H279961   0.804   6.225   1.285 -0.5031  0.4145  0.2959
19516TIP3   OH279962   4.928   0.839  13.747 -0.3258 -0.3290  0.1004
19516TIP3    H179963   4.914   0.805  13.835 -1.6708  0.9403  0.4181
19516TIP3    H279964   4.841   0.864  13.717  0.2814  0.4112 -1.1054
19517TIP3   OH279965   6.051   1.621   5.338 -0.7777  0.2783 -0.1261
19517TIP3    H179966   6.075   1.544   5.287 -2.2266 -1.9088  2.2357
19517TIP3    H279967   6.129   1.640   5.390 -0.8781 -0.6193  0.3849
19518TIP3   OH279968   6.324   5.501   3.951  0.1568  0.2334 -0.0367
19518TIP3    H179969   6.358   5.412   3.942 -0.6644 -0.3402  2.0676
19518TIP3    H279970   6.402   5.556   3.960  0.7564  0.0305 -2.8410
19519TIP3   OH279971   4.805   6.729   1.276  0.5445  0.7308  0.0984
19519TIP3    H179972   4.749   6.798   1.241  1.7936  1.5454 -0.4063
19519TIP3    H279973   4.756   6.692   1.349 -1.2677  0.3857 -1.2133
19520TIP3   OH279974   0.834   2.719  12.222 -0.2093  0.6813 -0.2934
19520TIP3    H179975   0.925   2.747  12.232  0.3250 -0.4506 -1.5900
19520TIP3    H279976   0.826   2.699  12.128 -1.4670 -0.3316  0.0058
19521TIP3   OH279977   1.454   5.533  11.313 -0.4987 -0.6474 -0.1709
19521TIP3    H179978   1.488   5.620  11.332 -2.9186  0.3297 -0.0042
19521TIP3    H279979   1.522   5.492  11.259  1.3745  0.7316  1.0327
19522TIP3   OH279980   2.992   5.264   3.856 -0.2639  0.2516  0.5087
19522TIP3    H179981   3.086   5.247   3.843 -0.2618 -0.6568  1.5778
19522TIP3    H279982   2.984   5.281   3.949 -1.3094 -0.6858  0.6053
19523TIP3   OH279983   5.211   3.755   3.601  0.5181  0.2082 -0.3037
19523TIP3    H179984   5.203   3.729   3.693  0.3006 -1.7619 -0.8246
19523TIP3    H279985   5.234   3.847   3.604  0.0904  0.3038  1.7215
19524TIP3   OH279986   2.124   0.306  12.504  0.2579 -0.2135  0.1465
19524TIP3    H179987   2.046   0.258  12.478 -0.7382  0.9986  0.8104
19524TIP3    H279988   2.169   0.325  12.422 -0.5815 -0.1909 -0.3165
19525TIP3   OH279989   0.218   5.512   3.520 -0.3077  0.7821 -0.1162
19525TIP3    H179990   0.128   5.509   3.488 -0.1195  2.7116 -0.9394
19525TIP3    H279991   0.271   5.485   3.445 -0.1310  0.8462 -0.0141
19526TIP3   OH279992   2.650   3.164  13.540  0.2442 -0.0603 -0.0524
19526TIP3    H179993   2.717   3.095  13.535 -0.0303 -0.3702  0.4576
19526TIP3    H279994   2.693   3.241  13.503  1.4046  0.1198  1.5625
19527TIP3   OH279995   3.784   1.883  10.802  1.0648  0.7337  0.3783
19527TIP3    H179996   3.806   1.794  10.776  0.1884  1.1765 -2.1467
19527TIP3    H279997   3.869   1.927  10.812  1.4759 -0.0845  0.5497
19528TIP3   OH279998   3.736   0.962  11.516  0.0411  0.3383 -0.1092
19528TIP3    H179999   3.807   0.987  11.576 -1.6467  2.2262  1.2288
19528TIP3    H280000   3.691   0.891  11.561  1.5102 -1.5042 -1.3748
19529TIP3   OH280001   3.541   5.909   2.844  0.7647  0.6821  0.5459
19529TIP3    H180002   3.488   5.894   2.766  0.2983  0.7574  0.8428
19529TIP3    H280003   3.484   5.960   2.902  0.5583 -0.6054  1.5262
19530TIP3   OH280004   3.168   5.168   5.464 -0.0296 -0.0770 -0.0767
19530TIP3    H180005   3.168   5.072   5.461 -2.2085 -0.1666  0.9390
19530TIP3    H280006   3.236   5.190   5.528  0.8004 -0.9003 -0.6509
19531TIP3   OH280007   2.802   5.552  11.131  0.1527  0.2124 -0.1433
19531TIP3    H180008   2.863   5.613  11.091  0.8698  0.2900  1.0178
19531TIP3    H280009   2.768   5.598  11.208 -0.9637 -0.0368 -0.4610
19532TIP3   OH280010   3.340   6.701  15.809 -0.3103 -0.8042  0.4528
19532TIP3    H180011   3.398   6.749  15.750 -0.4074  0.4497  1.3318
19532TIP3    H280012   3.301   6.633  15.754  1.4619 -1.2495 -0.3147
19533TIP3   OH280013   4.379   3.076   2.754 -0.6399 -0.5214 -0.3280
19533TIP3    H180014   4.334   3.012   2.809 -1.2872 -0.3650 -0.6665
19533TIP3    H280015   4.312   3.140   2.731 -0.5616 -0.9227 -1.8177
19534TIP3   OH280016   5.558   5.978   2.096 -0.2789 -0.5297 -0.0478
19534TIP3    H180017   5.646   5.949   2.071  0.0695 -1.4252  2.0179
19534TIP3    H280018   5.565   6.073   2.101 -0.0579 -0.4034 -2.0378
19535TIP3   OH280019   6.648   1.783  12.923  0.0121 -1.0392  0.3502
19535TIP3    H180020   6.596   1.851  12.966  1.0290  1.2768 -1.7925
19535TIP3    H280021   6.722   1.768  12.983 -1.2217 -1.7796  1.7554
19536TIP3   OH280022   3.354   4.787   1.544  0.2226 -0.2337 -0.6093
19536TIP3    H180023   3.279   4.823   1.591 -1.4572 -0.3924 -3.0246
19536TIP3    H280024   3.430   4.820   1.592 -1.2553 -2.0565  3.4559
19537TIP3   OH280025   4.065   1.872  12.176  0.6608  0.4553  0.0476
19537TIP3    H180026   4.102   1.881  12.089  1.4542  0.5731  0.3898
19537TIP3    H280027   4.007   1.948  12.186 -1.4577 -0.8572 -1.3189
19538TIP3   OH280028   2.017   0.478  14.140 -1.0968 -0.0351  0.1364
19538TIP3    H180029   2.065   0.517  14.066  0.0684 -1.9180 -0.1917
19538TIP3    H280030   1.963   0.410  14.099 -1.8040  0.1036  0.8395
19539TIP3   OH280031   2.457   0.681  11.050  0.9346  0.1696  0.7587
19539TIP3    H180032   2.538   0.658  11.004 -1.3996 -0.4590 -3.5454
19539TIP3    H280033   2.414   0.597  11.066  0.1246  0.6241  1.0271
19540TIP3   OH280034   3.173   2.472   0.064  0.0761 -0.2627  0.2389
19540TIP3    H180035   3.196   2.517  -0.016  1.0968 -0.5173  0.3770
19540TIP3    H280036   3.085   2.438   0.048  0.7582 -1.4467 -1.2893
19541TIP3   OH280037   3.489   0.671   1.237  0.0552 -0.1169  0.7253
19541TIP3    H180038   3.538   0.590   1.223 -1.3179 -1.0054  0.8046
19541TIP3    H280039   3.430   0.677   1.162 -0.0202  0.6837  0.8379
19542TIP3   OH280040   6.702   1.181  12.770 -0.4427 -0.0765  0.5621
19542TIP3    H180041   6.675   1.224  12.851 -0.6219 -0.3045  0.6231
19542TIP3    H280042   6.767   1.117  12.796  0.7365  0.9843  0.3267
19543TIP3   OH280043   5.896   4.626   2.938  0.6703  1.2559  0.3514
19543TIP3    H180044   5.925   4.582   2.858  0.5234 -0.4426  1.1957
19543TIP3    H280045   5.936   4.713   2.933  1.5520  0.7998 -1.0369
19544TIP3   OH280046   1.647   4.821   2.827  0.3758  0.1832 -0.3423
19544TIP3    H180047   1.729   4.783   2.859 -0.6686 -1.6363  0.3001
19544TIP3    H280048   1.670   4.859   2.742  1.9294 -0.0251 -0.0382
19545TIP3   OH280049   0.456   4.232  15.012 -0.1449 -0.0838 -0.2272
19545TIP3    H180050   0.550   4.214  15.006  0.1869  1.5226 -0.1024
19545TIP3    H280051   0.429   4.195  15.096  0.9603  1.7999  1.0137
19546TIP3   OH280052   3.457   2.944  11.072  0.2321  0.7384 -0.2684
19546TIP3    H180053   3.476   3.011  11.007  1.5726 -0.1685 -0.8504
19546TIP3    H280054   3.511   2.870  11.047  1.7253  0.7496  2.5282
19547TIP3   OH280055   5.447   5.216  16.535  0.0174 -0.5569  0.1018
19547TIP3    H180056   5.523   5.245  16.483  0.6064 -1.3234  0.5177
19547TIP3    H280057   5.424   5.293  16.587  0.7275 -0.4160  0.2234
19548TIP3   OH280058   3.425   6.140  16.502 -0.2076 -0.3432 -0.0044
19548TIP3    H180059   3.477   6.061  16.488  1.2035  0.8427 -1.9312
19548TIP3    H280060   3.475   6.190  16.567  0.5750  0.3426 -1.1101
19549TIP3   OH280061   2.749   4.901   0.735  0.7751 -0.1777 -0.1577
19549TIP3    H180062   2.662   4.880   0.770  0.8203  1.1169  0.7758
19549TIP3    H280063   2.792   4.816   0.726 -0.6103 -0.8467 -0.7362
19550TIP3   OH280064   0.790   6.337   3.434 -0.5857 -0.1169 -0.2629
19550TIP3    H180065   0.774   6.258   3.382  0.9873  1.2508 -3.0671
19550TIP3    H280066   0.758   6.409   3.379  0.2034  1.3757  1.1380
19551TIP3   OH280067   2.596   3.612   6.598  0.4993  0.2255 -0.6477
19551TIP3    H180068   2.617   3.600   6.505 -1.8457 -0.9020 -1.1135
19551TIP3    H280069   2.630   3.699   6.619  3.5134 -0.5421 -1.7753
19552TIP3   OH280070   3.109   5.220  15.153  0.0678  0.8916  0.1652
19552TIP3    H180071   3.140   5.233  15.243 -2.0435  1.5880  0.8374
19552TIP3    H280072   3.159   5.144  15.122  0.2399  0.0951  2.2208
19553TIP3   OH280073   5.007   0.936   3.665  0.0692  0.2036 -0.0375
19553TIP3    H180074   5.014   0.852   3.710  0.3240  1.5941  2.7816
19553TIP3    H280075   4.915   0.941   3.638 -0.5317 -0.1405  1.7499
19554TIP3   OH280076   5.563   0.442   4.823  0.4887 -0.1692  0.3797
19554TIP3    H180077   5.574   0.351   4.848  0.7826 -0.4893 -0.8166
19554TIP3    H280078   5.648   0.482   4.841 -0.2571  0.4525  2.9769
19555TIP3   OH280079   2.732   3.711   9.938 -0.0393  0.3507 -0.9189
19555TIP3    H180080   2.824   3.739   9.932 -0.2502  1.3159  0.0660
19555TIP3    H280081   2.730   3.652  10.014 -0.0020 -0.7277 -1.7305
19556TIP3   OH280082   5.930   5.424  14.946 -0.9212  0.4538 -0.1180
19556TIP3    H180083   5.843   5.401  14.913 -0.2904  0.3433 -1.8341
19556TIP3    H280084   5.926   5.518  14.962 -1.0091  0.7081 -1.4780
19557TIP3   OH280085   6.315   4.672  12.053  0.2330 -0.1947 -0.2104
19557TIP3    H180086   6.368   4.752  12.055  1.1919 -0.8196  0.9299
19557TIP3    H280087   6.230   4.700  12.018  0.0924  1.6066  1.4289
19558TIP3   OH280088   4.660   2.057   6.304 -0.0803 -0.1864 -0.0281
19558TIP3    H180089   4.709   2.007   6.369 -0.5173  0.0246  0.4768
19558TIP3    H280090   4.613   1.990   6.253 -2.2356 -0.2722  1.9176
19559TIP3   OH280091   1.863   5.633   1.430 -0.0668  0.2293  0.3189
19559TIP3    H180092   1.867   5.595   1.342  0.6955 -0.7525  0.7536
19559TIP3    H280093   1.871   5.557   1.489 -1.1463  0.7982  1.2455
19560TIP3   OH280094   0.174   2.161  12.493  0.5039 -0.3187  0.1776
19560TIP3    H180095   0.223   2.084  12.521 -0.2591 -1.0677 -0.4658
19560TIP3    H280096   0.133   2.134  12.410 -0.1625  0.6170  0.1868
19561TIP3   OH280097   3.250   1.862   1.111 -0.2700 -0.4807  0.1734
19561TIP3    H180098   3.295   1.800   1.053 -1.4538 -1.0560 -0.1699
19561TIP3    H280099   3.186   1.904   1.054  0.4447  1.0135  0.4268
19562TIP3   OH280100   3.915   5.127  13.476 -0.3522  0.7388 -0.2062
19562TIP3    H180101   3.918   5.221  13.492 -1.1146  0.7552 -0.1123
19562TIP3    H280102   3.840   5.115  13.417  1.1909  0.4467 -2.1847
19563TIP3   OH280103   6.651   2.157   0.966  0.4430 -0.1854  0.0942
19563TIP3    H180104   6.633   2.244   1.001  1.0984  0.0546 -0.1460
19563TIP3    H280105   6.566   2.123   0.940  0.0387 -0.0385  1.1500
19564TIP3   OH280106   1.779   2.620  11.348  0.3607 -0.6417 -1.0656
19564TIP3    H180107   1.873   2.628  11.363  0.5438  0.1887 -2.4144
19564TIP3    H280108   1.771   2.599  11.255 -0.8135  2.0310 -1.6793
19565TIP3   OH280109   1.633   6.788   2.613 -0.4092  0.2516  0.2143
19565TIP3    H180110   1.611   6.696   2.626  1.8291 -0.1547  1.6298
19565TIP3    H280111   1.725   6.787   2.587  0.0629  2.1550  1.6484
19566TIP3   OH280112   2.618   4.544  17.064 -0.1390  0.1020 -0.0452
19566TIP3    H180113   2.620   4.637  17.041 -1.8228 -0.2060 -1.6849
19566TIP3    H280114   2.670   4.502  16.995 -2.8054 -0.5365 -1.8107
19567TIP3   OH280115   4.509   2.398   0.218 -0.2146 -0.1486  0.2901
19567TIP3    H180116   4.511   2.312   0.259 -0.5911  0.9086  2.7059
19567TIP3    H280117   4.544   2.457   0.285 -2.2382  1.8984 -0.3490
19568TIP3   OH280118   5.715   6.610  13.034  0.0679 -0.3021 -0.3623
19568TIP3    H180119   5.685   6.685  12.983 -2.7299 -0.4328  0.9020
19568TIP3    H280120   5.785   6.645  13.089 -0.9935  1.3547  0.0032
19569TIP3   OH280121   2.036   0.658   5.519  0.3191  0.1517 -0.5146
19569TIP3    H180122   2.074   0.687   5.436  1.5565  1.4984  0.4603
19569TIP3    H280123   1.973   0.726   5.542 -0.2662 -0.3888 -0.5205
19570TIP3   OH280124   1.601   3.253  15.255 -0.0014 -0.8231  0.3041
19570TIP3    H180125   1.570   3.191  15.321 -0.2073 -0.9805  0.0622
19570TIP3    H280126   1.627   3.330  15.305  0.1778 -1.0714  0.6016
19571TIP3   OH280127   3.462   4.893   5.094 -0.9149 -0.2928  0.2161
19571TIP3    H180128   3.496   4.966   5.043 -0.2032  0.2060  1.3654
19571TIP3    H280129   3.486   4.815   5.043  0.1281  0.1658 -0.0166
19572TIP3   OH280130   4.137   4.217  11.291  0.0197 -0.0293 -0.5399
19572TIP3    H180131   4.169   4.163  11.219  0.1787  0.2153 -0.6553
19572TIP3    H280132   4.210   4.220  11.353 -0.6275 -1.4590  0.3378
19573TIP3   OH280133   5.838   6.490  14.525  0.3190  0.1573  0.0779
19573TIP3    H180134   5.748   6.525  14.520  0.2616  0.6574  2.9032
19573TIP3    H280135   5.833   6.423  14.593  1.8139 -0.8979 -0.8095
19574TIP3   OH280136   1.032   1.079   2.091 -0.6514 -0.2208  0.6581
19574TIP3    H180137   1.057   1.093   1.999  0.5489  2.2242  1.2694
19574TIP3    H280138   1.115   1.082   2.139 -1.4553  1.4386  2.0843
19575TIP3   OH280139   6.359   0.255   6.476 -0.2135 -0.0556 -0.4775
19575TIP3    H180140   6.280   0.309   6.481 -0.4192 -0.3479 -0.5334
19575TIP3    H280141   6.326   0.165   6.478  0.0991 -0.1772 -0.7744
19576TIP3   OH280142   4.710   4.663  11.911  0.7286  0.0847 -0.6231
19576TIP3    H180143   4.661   4.742  11.936  1.5838  0.2544  0.5663
19576TIP3    H280144   4.650   4.616  11.852 -0.5873  0.6318  0.2240
19577TIP3   OH280145   6.047   2.403   3.294 -0.7510  0.5808 -0.6029
19577TIP3    H180146   6.070   2.378   3.383 -0.4148  2.2813 -0.1852
19577TIP3    H280147   6.130   2.402   3.246 -0.5100  2.0614 -0.2653
19578TIP3   OH280148   3.880   5.258  11.997 -0.4768  0.6496  0.1071
19578TIP3    H180149   3.833   5.282  12.077 -1.1143 -1.5417  0.4418
19578TIP3    H280150   3.836   5.308  11.928 -2.2374 -0.0779  0.6566
19579TIP3   OH280151   3.414   2.172   6.071 -0.1404 -0.0874 -0.2110
19579TIP3    H180152   3.495   2.197   6.115 -1.4145  0.3252  2.0566
19579TIP3    H280153   3.428   2.081   6.044  0.7607 -0.2976  0.9211
19580TIP3   OH280154   2.877   5.285  12.818 -0.1041  0.0355 -0.7122
19580TIP3    H180155   2.931   5.285  12.740  1.3437  0.1288  0.2573
19580TIP3    H280156   2.898   5.202  12.862  1.7104  1.4538  1.2821
19581TIP3   OH280157   2.425   3.607  16.567  0.3606  0.1324 -0.9929
19581TIP3    H180158   2.350   3.565  16.526 -2.0777  3.4828 -0.3700
19581TIP3    H280159   2.467   3.656  16.496 -0.9771  2.0698 -0.5027
19582TIP3   OH280160   5.516   3.123   1.974 -0.0577  0.4237 -0.5337
19582TIP3    H180161   5.562   3.048   1.938 -0.9234  0.8414 -2.6975
19582TIP3    H280162   5.424   3.109   1.948 -0.5207  1.3987  0.4884
19583TIP3   OH280163   5.405   1.862  15.303 -0.4510  0.2375  0.4218
19583TIP3    H180164   5.337   1.929  15.300  0.2228  0.9270  0.0796
19583TIP3    H280165   5.486   1.909  15.282 -0.0064 -0.7353 -0.1378
19584TIP3   OH280166   1.913   3.885  11.892 -0.0772  0.4243  0.0288
19584TIP3    H180167   1.854   3.960  11.899 -1.3491 -0.3871 -1.2692
19584TIP3    H280168   1.867   3.814  11.937  0.3760  0.0407 -0.1073
19585TIP3   OH280169   1.558   4.118  15.766  0.2065  0.3203  0.1581
19585TIP3    H180170   1.646   4.146  15.792  0.1594  1.2464 -0.6328
19585TIP3    H280171   1.500   4.182  15.807 -0.0439  0.2041 -0.0165
19586TIP3   OH280172   6.757   0.605   0.385  0.2765  0.3174 -0.1651
19586TIP3    H180173   6.809   0.545   0.439 -0.9894 -1.1568 -0.4813
19586TIP3    H280174   6.668   0.594   0.418  0.1351  2.8513  0.4309
19587TIP3   OH280175   4.017   5.059  16.900 -0.2860 -0.4683  0.3119
19587TIP3    H180176   3.979   5.136  16.857  0.4353  0.0191  0.5383
19587TIP3    H280177   4.099   5.090  16.937  0.6959 -1.6724 -0.7613
19588TIP3   OH280178   0.785   3.398   3.741  0.1081  0.6733 -0.2288
19588TIP3    H180179   0.695   3.413   3.770 -0.7616 -1.5804 -1.5144
19588TIP3    H280180   0.799   3.465   3.675 -0.3892  1.4545  0.4371
19589TIP3   OH280181   5.192   6.761   3.652  0.3417  0.0447  0.3997
19589TIP3    H180182   5.209   6.685   3.597  1.6272  2.3821 -2.7207
19589TIP3    H280183   5.115   6.802   3.613  0.1184  0.7890  1.5538
19590TIP3   OH280184   2.700   0.310  14.366 -0.4956 -0.5328  0.2474
19590TIP3    H180185   2.739   0.344  14.286  1.7296 -3.1166  0.0815
19590TIP3    H280186   2.606   0.317  14.352 -0.1625  1.2810 -1.5349
19591TIP3   OH280187   4.072   5.677  15.131  0.2677 -0.2469 -0.1566
19591TIP3    H180188   4.040   5.767  15.137 -0.4345 -0.5241  0.4234
19591TIP3    H280189   4.104   5.657  15.219  0.5970 -0.5088 -0.3308
19592TIP3   OH280190   6.762   5.054  14.163  0.3445  0.3523  0.2012
19592TIP3    H180191   6.773   4.992  14.091 -0.4228 -0.8854  1.0999
19592TIP3    H280192   6.677   5.095  14.146  0.1248 -0.0005  0.4323
19593TIP3   OH280193   2.234   0.071  14.719  0.1329 -0.1776 -0.4766
19593TIP3    H180194   2.187   0.058  14.637  1.7961  1.5459 -1.8073
19593TIP3    H280195   2.200   0.154  14.754  0.0219 -0.4771  0.1397
19594TIP3   OH280196   6.375   3.779  12.272  0.1766 -0.3049 -0.0395
19594TIP3    H180197   6.378   3.690  12.237  0.6374 -0.0409 -0.6965
19594TIP3    H280198   6.281   3.800  12.276 -0.0467 -1.4436  1.8045
19595TIP3   OH280199   4.724   1.084  16.743 -0.1606  0.0081  0.1829
19595TIP3    H180200   4.717   0.998  16.703 -0.3703 -0.1386  0.5366
19595TIP3    H280201   4.817   1.107  16.735 -0.0040 -0.4785  0.5596
19596TIP3   OH280202   0.673   3.700  13.006  0.0194 -0.5186  0.1820
19596TIP3    H180203   0.754   3.737  12.970  0.0082 -0.6466  0.0248
19596TIP3    H280204   0.668   3.612  12.968 -0.5337 -0.2773 -0.3305
19597TIP3   OH280205   6.435   2.001   0.080 -0.3460 -0.2244  0.1356
19597TIP3    H180206   6.392   1.946   0.145 -0.2325  1.2981  1.5714
19597TIP3    H280207   6.526   1.972   0.081 -0.0659  0.6079  1.6286
19598TIP3   OH280208   1.549   6.669   5.736  1.0156  0.0983  0.5987
19598TIP3    H180209   1.598   6.616   5.674  0.1983  1.3648 -1.2387
19598TIP3    H280210   1.597   6.752   5.740 -0.2307  0.9154 -0.2955
19599TIP3   OH280211   3.485   0.951  12.456  0.0358  0.0075  0.1759
19599TIP3    H180212   3.528   0.868  12.437  0.2443  0.0917  0.2806
19599TIP3    H280213   3.397   0.941  12.419 -0.9220 -1.3402  2.5898
19600TIP3   OH280214   6.217   6.443   0.707 -0.3631 -0.3382 -0.3046
19600TIP3    H180215   6.164   6.388   0.648  2.1408 -1.6580 -1.4947
19600TIP3    H280216   6.210   6.531   0.669  0.5810 -1.0227 -2.2506
19601TIP3   OH280217   4.280   4.931   3.925  0.6147  0.6363  0.1885
19601TIP3    H180218   4.226   4.909   4.000  0.9229 -1.2777 -0.0843
19601TIP3    H280219   4.369   4.908   3.953  0.5242 -1.9411 -1.3091
19602TIP3   OH280220   2.758   3.373   0.416  0.6066  0.1532  0.0555
19602TIP3    H180221   2.671   3.396   0.450  0.2854 -2.6624  1.4627
19602TIP3    H280222   2.815   3.443   0.448 -0.6735  0.5098  1.7162
19603TIP3   OH280223   3.088   6.575   5.437 -0.5793 -1.0371 -0.2071
19603TIP3    H180224   3.045   6.498   5.473 -1.0811 -0.1290  1.2414
19603TIP3    H280225   3.017   6.640   5.429  0.0701 -0.2929 -0.0773
19604TIP3   OH280226   4.062   4.208  11.859  0.6757  0.2224 -0.6638
19604TIP3    H180227   4.087   4.123  11.894  0.4544  0.0756 -0.8652
19604TIP3    H280228   4.119   4.221  11.783  1.9547  1.0378  0.3726
19605TIP3   OH280229   0.020   1.272   4.748 -0.1554  0.2463  0.3348
19605TIP3    H180230   0.058   1.187   4.771  0.3906  0.4251  0.0908
19605TIP3    H280231  -0.023   1.301   4.828  0.9943  0.4620  0.8963
19606TIP3   OH280232   5.743   1.241   4.201 -0.0892 -0.0587 -0.2347
19606TIP3    H180233   5.682   1.307   4.168  0.5240  1.5578  1.6415
19606TIP3    H280234   5.704   1.212   4.284 -0.1523 -1.8358 -0.8423
19607TIP3   OH280235   1.117   0.167  14.658 -0.2086  0.4332 -0.3448
19607TIP3    H180236   1.120   0.201  14.748  2.1401  0.8879 -0.5335
19607TIP3    H280237   1.180   0.095  14.657 -0.0321  0.5835 -1.6975
19608TIP3   OH280238   3.078   5.293  13.105 -0.0984  0.1718 -0.4300
19608TIP3    H180239   3.024   5.224  13.067  1.1881 -1.6806  0.8865
19608TIP3    H280240   3.028   5.324  13.181  0.0307 -0.5224 -0.0533
19609TIP3   OH280241   5.671   5.292   5.264  0.1557  0.2138  0.7537
19609TIP3    H180242   5.662   5.374   5.217  0.1631 -0.9219 -1.3242
19609TIP3    H280243   5.581   5.267   5.285 -0.0993 -0.6044 -1.1348
19610TIP3   OH280244   4.506   1.435   1.786 -0.3225  0.9013  0.1099
19610TIP3    H180245   4.533   1.363   1.844 -1.4212 -0.0330 -0.4935
19610TIP3    H280246   4.571   1.436   1.716 -0.5227  0.2218 -0.0896
19611TIP3   OH280247   2.563   4.531   6.528 -0.9041  0.4238 -0.4244
19611TIP3    H180248   2.497   4.599   6.542 -1.5594  0.3556 -2.7224
19611TIP3    H280249   2.594   4.545   6.438  0.8321 -0.7436 -0.0752
19612TIP3   OH280250   0.996   5.089   5.701  0.6237  0.5325 -0.0782
19612TIP3    H180251   0.983   5.130   5.615 -1.4762  0.9693  0.4101
19612TIP3    H280252   1.090   5.099   5.718  1.4527 -1.0486 -3.0369
19613TIP3   OH280253   3.772   1.541   4.584  0.0967 -0.8693  0.8969
19613TIP3    H180254   3.689   1.494   4.580 -0.7634  0.5299  1.4298
19613TIP3    H280255   3.806   1.537   4.494 -1.9329  0.8547 -0.0445
19614TIP3   OH280256   4.398   2.562   5.453  0.0235  0.0439 -0.1405
19614TIP3    H180257   4.392   2.657   5.442  2.5182  0.2409 -0.4008
19614TIP3    H280258   4.354   2.526   5.376 -1.7692  0.9166  0.4176
19615TIP3   OH280259   3.488   2.890   3.694 -0.4774 -0.2280  0.2301
19615TIP3    H180260   3.489   2.883   3.790  0.4341  0.7311  0.3060
19615TIP3    H280261   3.570   2.933   3.672 -0.2005 -1.3603 -1.0820
19616TIP3   OH280262   0.244   4.844   2.861 -0.6570  0.0426  1.0576
19616TIP3    H180263   0.196   4.764   2.843 -0.2086  0.2438 -1.3779
19616TIP3    H280264   0.235   4.896   2.781  0.5567  1.6516  1.9030
19617TIP3   OH280265   0.582   4.072  12.145 -0.1353 -0.1071 -0.0310
19617TIP3    H180266   0.598   4.003  12.080 -1.4178 -0.4894  0.0256
19617TIP3    H280267   0.549   4.146  12.093 -1.4584 -0.5182  0.1870
19618TIP3   OH280268   0.654   1.856   2.665 -0.2055  0.0330 -0.2951
19618TIP3    H180269   0.707   1.778   2.649  0.1473 -0.1674  1.6145
19618TIP3    H280270   0.638   1.892   2.578  1.4085 -0.9867 -1.0711
19619TIP3   OH280271   4.980   6.186   5.237 -0.4506 -1.0823  0.0530
19619TIP3    H180272   5.017   6.274   5.239  0.1258 -1.2994 -0.6716
19619TIP3    H280273   4.974   6.161   5.329 -0.2413 -0.4432  0.2476
19620TIP3   OH280274   2.605   5.523  12.649  0.5731  0.6328 -0.2403
19620TIP3    H180275   2.536   5.465  12.680  1.4274  1.2999  3.2935
19620TIP3    H280276   2.560   5.584  12.590 -1.6571  0.3362  1.0219
19621TIP3   OH280277   5.990   1.871  10.797 -0.3435  0.3216  0.5701
19621TIP3    H180278   5.963   1.813  10.726 -1.0560  0.3312  0.8260
19621TIP3    H280279   5.920   1.936  10.803  0.3865  1.1391  0.3718
19622TIP3   OH280280   3.573   0.146   3.796  0.6107  0.7547 -0.7747
19622TIP3    H180281   3.644   0.093   3.833  1.6314  1.3836 -1.7390
19622TIP3    H280282   3.556   0.106   3.710 -1.3266 -0.3486  0.0755
19623TIP3   OH280283   2.473   1.384   1.099 -0.1983  0.6307 -0.1921
19623TIP3    H180284   2.537   1.320   1.066 -0.3226  0.3076  0.1818
19623TIP3    H280285   2.514   1.421   1.177 -0.0541  1.1369 -0.5084
19624TIP3   OH280286   0.907   4.173  14.121  0.2172 -0.1679 -0.1516
19624TIP3    H180287   0.857   4.228  14.061 -2.2533 -0.9990  1.0199
19624TIP3    H280288   0.913   4.225  14.202  2.9651  0.6824 -0.7866
19625TIP3   OH280289   1.977   6.785   2.272 -0.3079  0.0046  0.8916
19625TIP3    H180290   2.063   6.744   2.281 -0.3842  0.0337  1.8502
19625TIP3    H280291   1.983   6.837   2.192  0.2536 -0.7453  0.4328
19626TIP3   OH280292   4.225   0.419   5.762  0.0652  0.5083  0.6948
19626TIP3    H180293   4.173   0.353   5.809  1.5761 -0.2787  1.3110
19626TIP3    H280294   4.230   0.386   5.673 -2.9657  2.0943 -0.2164
19627TIP3   OH280295   1.838   1.794  14.762  0.9139 -0.0425  0.1246
19627TIP3    H180296   1.788   1.772  14.683  0.6327  1.0417 -0.0175
19627TIP3    H280297   1.805   1.734  14.829  2.8264 -2.6353 -1.1022
19628TIP3   OH280298   2.921   1.375   0.237  0.2474 -0.0072  0.4560
19628TIP3    H180299   3.012   1.377   0.268 -0.3512 -1.0900  2.4209
19628TIP3    H280300   2.876   1.317   0.298 -2.1589  1.8235  0.5690
19629TIP3   OH280301   0.629   6.781   0.007 -0.1198  0.1694  0.2058
19629TIP3    H180302   0.661   6.859  -0.040 -0.7239  0.0927 -0.3521
19629TIP3    H280303   0.662   6.791   0.096  1.3229  0.1641 -0.3073
19630TIP3   OH280304   1.308   5.125   3.456  0.0480 -0.0384 -0.2183
19630TIP3    H180305   1.265   5.154   3.536  1.0489 -1.1104  0.7447
19630TIP3    H280306   1.364   5.199   3.431  0.4666 -0.0618  0.6267
19631TIP3   OH280307   2.373   2.728  15.108  0.3833 -0.5620  0.6530
19631TIP3    H180308   2.364   2.819  15.136 -0.2943 -0.7449  1.0395
19631TIP3    H280309   2.391   2.734  15.014  0.1108 -0.0387  0.6300
19632TIP3   OH280310   3.065   3.535  10.908  0.0450 -0.5210 -0.4498
19632TIP3    H180311   2.990   3.593  10.925 -1.1735 -1.9015 -0.8979
19632TIP3    H280312   3.117   3.582  10.843 -1.4030 -0.3068 -1.4961
19633TIP3   OH280313   2.994   5.327   3.398  0.3185  0.3587  0.0993
19633TIP3    H180314   2.953   5.413   3.406  1.3186  0.7806  0.8549
19633TIP3    H280315   2.925   5.271   3.362  0.2646  1.9241 -2.5057
19634TIP3   OH280316   0.957   2.326  11.288 -0.5317 -0.0969  0.1113
19634TIP3    H180317   0.988   2.393  11.226 -1.2280 -0.4666 -0.6450
19634TIP3    H280318   0.873   2.298  11.253 -0.7346 -0.6262  1.0025
19635TIP3   OH280319   3.768   5.224  16.214 -0.8406 -0.0395  0.3986
19635TIP3    H180320   3.860   5.197  16.206 -1.0296 -1.0773  1.3819
19635TIP3    H280321   3.741   5.243  16.124  0.4362  0.6723  0.1343
19636TIP3   OH280322   5.110   3.188  14.181  0.1665  0.4743  0.0482
19636TIP3    H180323   5.139   3.224  14.097  0.0922 -1.3973 -0.8279
19636TIP3    H280324   5.191   3.178  14.231  0.1374  2.2807  0.5342
19637TIP3   OH280325   4.179   3.265   4.639  0.2421  0.4657 -0.6136
19637TIP3    H180326   4.210   3.337   4.694 -0.5822 -1.7005  3.0646
19637TIP3    H280327   4.084   3.265   4.650  0.3325 -2.2220  1.1776
19638TIP3   OH280328   1.868   2.096  15.662  0.2927 -0.1524  0.1696
19638TIP3    H180329   1.951   2.074  15.706  0.6438  0.5431 -0.1317
19638TIP3    H280330   1.895   2.132  15.577 -0.3822 -3.7225 -1.7641
19639TIP3   OH280331   2.404   2.269  11.894  0.2583 -0.0576 -0.1639
19639TIP3    H180332   2.475   2.215  11.861  0.5175  0.0841  0.1634
19639TIP3    H280333   2.416   2.354  11.852  0.0953 -0.1270 -0.3536
19640TIP3   OH280334   0.669   2.669   1.277 -0.2264 -0.4768  0.4800
19640TIP3    H180335   0.642   2.760   1.263 -1.1763 -1.0136 -1.5887
19640TIP3    H280336   0.705   2.668   1.366 -1.5934  1.5817  1.1366
19641TIP3   OH280337   6.794   2.398   2.609  0.0821 -0.3643 -0.2803
19641TIP3    H180338   6.726   2.346   2.652  1.1933 -0.9485  0.8345
19641TIP3    H280339   6.769   2.399   2.517 -2.0582  0.4222  0.2533
19642TIP3   OH280340   6.281   2.008  14.638  0.1545  0.4021 -0.0659
19642TIP3    H180341   6.361   1.965  14.610  0.0718  0.3291 -0.1912
19642TIP3    H280342   6.226   1.937  14.670 -0.0105  0.4030 -0.3408
19643TIP3   OH280343   0.269   0.800   0.157 -0.1057 -0.5208  0.0796
19643TIP3    H180344   0.328   0.875   0.157  1.8552 -1.9752  0.7079
19643TIP3    H280345   0.212   0.813   0.233  0.6513  0.0123  0.5599
19644TIP3   OH280346   2.830   5.883  12.806  0.1386  0.2108  0.0517
19644TIP3    H180347   2.854   5.872  12.714  0.2780  0.1807  0.0927
19644TIP3    H280348   2.791   5.799  12.831  0.0220  0.2472 -0.0035
19645TIP3   OH280349   4.981   0.379   6.041 -0.5843 -0.5740  0.2010
19645TIP3    H180350   5.073   0.360   6.018 -0.1619  0.5980  0.8530
19645TIP3    H280351   4.930   0.336   5.972  0.5031 -0.3034 -0.8073
19646TIP3   OH280352   5.507   6.732  16.682 -0.3269 -0.4246 -0.4359
19646TIP3    H180353   5.557   6.798  16.634  0.9625 -2.8688 -2.7986
19646TIP3    H280354   5.416   6.749  16.659 -0.1036  1.0126 -0.3000
19647TIP3   OH280355   5.386   3.102   1.635 -0.9529 -0.4031 -0.1912
19647TIP3    H180356   5.323   3.138   1.697 -0.2286  1.1247 -0.2964
19647TIP3    H280357   5.356   3.132   1.550 -0.7209 -0.6280 -0.3542
19648TIP3   OH280358   4.830   3.547   4.149 -0.7540  0.2294  0.2189
19648TIP3    H180359   4.767   3.556   4.221 -2.3537 -1.2057 -0.9136
19648TIP3    H280360   4.791   3.481   4.092  1.4342 -0.1213 -0.9678
19649TIP3   OH280361   6.011   1.570   3.235 -0.3487  0.1513  0.9129
19649TIP3    H180362   6.060   1.488   3.231 -0.2788  0.2118  0.4631
19649TIP3    H280363   5.982   1.577   3.326 -4.1713 -2.6154  0.1435
19650TIP3   OH280364   0.514   1.944  11.911  0.0115  0.2749  0.1837
19650TIP3    H180365   0.521   2.035  11.941 -0.8951  0.3256  0.2879
19650TIP3    H280366   0.461   1.901  11.978 -0.9724  0.0824 -0.6786
19651TIP3   OH280367   6.571   0.224   5.920  0.1437  0.4165  0.0114
19651TIP3    H180368   6.578   0.162   5.992  1.2673 -1.6081 -1.7211
19651TIP3    H280369   6.637   0.290   5.938  0.8184 -0.3870  0.5311
19652TIP3   OH280370   3.541   1.115   5.622 -0.1809 -0.1310  0.1279
19652TIP3    H180371   3.607   1.177   5.592 -1.5706  0.2192 -2.5825
19652TIP3    H280372   3.461   1.142   5.576 -1.6114 -1.9767  1.3971
19653TIP3   OH280373   3.416   5.179  11.208 -0.2013 -0.1717 -0.8718
19653TIP3    H180374   3.410   5.105  11.148 -2.5485  0.6677 -1.7882
19653TIP3    H280375   3.326   5.196  11.235  0.6454  0.3454  1.8991
19654TIP3   OH280376   2.214   2.814  11.728 -0.4873 -0.0900  0.0628
19654TIP3    H180377   2.261   2.889  11.691 -0.9529 -0.2317 -0.8255
19654TIP3    H280378   2.273   2.782  11.797  0.0254  0.6676 -0.0038
19655TIP3   OH280379   5.053   0.680  14.220 -0.3526 -0.4227 -0.0084
19655TIP3    H180380   5.002   0.665  14.300 -0.0375  0.5087  0.3878
19655TIP3    H280381   4.989   0.682  14.150 -0.8436  0.5349  0.4570
19656TIP3   OH280382   5.232   5.373  16.204 -0.3293 -0.0691 -0.0092
19656TIP3    H180383   5.182   5.358  16.123  0.5593 -0.2044 -0.5463
19656TIP3    H280384   5.208   5.299  16.260 -0.0181 -0.6420 -0.6218
19657TIP3   OH280385   3.379   3.740   2.233  0.3612  0.1635 -0.3913
19657TIP3    H180386   3.339   3.782   2.157 -1.0230  0.1122  0.2754
19657TIP3    H280387   3.388   3.648   2.208  0.4587  0.2602 -0.7075
19658TIP3   OH280388   4.804   1.267  13.449  0.3068  0.0590  0.6704
19658TIP3    H180389   4.815   1.350  13.402  1.3714 -0.1774  0.4798
19658TIP3    H280390   4.865   1.272  13.522  1.0632 -0.9151  0.1376
19659TIP3   OH280391   6.112   4.490   4.678 -0.3312 -0.5191  0.2628
19659TIP3    H180392   6.071   4.457   4.598  1.7618  0.2157 -1.2170
19659TIP3    H280393   6.188   4.539   4.647  0.1917  0.3563  2.7020
19660TIP3   OH280394   6.478   0.375  11.920 -0.1651 -0.2978 -0.1565
19660TIP3    H180395   6.491   0.407  11.830  2.4307 -1.2686 -0.2211
19660TIP3    H280396   6.430   0.293  11.909  0.9401 -0.8908 -0.7959
19661TIP3   OH280397   5.524   6.455   5.232 -0.5217 -0.3644 -0.0154
19661TIP3    H180398   5.519   6.360   5.237  0.4943 -0.4209  0.2436
19661TIP3    H280399   5.434   6.484   5.219 -1.4148 -1.1383  3.4232
19662TIP3   OH280400   3.167   2.384   6.128  0.2750  0.2608 -0.4290
19662TIP3    H180401   3.087   2.435   6.135 -0.3495 -0.8863  2.0277
19662TIP3    H280402   3.153   2.327   6.053  0.3449  2.5025 -2.2383
19663TIP3   OH280403   6.677   5.427  16.831 -0.8109 -0.5836  0.2906
19663TIP3    H180404   6.679   5.435  16.926  0.3282 -1.5645  0.3778
19663TIP3    H280405   6.585   5.408  16.811 -1.0016 -0.7237  1.2369
19664TIP3   OH280406   2.094   4.614   5.424  0.0722  0.4122  0.0577
19664TIP3    H180407   2.138   4.697   5.404 -0.1660  0.4019 -0.5393
19664TIP3    H280408   2.072   4.577   5.339 -0.7166  0.2159  0.3307
19665TIP3   OH280409   4.906   5.526   5.201 -0.0466 -0.1285  0.3773
19665TIP3    H180410   4.945   5.481   5.126  0.6911  1.2192 -0.1082
19665TIP3    H280411   4.841   5.585   5.162  0.9943  1.2658  0.6402
19666TIP3   OH280412   6.641   3.188   4.021  0.1885 -0.2431 -0.0197
19666TIP3    H180413   6.566   3.229   3.977 -0.2659 -0.6913  0.3322
19666TIP3    H280414   6.716   3.212   3.966 -0.0814  0.9146  0.0812
19667TIP3   OH280415   4.266   4.634   3.347  0.1843 -0.2030  0.1512
19667TIP3    H180416   4.231   4.553   3.310  2.5925 -1.3378  0.1483
19667TIP3    H280417   4.262   4.621   3.442  0.2581 -0.1796  0.1578
19668TIP3   OH280418   2.993   2.761  15.706  0.2179  0.0693  0.1828
19668TIP3    H180419   3.069   2.727  15.659  0.4138 -0.3491  0.7960
19668TIP3    H280420   3.029   2.825  15.768 -0.1644  1.6462 -1.1275
19669TIP3   OH280421   5.419   5.648  14.951  0.1354 -0.5065  0.3453
19669TIP3    H180422   5.368   5.701  15.012  1.6175 -0.5575  1.6784
19669TIP3    H280423   5.384   5.559  14.962  0.1553 -0.4513  0.8761
19670TIP3   OH280424   1.792   4.731   3.699  0.9216  0.5480 -0.7091
19670TIP3    H180425   1.740   4.794   3.749  1.7786 -1.3447  2.8695
19670TIP3    H280426   1.741   4.716   3.619 -2.0808  1.6417  0.8562
19671TIP3   OH280427   4.124   6.253  15.034 -0.5087  0.3043 -0.1034
19671TIP3    H180428   4.134   6.336  14.987  0.3723 -0.4821 -1.3910
19671TIP3    H280429   4.211   6.237  15.072 -0.5103 -0.2911 -0.3432
19672TIP3   OH280430   0.904   0.539   0.854  0.0955 -0.1820 -0.0361
19672TIP3    H180431   0.846   0.505   0.787 -0.9260 -0.5664  1.0124
19672TIP3    H280432   0.851   0.604   0.901  0.9643  0.4781  0.0677
19673TIP3   OH280433   2.182   4.118  11.506 -0.0502 -0.0349  0.3813
19673TIP3    H180434   2.277   4.124  11.500 -0.0520  0.2594  0.6279
19673TIP3    H280435   2.166   4.063  11.583 -0.0786 -0.3426  0.1591
19674TIP3   OH280436   2.666   2.483  16.468 -0.7115  0.0547 -0.1730
19674TIP3    H180437   2.686   2.435  16.387 -1.8276  0.1761 -0.5320
19674TIP3    H280438   2.649   2.572  16.440 -1.0823  0.1049  0.2005
19675TIP3   OH280439   6.199   5.254   1.812  0.3097  0.0065  0.1895
19675TIP3    H180440   6.241   5.177   1.774 -0.8908 -0.5025 -0.1391
19675TIP3    H280441   6.139   5.220   1.878 -0.8692  0.5605 -0.5488
19676TIP3   OH280442   3.908   5.898  15.992 -0.3730 -0.2796 -0.3212
19676TIP3    H180443   3.987   5.948  15.973 -0.5785  0.1367 -0.0985
19676TIP3    H280444   3.890   5.850  15.911 -1.5041  1.8261 -1.4398
19677TIP3   OH280445   6.413   3.186   5.475 -0.3328 -0.3173  0.3924
19677TIP3    H180446   6.420   3.132   5.553  2.1527 -1.5659 -0.5890
19677TIP3    H280447   6.503   3.215   5.458 -0.9550  0.6725 -1.4895
19678TIP3   OH280448   2.145   3.096  11.877 -0.1457  0.6025  0.2935
19678TIP3    H180449   2.160   3.113  11.970  1.2214  0.3979  0.1413
19678TIP3    H280450   2.201   3.021  11.857 -1.0204  0.1419 -0.5255
19679TIP3   OH280451   5.603   1.973  14.938 -0.2531  0.5764 -0.1049
19679TIP3    H180452   5.533   1.909  14.928 -0.2329  0.7290 -1.4229
19679TIP3    H280453   5.683   1.923  14.923 -0.0230  0.3487  1.6473
19680TIP3   OH280454   3.470   3.667  14.317 -0.1589  0.6369 -0.5425
19680TIP3    H180455   3.501   3.748  14.356 -1.4801  1.0063 -0.1949
19680TIP3    H280456   3.463   3.606  14.391  0.0358  0.4596 -0.6688
19681TIP3   OH280457   5.980   5.763  16.559 -0.4955 -0.1859  0.4393
19681TIP3    H180458   5.930   5.734  16.483 -0.3140 -0.8258  0.5572
19681TIP3    H280459   5.940   5.846  16.584 -0.8402 -0.1910 -0.0848
19682TIP3   OH280460   0.553   2.066   0.478  0.7300  0.5962 -0.1738
19682TIP3    H180461   0.529   2.027   0.562  0.0065  2.0258  0.3026
19682TIP3    H280462   0.478   2.119   0.453  0.8854  0.1009 -1.8056
19683TIP3   OH280463   3.692   5.528   0.784 -0.4811 -0.2747  0.5735
19683TIP3    H180464   3.637   5.520   0.706  0.2591  0.3164 -0.0201
19683TIP3    H280465   3.717   5.438   0.806  1.1792 -0.3186 -1.2459
19684TIP3   OH280466   1.173   0.517   0.655 -0.4063 -0.0968  0.5725
19684TIP3    H180467   1.182   0.422   0.648  0.7329  0.0284  0.1284
19684TIP3    H280468   1.256   0.552   0.621 -1.0719  1.0769  0.0739
19685TIP3   OH280469   0.059   4.406  15.029 -0.1017 -0.3548  0.2636
19685TIP3    H180470   0.114   4.384  15.105 -0.7207 -1.4433  0.4224
19685TIP3    H280471  -0.024   4.436  15.068 -0.0287  0.1766  0.0162
19686TIP3   OH280472   0.495   3.892   5.779 -0.0028  0.0513 -0.0042
19686TIP3    H180473   0.590   3.877   5.782 -0.1199 -0.7060  0.1298
19686TIP3    H280474   0.478   3.951   5.852  0.6460  1.9076 -1.2769
19687TIP3   OH280475   3.725   4.595   2.211 -0.1563  0.2947  0.5041
19687TIP3    H180476   3.740   4.685   2.241  0.3828 -0.0198  1.2181
19687TIP3    H280477   3.639   4.598   2.171 -0.2972  1.0614  0.8244
19688TIP3   OH280478   4.811   5.920   3.976  0.7837  0.4756 -0.0596
19688TIP3    H180479   4.886   5.937   3.919  1.5616  1.2189  1.1389
19688TIP3    H280480   4.845   5.934   4.065 -0.5648  0.0103  0.5545
19689TIP3   OH280481   1.102   3.930   5.724 -0.1355  0.0087 -0.0883
19689TIP3    H180482   1.150   3.847   5.727 -0.1874 -0.0033  0.8728
19689TIP3    H280483   1.146   3.985   5.789  0.1920  0.9072 -1.0556
19690TIP3   OH280484   2.724   6.273   3.611  0.5323 -0.0788  0.0418
19690TIP3    H180485   2.776   6.313   3.681  0.3150 -0.9785  0.7313
19690TIP3    H280486   2.639   6.254   3.651 -0.2398  1.0948 -0.9937
19691TIP3   OH280487   2.169   0.955   4.703  0.8420  0.1454  0.0714
19691TIP3    H180488   2.184   0.945   4.609  1.2909  1.1517  0.0209
19691TIP3    H280489   2.193   1.046   4.721  0.8863 -0.0771  1.1811
19692TIP3   OH280490   1.481   2.321  15.753 -0.0977  0.1971 -0.3943
19692TIP3    H180491   1.386   2.313  15.761  0.0692 -1.5667  0.2901
19692TIP3    H280492   1.508   2.242  15.706  1.0710  0.4337 -0.1507
19693TIP3   OH280493   4.321   4.993   3.220 -0.4434  0.3556  0.2580
19693TIP3    H180494   4.351   4.924   3.280 -3.7554 -0.5530  1.0729
19693TIP3    H280495   4.289   4.946   3.143 -0.3941  1.1918 -0.2873
19694TIP3   OH280496   3.730   5.042   0.364  0.3646  0.2948 -0.3567
19694TIP3    H180497   3.670   5.046   0.290  0.7026  1.9829 -0.5852
19694TIP3    H280498   3.696   4.972   0.420 -1.9542  1.3441 -0.3521
19695TIP3   OH280499   1.329   5.201  17.054  0.5060 -1.0633 -0.0152
19695TIP3    H180500   1.267   5.151  17.001  2.2876 -1.9302 -1.3789
19695TIP3    H280501   1.386   5.134  17.093  2.1365 -0.1914 -0.8383
19696TIP3   OH280502   3.958   6.068  14.654  0.3326 -0.0362  0.0917
19696TIP3    H180503   4.043   6.095  14.618  0.3337 -0.9974 -0.6393
19696TIP3    H280504   3.940   5.984  14.614 -1.5943  0.7305 -0.7697
19697TIP3   OH280505   5.122   5.371   0.563 -0.4779 -0.0715 -0.1304
19697TIP3    H180506   5.204   5.328   0.540  0.2929  0.5431  1.3180
19697TIP3    H280507   5.136   5.464   0.541 -0.6042  0.1097  0.5236
19698TIP3   OH280508   0.197   5.615  15.149  0.0340  0.3867 -0.2512
19698TIP3    H180509   0.188   5.555  15.223  0.4312  1.1873  0.4623
19698TIP3    H280510   0.212   5.701  15.189 -0.3714  0.9402 -1.2572
19699TIP3   OH280511   6.798   6.629  14.977  0.5183 -0.0576  0.1669
19699TIP3    H180512   6.801   6.669  14.890  1.4906 -2.7398 -1.1371
19699TIP3    H280513   6.843   6.545  14.966 -0.3045 -0.9673  3.0229
19700TIP3   OH280514   5.214   0.315   4.084 -0.2665 -0.5126  0.0470
19700TIP3    H180515   5.296   0.316   4.034  0.6013  0.6216  1.4235
19700TIP3    H280516   5.147   0.344   4.022  0.9692  2.0700 -0.2199
19701TIP3   OH280517   3.909   4.805   0.346  0.1600  0.0729 -0.1107
19701TIP3    H180518   3.965   4.751   0.290 -1.6363 -0.7762 -1.1584
19701TIP3    H280519   3.858   4.858   0.284  0.6169  1.7011  0.8495
19702TIP3   OH280520   5.802   5.833   2.420 -0.3468  0.2547 -0.6800
19702TIP3    H180521   5.769   5.907   2.368 -1.1448  0.7097  0.4390
19702TIP3    H280522   5.726   5.778   2.435 -0.5632  1.0382  1.4662
19703TIP3   OH280523   0.693   3.747   0.525 -1.0183 -0.6401  0.7769
19703TIP3    H180524   0.663   3.710   0.442  1.9000 -0.1311 -0.6537
19703TIP3    H280525   0.719   3.671   0.577 -3.6367 -1.0212  1.6825
19704TIP3   OH280526   4.667   6.192  16.809 -0.0502  0.3599  0.3840
19704TIP3    H180527   4.738   6.161  16.752  0.5740  0.6508  0.9859
19704TIP3    H280528   4.710   6.210  16.893 -0.6397  1.5907  0.4413
19705TIP3   OH280529   1.105   4.478  15.724  0.2787 -0.0875 -0.0102
19705TIP3    H180530   1.106   4.516  15.636  0.8285  1.1356  0.4870
19705TIP3    H280531   1.124   4.553  15.782 -2.0437 -0.4302  1.3222
19706TIP3   OH280532   4.519   2.794  14.595 -0.1303 -0.6786 -0.3087
19706TIP3    H180533   4.561   2.879  14.604 -0.3171 -0.5160 -0.9911
19706TIP3    H280534   4.425   2.812  14.597 -0.1718 -0.8226 -0.8859
19707TIP3   OH280535   1.363   2.791   0.889 -0.3442 -0.2688 -0.1140
19707TIP3    H180536   1.362   2.727   0.818 -0.7031  1.3883 -1.6715
19707TIP3    H280537   1.444   2.772   0.937  0.2586 -1.0143 -1.3696
19708TIP3   OH280538   3.332   3.423   2.956 -0.1020  0.7138  0.1407
19708TIP3    H180539   3.255   3.436   2.900 -1.4510 -0.0691  1.7303
19708TIP3    H280540   3.391   3.370   2.902 -1.5228 -0.3618 -0.4483
19709TIP3   OH280541   5.144   4.713  16.069 -0.1262  0.1638 -0.4026
19709TIP3    H180542   5.157   4.799  16.029  0.5831 -0.5469 -1.7675
19709TIP3    H280543   5.077   4.671  16.014  0.0548 -0.4254 -0.1826
19710TIP3   OH280544   5.618   4.069  14.744  0.1400 -0.4519 -0.4399
19710TIP3    H180545   5.595   3.987  14.700  0.3741 -0.3093 -0.8328
19710TIP3    H280546   5.713   4.068  14.749  0.0704 -1.7389  2.5076
19711TIP3   OH280547   4.482   5.547  12.991 -0.1078  0.0198  0.0938
19711TIP3    H180548   4.416   5.500  13.044  0.0274 -1.0080 -0.6188
19711TIP3    H280549   4.545   5.580  13.056 -2.3987  2.9651  1.0472
19712TIP3   OH280550   5.094   5.422   3.933 -0.0865 -0.2775  0.7703
19712TIP3    H180551   5.103   5.509   3.896 -0.5992 -0.1246  0.9856
19712TIP3    H280552   5.048   5.436   4.016  1.0023 -0.6122  1.4517
19713TIP3   OH280553   6.091   2.929   1.740 -0.1666  0.2031  0.5129
19713TIP3    H180554   6.082   3.023   1.756  1.6653  0.6066 -0.5181
19713TIP3    H280555   6.176   2.906   1.779  0.4584 -0.5073 -1.1719
19714TIP3   OH280556   0.892   2.517  16.326  0.1837  0.0438 -0.3470
19714TIP3    H180557   0.886   2.424  16.347 -0.1905  0.4249  1.4943
19714TIP3    H280558   0.828   2.558  16.384 -0.6158  1.3388 -2.0608
19715TIP3   OH280559   5.313   3.505   0.378  0.3742 -0.0234 -0.7770
19715TIP3    H180560   5.397   3.544   0.403  0.8449 -1.0328 -0.7496
19715TIP3    H280561   5.336   3.439   0.312 -0.1020 -1.8923  0.8444
19716TIP3   OH280562   2.257   2.918  12.157 -0.1071 -0.3698  0.1784
19716TIP3    H180563   2.178   2.872  12.131  1.1394 -0.9606 -3.1299
19716TIP3    H280564   2.244   3.008  12.128  0.3651 -0.4544 -0.3269
19717TIP3   OH280565   2.919   1.630   4.129 -0.7206 -0.5611  0.1569
19717TIP3    H180566   2.854   1.623   4.059 -0.1439 -1.6569 -0.2927
19717TIP3    H280567   2.955   1.542   4.136  0.3123 -0.0953  0.7958
19718TIP3   OH280568   3.756   2.466  15.410  0.5121  0.5606 -0.1774
19718TIP3    H180569   3.674   2.513  15.425  0.2823 -0.6271  3.2179
19718TIP3    H280570   3.822   2.520  15.453  0.9638 -0.0634 -0.0823
19719TIP3   OH280571   6.568   5.889   5.329 -0.4926  0.0214 -0.2470
19719TIP3    H180572   6.544   5.955   5.394 -0.6883 -0.0526 -0.2459
19719TIP3    H280573   6.487   5.869   5.283 -0.4172 -0.1588 -0.3033
19720TIP3   OH280574   0.365   2.581  11.935  0.1918 -0.2407  0.2004
19720TIP3    H180575   0.399   2.577  11.846  0.6993  1.7566  0.2648
19720TIP3    H280576   0.321   2.496  11.947  0.5496 -0.7620 -1.7447
19721TIP3   OH280577   0.417   0.049   4.574  0.4696  0.2557  0.2766
19721TIP3    H180578   0.325   0.022   4.573  0.0210  1.5636  1.7298
19721TIP3    H280579   0.439   0.053   4.668  1.9111  0.3113 -0.0423
19722TIP3   OH280580   1.841   1.516   0.443 -0.5666 -0.1524 -0.0071
19722TIP3    H180581   1.936   1.510   0.434 -0.7471 -1.6537 -1.3663
19722TIP3    H280582   1.817   1.593   0.392 -0.2454 -0.9585 -1.4305
19723TIP3   OH280583   1.378   6.793   4.661 -0.1503 -0.1475 -0.1713
19723TIP3    H180584   1.338   6.748   4.736 -1.0364  0.3439 -0.3356
19723TIP3    H280585   1.343   6.882   4.666  0.7676  0.2393 -0.4563
19724TIP3   OH280586   4.498   4.483  12.100 -0.5725  0.1563 -0.4080
19724TIP3    H180587   4.489   4.428  12.023 -1.5031  1.6336 -1.3935
19724TIP3    H280588   4.590   4.475  12.125 -1.0707 -3.4385  0.7603
19725TIP3   OH280589   0.017   3.231  15.434  0.1879 -0.3137  0.3655
19725TIP3    H180590  -0.041   3.193  15.501  0.9824 -1.0750  0.6397
19725TIP3    H280591   0.003   3.177  15.357  0.6220 -0.5755  0.4692
19726TIP3   OH280592   6.087   4.318  16.145  0.2374  0.3392 -0.1374
19726TIP3    H180593   6.105   4.307  16.052 -1.1490  0.4122 -0.4304
19726TIP3    H280594   6.173   4.337  16.184  1.2659 -2.1300 -0.9874
19727TIP3   OH280595   1.183   4.856  11.461  0.3315  0.2032  0.2283
19727TIP3    H180596   1.223   4.836  11.376 -0.8448 -1.2088 -0.0446
19727TIP3    H280597   1.251   4.833  11.525  1.0190  0.7221 -0.3023
19728TIP3   OH280598   0.342   4.618  11.746  0.1884  0.3569  0.3673
19728TIP3    H180599   0.390   4.613  11.829 -2.3988 -0.0730  1.9465
19728TIP3    H280600   0.394   4.678  11.692  1.3641  1.6435  2.7395
19729TIP3   OH280601   1.182   6.362   2.054 -0.1049  0.3174  0.4899
19729TIP3    H180602   1.176   6.287   1.995 -0.5752 -0.2305  1.2131
19729TIP3    H280603   1.257   6.342   2.111  1.0418  1.3522 -0.5828
19730TIP3   OH280604   3.316   5.364  12.957  0.0010 -0.0493 -0.0844
19730TIP3    H180605   3.231   5.337  12.992 -0.1250 -0.0574 -0.3974
19730TIP3    H280606   3.307   5.357  12.862  0.4245 -0.2751 -0.1119
19731TIP3   OH280607   2.657   5.457   0.950  0.1969 -0.0465 -0.6197
19731TIP3    H180608   2.663   5.447   0.855  0.0128  0.0150 -0.6388
19731TIP3    H280609   2.741   5.495   0.976  0.4144 -0.4689 -0.7019
19732TIP3   OH280610   1.462   4.411  16.057 -0.1559 -0.2256 -0.0441
19732TIP3    H180611   1.478   4.384  16.148 -2.4356  0.2874  0.5501
19732TIP3    H280612   1.469   4.506  16.059  1.5858 -0.2915 -0.8420
19733TIP3   OH280613   1.283   4.872  12.462 -0.0810  0.0854 -0.6930
19733TIP3    H180614   1.223   4.943  12.484 -0.8452 -1.1340  1.4464
19733TIP3    H280615   1.227   4.795  12.453  0.6843 -0.2644 -3.3143
19734TIP3   OH280616   5.568   6.551  14.478  0.3332  0.0152  0.4530
19734TIP3    H180617   5.500   6.493  14.510  0.5554 -1.6366 -1.8041
19734TIP3    H280618   5.544   6.638  14.511 -2.6051 -0.5841  0.1402
19735TIP3   OH280619   1.251   4.006  16.975 -0.0993  0.2736  0.3784
19735TIP3    H180620   1.267   4.089  17.020 -0.3240  0.8982 -0.6561
19735TIP3    H280621   1.174   3.969  17.019  0.8440 -0.1022  1.7871
19736TIP3   OH280622   2.363   0.373  16.291  0.4461 -0.5655 -0.1416
19736TIP3    H180623   2.377   0.445  16.230  0.2542 -0.0172  0.4593
19736TIP3    H280624   2.412   0.300  16.253 -0.0829 -0.3822 -1.2218
19737TIP3   OH280625   1.045   2.590   3.391  0.1239  0.7781 -0.2389
19737TIP3    H180626   1.131   2.623   3.413  0.4014 -0.4660  0.6003
19737TIP3    H280627   1.061   2.522   3.326 -0.4984  2.6839 -2.5615
19738TIP3   OH280628   1.572   3.992  12.493  0.2996  0.6522  0.0649
19738TIP3    H180629   1.596   4.073  12.538 -1.2232  1.3611 -0.3660
19738TIP3    H280630   1.601   4.005  12.402  1.0754  0.2396  0.2424
19739TIP3   OH280631   4.941   5.052  15.579 -0.8509  0.3349 -0.4346
19739TIP3    H180632   4.895   5.104  15.513  0.2601  0.6264 -1.0024
19739TIP3    H280633   4.971   4.974  15.532 -2.9776 -1.1474  0.5367
19740TIP3   OH280634   4.421   5.562   3.180 -0.0257 -0.1748 -0.7393
19740TIP3    H180635   4.398   5.472   3.204 -3.4033  0.9059  0.5216
19740TIP3    H280636   4.487   5.588   3.246 -1.0192 -0.8772  0.5809
19741TIP3   OH280637   3.698   3.282  14.854  0.2448  0.3769 -0.2192
19741TIP3    H180638   3.664   3.258  14.940 -1.1209  0.3231 -0.7407
19741TIP3    H280639   3.793   3.275  14.862  0.2779  2.2381  1.8407
19742TIP3   OH280640   6.779   1.694   0.455  0.2291  0.5833  0.1994
19742TIP3    H180641   6.732   1.771   0.423 -0.8883 -0.7553 -1.5774
19742TIP3    H280642   6.850   1.729   0.508  0.4603  2.8811 -1.4910
19743TIP3   OH280643   4.698   1.909  15.054 -0.0026 -0.0663  0.8545
19743TIP3    H180644   4.661   1.937  15.138 -0.8788  2.9078 -0.4077
19743TIP3    H280645   4.740   1.987  15.019 -0.9282 -0.7931 -2.1450
19744TIP3   OH280646   2.584   4.631   0.447 -0.0705 -0.0133 -0.4356
19744TIP3    H180647   2.536   4.608   0.367  1.2671  0.6160 -1.4515
19744TIP3    H280648   2.603   4.547   0.488 -0.0625 -0.3967 -1.2051
19745TIP3   OH280649   0.805   2.148   5.962  0.1045  0.1740 -0.1067
19745TIP3    H180650   0.761   2.064   5.973  0.8373 -0.5813 -2.3683
19745TIP3    H280651   0.887   2.126   5.919  0.6156  2.0077 -0.1358
19746TIP3   OH280652   4.534   2.075  12.993 -0.1034 -0.4282  0.3850
19746TIP3    H180653   4.471   2.030  12.936 -2.3456  1.5733  1.1219
19746TIP3    H280654   4.497   2.162  13.005  1.0608 -0.2724  3.6638
19747TIP3   OH280655   5.981   1.357  16.309  0.0892  0.8923 -0.7174
19747TIP3    H180656   5.927   1.281  16.332 -1.7984  1.9424 -1.4615
19747TIP3    H280657   6.052   1.357  16.374 -1.0404 -0.3216  0.5670
19748TIP3   OH280658   4.211   6.433   0.030 -0.5371 -0.6948  0.2137
19748TIP3    H180659   4.243   6.350   0.066 -0.7984 -0.7757  0.2613
19748TIP3    H280660   4.163   6.474   0.102 -2.7913 -1.7804 -0.5759
19749TIP3   OH280661   2.053   2.381  15.106 -0.0335 -0.2964  0.1376
19749TIP3    H180662   2.067   2.468  15.141 -1.3526  0.4327 -1.0428
19749TIP3    H280663   2.078   2.388  15.013 -1.0399 -0.9042 -0.2011
19750TIP3   OH280664   5.615   1.738   5.767  0.0851 -0.3828 -0.3503
19750TIP3    H180665   5.529   1.779   5.764 -0.1409 -0.8784 -0.8291
19750TIP3    H280666   5.676   1.810   5.750 -0.1533  0.1765  1.0697
19751TIP3   OH280667   2.709   3.524   3.134 -0.8222  0.3942  0.1003
19751TIP3    H180668   2.756   3.491   3.057 -1.2703  0.6428 -0.2806
19751TIP3    H280669   2.765   3.595   3.166 -0.5882  0.2306  0.0649
19752TIP3   OH280670   6.748   6.462  14.402 -0.3683 -0.2250  0.2963
19752TIP3    H180671   6.820   6.518  14.374  0.5654 -1.1300  0.8093
19752TIP3    H280672   6.743   6.476  14.497 -0.0231 -1.1113  0.4530
19753TIP3   OH280673   5.189   2.887   1.453 -0.3733 -0.0073 -0.0646
19753TIP3    H180674   5.166   2.972   1.491 -0.8898 -0.7993  1.4774
19753TIP3    H280675   5.284   2.893   1.437  0.0280  0.1351  2.0740
19754TIP3   OH280676   5.546   2.534  11.517 -0.2385 -0.0391 -0.4009
19754TIP3    H180677   5.451   2.526  11.516 -0.2881  0.0770  1.0322
19754TIP3    H280678   5.575   2.491  11.436 -1.5168  0.2988 -1.0601
19755TIP3   OH280679   1.608   0.888   5.540  0.1069  0.2831 -0.3089
19755TIP3    H180680   1.698   0.854   5.537 -0.7744 -2.2795 -0.0992
19755TIP3    H280681   1.584   0.885   5.632 -0.5830 -0.2114 -0.4933
19756TIP3   OH280682   3.480   1.411   1.549  0.6949  0.3222 -0.4214
19756TIP3    H180683   3.460   1.341   1.487 -0.3534  0.7752 -0.6134
19756TIP3    H280684   3.415   1.479   1.531  0.8036  0.7506  0.7231
19757TIP3   OH280685   6.187   3.663   2.839  0.4901  0.2612  0.3327
19757TIP3    H180686   6.155   3.583   2.881 -1.0631  0.1077 -1.0651
19757TIP3    H280687   6.132   3.732   2.876 -0.5664  0.1866 -1.0315
19758TIP3   OH280688   2.591   4.586  16.377  0.1692  0.4348  0.2114
19758TIP3    H180689   2.563   4.552  16.461 -0.4658  1.2376  0.3423
19758TIP3    H280690   2.512   4.588  16.324 -0.0247  2.4534  0.4841
19759TIP3   OH280691   3.085   1.440   2.521 -0.1699 -0.0563  0.0643
19759TIP3    H180692   3.169   1.485   2.514  0.3354 -1.0389 -0.3734
19759TIP3    H280693   3.020   1.510   2.521  0.7206  0.8839  2.4795
19760TIP3   OH280694   2.875   5.128  14.638 -0.2079 -0.3851 -0.6371
19760TIP3    H180695   2.926   5.146  14.717 -1.5034  1.0057 -0.0717
19760TIP3    H280696   2.856   5.035  14.643 -0.4716 -0.2754  0.8298
19761TIP3   OH280697   2.681   6.134   2.594 -0.1984  0.3091  0.5320
19761TIP3    H180698   2.691   6.148   2.499  0.3698 -0.6096  0.4390
19761TIP3    H280699   2.760   6.087   2.619  0.1617  1.4855  1.6808
19762TIP3   OH280700   4.748   3.099   1.133 -0.2816 -0.0854  0.1026
19762TIP3    H180701   4.730   3.166   1.067  0.4631  0.5067  0.4726
19762TIP3    H280702   4.716   3.017   1.095  1.7989 -0.1046 -1.8449
19763TIP3   OH280703   1.409   1.770   4.181  0.1393 -0.2208  0.3127
19763TIP3    H180704   1.477   1.815   4.132 -0.1019 -1.3087 -1.0725
19763TIP3    H280705   1.374   1.836   4.240  1.4260  0.7283  0.0401
19764TIP3   OH280706   3.912   0.135  13.737 -0.1811 -0.0737  0.4670
19764TIP3    H180707   3.902   0.046  13.769 -0.3677  0.1373  0.9971
19764TIP3    H280708   3.888   0.130  13.644  0.2320 -0.6531  0.3874
19765TIP3   OH280709   4.380   2.630  12.878  0.6415  1.1456  0.1184
19765TIP3    H180710   4.472   2.639  12.900  0.8177 -1.9308  1.1202
19765TIP3    H280711   4.365   2.535  12.874 -2.0142  1.5197 -2.0916
19766TIP3   OH280712   5.205   2.252  13.299  1.1300  0.4191  0.3904
19766TIP3    H180713   5.136   2.318  13.302  0.2315 -0.4379 -0.7037
19766TIP3    H280714   5.160   2.170  13.277  2.3383 -0.3919  0.8101
19767TIP3   OH280715   1.465   0.156  10.269 -0.1056  0.1431  0.1184
19767TIP3    H180716   1.375   0.129  10.286 -0.0057  0.0646  0.5544
19767TIP3    H280717   1.510   0.076  10.243 -0.1951  0.2110 -0.2489
19768TIP3   OH280718   6.187   4.545  10.924 -0.5438 -0.3438  0.5909
19768TIP3    H180719   6.178   4.616  10.986 -0.6469 -0.3911  0.6297
19768TIP3    H280720   6.141   4.575  10.845  0.9713  0.3990 -0.0399
19769TIP3   OH280721   3.868   3.950   5.067  0.5717  0.0834  0.2356
19769TIP3    H180722   3.860   4.028   5.012  1.3786 -0.5610 -0.8537
19769TIP3    H280723   3.903   3.883   5.008  0.0220 -1.0694  1.1767
19770TIP3   OH280724   1.123   1.382   3.131  0.0149 -0.7518  0.3837
19770TIP3    H180725   1.041   1.377   3.082  0.5201 -2.9404 -0.3273
19770TIP3    H280726   1.103   1.440   3.204 -1.6229  0.2172 -0.7539
19771TIP3   OH280727   4.495   4.497   0.591  0.1892  0.3893  0.1767
19771TIP3    H180728   4.411   4.471   0.552  0.8334 -2.3224  0.4072
19771TIP3    H280729   4.546   4.531   0.517 -0.0072 -0.9347 -0.5998
19772TIP3   OH280730   5.647   2.374   0.513 -0.7142 -0.2944 -0.0420
19772TIP3    H180731   5.630   2.342   0.601 -1.0251 -0.5694 -0.1984
19772TIP3    H280732   5.713   2.442   0.524  0.2991 -1.2978  0.2395
19773TIP3   OH280733   6.280   5.666   1.534 -0.7372 -0.3628  0.1274
19773TIP3    H180734   6.293   5.642   1.626  0.2949  1.4360  0.5191
19773TIP3    H280735   6.322   5.752   1.526 -0.4871 -0.6286 -2.1259
19774TIP3   OH280736   4.677   4.946   2.115  0.2799 -0.1984  0.7487
19774TIP3    H180737   4.588   4.979   2.123 -0.0984 -0.9485 -0.1924
19774TIP3    H280738   4.725   4.990   2.185 -0.4103  1.6219  0.1515
19775TIP3   OH280739   0.585   1.834  12.971 -0.4595  0.3780  0.4128
19775TIP3    H180740   0.511   1.881  13.010 -1.3779 -0.8623  0.2511
19775TIP3    H280741   0.558   1.742  12.974 -1.2908  0.1928 -4.4123
19776TIP3   OH280742   6.286   1.293  15.473 -0.6054 -0.0706 -0.2338
19776TIP3    H180743   6.261   1.281  15.381 -2.9344  1.2019  0.1480
19776TIP3    H280744   6.314   1.384  15.478 -0.9411  0.0002  0.4038
19777TIP3   OH280745   4.655   2.580  12.079 -0.1292  0.0850 -0.1576
19777TIP3    H180746   4.612   2.504  12.118  0.7131 -0.5249 -0.3970
19777TIP3    H280747   4.584   2.629  12.037 -0.9323  0.3303  1.4184
19778TIP3   OH280748   4.728   1.117   3.268 -0.9740  0.4581  0.3601
19778TIP3    H180749   4.818   1.094   3.245 -0.1907  0.3484  3.0936
19778TIP3    H280750   4.678   1.036   3.258 -0.6743  0.3880 -0.6534
19779TIP3   OH280751   0.707   5.781  14.751  0.1130 -0.1506  0.3054
19779TIP3    H180752   0.724   5.847  14.819 -0.4352 -0.5036  0.7919
19779TIP3    H280753   0.631   5.814  14.704  1.1172  0.6309 -0.8539
19780TIP3   OH280754   1.586   3.246  16.095 -0.1045 -0.1428  0.1920
19780TIP3    H180755   1.629   3.161  16.101  2.5480  1.0258 -0.5343
19780TIP3    H280756   1.629   3.289  16.021  0.0563  2.5178  1.7095
19781TIP3   OH280757   3.992   2.679  13.440  0.4915 -0.2413 -0.8327
19781TIP3    H180758   4.057   2.709  13.376  1.5840 -0.6308  0.0512
19781TIP3    H280759   4.010   2.585  13.450  0.5366 -0.1339  0.2417
19782TIP3   OH280760   1.275   1.408   1.416 -0.0750  0.4541  0.3958
19782TIP3    H180761   1.204   1.469   1.395  0.1956  0.8950  0.7563
19782TIP3    H280762   1.350   1.442   1.367  0.4357  1.2131  1.6645
19783TIP3   OH280763   0.512   1.641   2.322 -0.2457  0.1898 -0.3560
19783TIP3    H180764   0.589   1.585   2.312 -0.5387  0.1002 -2.8478
19783TIP3    H280765   0.495   1.643   2.416  2.2520 -0.5064  0.1905
19784TIP3   OH280766   5.328   4.455  13.597 -0.1324  0.5801 -0.3709
19784TIP3    H180767   5.387   4.530  13.593 -0.5513  0.8788 -1.1810
19784TIP3    H280768   5.354   4.401  13.522 -0.5765  0.4763 -0.4494
19785TIP3   OH280769   1.695   3.124  16.958  0.1422  0.1232 -0.2551
19785TIP3    H180770   1.677   3.031  16.960  0.4546  0.0347 -0.9274
19785TIP3    H280771   1.722   3.141  16.867 -0.9979  1.0747 -0.4347
19786TIP3   OH280772   5.693   2.812   6.273  0.1752 -0.2212 -0.1521
19786TIP3    H180773   5.714   2.886   6.330 -1.5503 -0.7143  1.2048
19786TIP3    H280774   5.632   2.847   6.209 -2.2492 -0.8136  1.7063
19787TIP3   OH280775   5.338   3.400   4.507 -0.0688 -0.8225 -0.7079
19787TIP3    H180776   5.340   3.375   4.600  2.0083  0.6240 -0.2912
19787TIP3    H280777   5.290   3.330   4.464  1.4270 -3.0708  1.0556
19788TIP3   OH280778   3.201   0.825   2.145  0.0522 -0.1585  0.2540
19788TIP3    H180779   3.237   0.799   2.060 -2.3087 -0.5337 -0.7034
19788TIP3    H280780   3.238   0.912   2.160  3.2898 -1.4693  0.6194
19789TIP3   OH280781   1.472   5.869  14.832 -0.5810  0.6111 -0.1775
19789TIP3    H180782   1.424   5.823  14.763  0.7120 -0.9475 -0.0788
19789TIP3    H280783   1.436   5.836  14.914  0.4782 -0.4432 -0.1046
19790TIP3   OH280784   1.408   1.399   1.101 -0.0157 -0.8387  0.2366
19790TIP3    H180785   1.418   1.385   1.007  0.8635  0.4658  0.1029
19790TIP3    H280786   1.314   1.403   1.115 -0.1535  0.7220 -0.9033
19791TIP3   OH280787   5.044   4.977  16.219 -0.0221 -0.1211  0.0472
19791TIP3    H180788   5.117   4.958  16.278  0.5470 -2.4734 -1.2772
19791TIP3    H280789   5.084   4.977  16.132 -0.9494  2.6516 -0.4518
19792TIP3   OH280790   3.019   4.733   3.739 -0.0163 -0.0226 -0.2193
19792TIP3    H180791   3.069   4.763   3.815 -0.1319 -0.8977  0.2212
19792TIP3    H280792   2.936   4.780   3.745 -1.0110 -1.8656  1.6248
19793TIP3   OH280793   4.514   3.458  13.492  0.1995 -0.1802 -0.1977
19793TIP3    H180794   4.487   3.437  13.403  1.1175  0.8596 -0.7486
19793TIP3    H280795   4.582   3.525  13.481  1.9653 -1.6429  1.1758
19794TIP3   OH280796   6.672   3.180  11.045 -0.3235 -0.4609 -0.4764
19794TIP3    H180797   6.744   3.162  10.986  1.3768  3.2250  0.1950
19794TIP3    H280798   6.599   3.203  10.988  1.0658  2.2948 -1.2823
19795TIP3   OH280799   5.878   2.837  14.877 -0.6886  0.5813 -0.1973
19795TIP3    H180800   5.866   2.760  14.821 -0.3943 -0.0953  0.6488
19795TIP3    H280801   5.973   2.845  14.886 -0.7116  1.1634 -0.4323
19796TIP3   OH280802   4.099   4.860  12.851  0.3697  0.0593  0.1383
19796TIP3    H180803   4.097   4.927  12.918 -0.0914 -0.0290  0.2164
19796TIP3    H280804   4.189   4.827  12.852  0.2601 -0.2128  0.9778
19797TIP3   OH280805   4.166   2.181  13.393  0.0956  0.5383 -0.3934
19797TIP3    H180806   4.185   2.259  13.445  2.4646  0.2029 -0.6519
19797TIP3    H280807   4.173   2.211  13.302 -0.6705  0.3692 -0.5192
19798TIP3   OH280808   1.710   6.778   5.543  0.1966 -0.4132  0.3900
19798TIP3    H180809   1.732   6.861   5.584 -0.7752 -0.6233  1.3954
19798TIP3    H280810   1.627   6.794   5.499  0.7968 -0.4344 -0.7922
19799TIP3   OH280811   5.204   2.941   4.300  0.2072  0.7904 -0.0305
19799TIP3    H180812   5.110   2.938   4.285 -0.3223 -0.4854  2.8779
19799TIP3    H280813   5.237   2.859   4.262  0.4939  1.8896 -2.3736
19800TIP3   OH280814   1.137   2.836   5.306  0.6838 -0.1212 -0.2778
19800TIP3    H180815   1.089   2.799   5.233  0.6561 -0.6657  0.0100
19800TIP3    H280816   1.111   2.783   5.382  0.9886  0.2002  0.0601
19801TIP3   OH280817   2.813   0.656   4.244  0.8194 -0.0234  0.0429
19801TIP3    H180818   2.751   0.598   4.199  0.5824 -1.6067  2.2174
19801TIP3    H280819   2.805   0.631   4.336  2.6480  1.7269  0.7296
19802TIP3   OH280820   5.598   6.193  12.255  0.2624 -0.8877  0.2014
19802TIP3    H180821   5.576   6.161  12.342  1.3121 -0.8497  0.5029
19802TIP3    H280822   5.639   6.278  12.271  1.9398 -1.5849 -0.1674
19803TIP3   OH280823   5.263   6.386   0.161  0.2937 -0.1187 -0.3828
19803TIP3    H180824   5.350   6.348   0.175  0.0689 -0.1924  0.9260
19803TIP3    H280825   5.247   6.375   0.067  1.5251 -0.4596 -0.5753
19804TIP3   OH280826   1.498   5.785   5.432 -0.2940 -0.8685  0.6517
19804TIP3    H180827   1.576   5.802   5.485  0.4678  0.5195 -0.8286
19804TIP3    H280828   1.522   5.710   5.378 -0.2702 -0.8949  0.6980
19805TIP3   OH280829   5.309   5.506   6.365 -0.3062  0.0762  0.2979
19805TIP3    H180830   5.342   5.486   6.452 -2.1625 -1.6513  0.6715
19805TIP3    H280831   5.308   5.422   6.320 -1.0434  0.6496 -0.7947
19806TIP3   OH280832   4.130   4.795  16.877  0.5352 -0.5458 -0.2016
19806TIP3    H180833   4.148   4.764  16.789 -1.2311 -0.9825 -0.4365
19806TIP3    H280834   4.095   4.883  16.866  0.3609 -0.5789  0.0594
19807TIP3   OH280835   4.730   4.558  12.946 -0.0854 -0.4312 -0.1436
19807TIP3    H180836   4.772   4.488  12.996  0.1694  0.0658  0.3503
19807TIP3    H280837   4.786   4.635  12.960 -1.2448  0.2961  0.7048
19808TIP3   OH280838   0.339   5.453   2.478 -0.1107  0.4327 -0.6385
19808TIP3    H180839   0.291   5.533   2.454 -1.0071  0.2669  0.5103
19808TIP3    H280840   0.338   5.400   2.399 -0.8728  0.9151 -0.9650
19809TIP3   OH280841   1.999   1.427  11.764 -0.7254  0.2755  0.6010
19809TIP3    H180842   2.062   1.433  11.837  2.2204 -0.1989 -1.6940
19809TIP3    H280843   2.024   1.499  11.706 -2.4476  0.1221 -0.3773
19810TIP3   OH280844   5.115   6.763   1.250 -0.1228  0.1167  0.2888
19810TIP3    H180845   5.025   6.774   1.221  0.3384  0.2918 -1.1715
19810TIP3    H280846   5.163   6.832   1.203  0.8024 -0.1109  0.8790
19811TIP3   OH280847   5.600   5.052   1.454 -0.1069 -0.4655 -0.3267
19811TIP3    H180848   5.570   5.089   1.537 -0.2614  1.6086 -1.2277
19811TIP3    H280849   5.581   5.120   1.390  1.2908 -1.4289 -1.8497
19812TIP3   OH280850   4.897   2.490  16.677  0.2839 -0.2291  0.3533
19812TIP3    H180851   4.857   2.403  16.683 -0.4137 -0.0309 -1.1516
19812TIP3    H280852   4.848   2.535  16.608  1.2109  1.0536  0.4941
19813TIP3   OH280853   1.335   1.797   0.128 -0.0660 -0.4276  0.3879
19813TIP3    H180854   1.424   1.806   0.164 -0.2794 -1.0197  1.0876
19813TIP3    H280855   1.337   1.850   0.048  1.4593 -1.8832 -0.6112
19814TIP3   OH280856   2.096   5.329   0.685 -0.2851 -0.3368 -0.3140
19814TIP3    H180857   2.044   5.365   0.613  0.6732  0.0428 -0.8370
19814TIP3    H280858   2.124   5.243   0.654 -1.6975 -1.1230  0.5131
19815TIP3   OH280859   1.052   2.545   4.454 -0.4634 -0.3617  0.3182
19815TIP3    H180860   1.060   2.546   4.549 -1.3949 -1.1251  0.4182
19815TIP3    H280861   1.061   2.453   4.430 -0.6837 -0.2288 -0.2849
19816TIP3   OH280862   1.228   1.707  11.509 -0.1127  0.1888  0.9296
19816TIP3    H180863   1.169   1.632  11.496 -0.1796  0.2026  1.1543
19816TIP3    H280864   1.282   1.683  11.585  0.7972 -0.2158  0.1783
19817TIP3   OH280865   2.796   4.112  14.995 -0.1352  0.1011 -0.3259
19817TIP3    H180866   2.855   4.181  15.026 -0.4965 -0.7869  2.6024
19817TIP3    H280867   2.718   4.158  14.965 -1.4205  1.0928  3.8534
19818TIP3   OH280868   0.575   3.107  11.454 -0.1466  0.0185 -0.2817
19818TIP3    H180869   0.641   3.063  11.507 -1.6190 -1.3605  0.4862
19818TIP3    H280870   0.551   3.043  11.387 -0.2936  0.7289 -0.9297
19819TIP3   OH280871   1.662   2.391  14.839  0.6905 -0.4077  0.4627
19819TIP3    H180872   1.594   2.390  14.773 -0.5826  0.1844  1.7095
19819TIP3    H280873   1.736   2.346  14.799  0.0893  0.2509 -1.4610
19820TIP3   OH280874   1.039   0.498   0.217 -0.3992  0.5645 -0.3145
19820TIP3    H180875   1.057   0.571   0.158 -0.7899  0.6790 -0.2885
19820TIP3    H280876   1.017   0.538   0.301 -1.2436  0.4368 -0.4678
19821TIP3   OH280877   0.738   0.096  13.819 -0.0173  0.1938  0.1694
19821TIP3    H180878   0.786   0.093  13.902 -0.2937 -0.5473  0.3027
19821TIP3    H280879   0.805   0.120  13.755  0.9647 -2.5161  0.0567
19822TIP3   OH280880   4.943   5.497  11.612 -0.4839 -0.2177 -0.1275
19822TIP3    H180881   4.863   5.474  11.566  0.2429  0.8694 -2.0418
19822TIP3    H280882   4.925   5.583  11.651 -0.8787 -0.8509  1.1433
19823TIP3   OH280883   1.587   1.170  13.322 -0.0724 -0.4349  0.2697
19823TIP3    H180884   1.546   1.175  13.408 -1.2363 -0.4470 -0.2723
19823TIP3    H280885   1.649   1.097  13.329  1.0273  0.5802  1.5677
19824TIP3   OH280886   2.133   6.150   1.005 -0.3237 -0.3332  0.3866
19824TIP3    H180887   2.051   6.191   0.978 -1.6778 -3.9531 -1.7209
19824TIP3    H280888   2.179   6.132   0.923  1.4231 -0.6276  1.3882
19825TIP3   OH280889   2.336   0.910   0.865  0.1163  0.3020 -0.2884
19825TIP3    H180890   2.244   0.931   0.875  0.3901  0.6723  1.8758
19825TIP3    H280891   2.360   0.864   0.946  1.7919  0.0569 -0.8681
19826TIP3   OH280892   2.403   1.658  14.375 -0.2787  0.1603  0.1385
19826TIP3    H180893   2.483   1.607  14.390  1.1737  0.9139 -3.8491
19826TIP3    H280894   2.375   1.684  14.463  0.9540 -4.2649  2.1090
19827TIP3   OH280895   1.840   4.228   2.786  0.4836  0.1400  0.5361
19827TIP3    H180896   1.832   4.323   2.781 -1.5894  0.1879  2.8202
19827TIP3    H280897   1.906   4.206   2.721  1.0111  3.1217 -0.0798
19828TIP3   OH280898   5.477   5.069   6.836 -0.0826 -0.2549  0.0652
19828TIP3    H180899   5.510   5.006   6.772 -1.0626 -1.4354  0.6748
19828TIP3    H280900   5.428   5.015   6.899 -0.5788  1.0764  0.8483
19829TIP3   OH280901   4.590   6.705   3.687  0.3216  0.5104  0.2413
19829TIP3    H180902   4.565   6.725   3.597  0.1208 -0.5564  0.0482
19829TIP3    H280903   4.648   6.628   3.679  2.1300  1.7395  0.8366
19830TIP3   OH280904   5.675   3.226   4.649 -0.0655 -0.1957 -0.3230
19830TIP3    H180905   5.692   3.135   4.675 -0.3722 -0.3856 -0.7705
19830TIP3    H280906   5.581   3.237   4.659  0.1967  0.6387  1.4627
19831TIP3   OH280907   3.720   1.021  12.572 -0.0717  0.1733  0.2590
19831TIP3    H180908   3.643   1.034  12.517 -1.2500  0.1253  1.8115
19831TIP3    H280909   3.756   0.937  12.543 -0.9541 -0.0923 -0.1169
19832TIP3   OH280910   1.758   3.126  11.669  0.3276  0.4253  0.2463
19832TIP3    H180911   1.716   3.150  11.587 -0.7260 -0.1157  0.6045
19832TIP3    H280912   1.745   3.032  11.676 -1.3621  0.7027  1.9370
19833TIP3   OH280913   3.311   6.187   3.865  0.3204  0.2256 -0.0537
19833TIP3    H180914   3.247   6.173   3.935 -1.9931 -1.2534 -2.2765
19833TIP3    H280915   3.396   6.181   3.909 -0.9561 -2.0753  2.4224
19834TIP3   OH280916   3.142   6.337  14.445  0.2181  0.4512 -0.0779
19834TIP3    H180917   3.086   6.414  14.434 -0.9836 -0.3899 -0.0313
19834TIP3    H280918   3.100   6.286  14.514  1.2605 -0.0314  0.2263
19835TIP3   OH280919   0.340   0.690   4.994 -0.6190  0.1517 -0.5582
19835TIP3    H180920   0.290   0.756   5.042  0.5521  0.7826 -0.1745
19835TIP3    H280921   0.381   0.739   4.923 -1.9208 -0.6766 -1.9466
19836TIP3   OH280922   0.465   0.763   1.020  0.0438 -0.5045 -0.1928
19836TIP3    H180923   0.373   0.740   1.028 -0.3143  1.2391  1.2410
19836TIP3    H280924   0.478   0.834   1.083  2.5033 -1.0758  0.0480
19837TIP3   OH280925   1.205   5.269  15.017 -0.1926 -0.2773 -0.0466
19837TIP3    H180926   1.258   5.205  15.065  1.4507  1.7599  1.0075
19837TIP3    H280927   1.267   5.336  14.989 -2.1613  2.3875  1.4886
19838TIP3   OH280928   5.479   3.333   3.704 -0.0565 -0.2731  0.0815
19838TIP3    H180929   5.574   3.338   3.696  0.3970  1.1804  4.0698
19838TIP3    H280930   5.446   3.395   3.639  1.6664 -0.8698 -1.4360
19839TIP3   OH280931   2.073   6.491   1.456  0.6765  0.4035  0.2485
19839TIP3    H180932   2.022   6.562   1.494  0.0266  0.6729 -1.0496
19839TIP3    H280933   2.139   6.470   1.521 -1.8106 -0.7998  2.5840
19840TIP3   OH280934   4.375   0.005  13.569 -0.0414 -0.1014  0.0230
19840TIP3    H180935   4.407   0.014  13.479 -0.6635 -0.0940 -0.2062
19840TIP3    H280936   4.445  -0.042  13.615  0.1817 -0.3203 -0.5249
19841TIP3   OH280937   3.098   1.122   0.150 -0.1406 -0.4242  0.1723
19841TIP3    H180938   3.103   1.211   0.118  1.8240 -0.8090 -0.6844
19841TIP3    H280939   3.127   1.127   0.241  1.7567 -0.4163 -0.4020
19842TIP3   OH280940   6.621   1.123   4.297  0.0726 -0.3471 -0.0264
19842TIP3    H180941   6.597   1.103   4.206 -0.4909 -0.2928  0.1050
19842TIP3    H280942   6.683   1.195   4.290 -0.5648  0.1846 -0.3341
19843TIP3   OH280943   3.314   4.832   0.477  0.7265 -0.3053 -0.6489
19843TIP3    H180944   3.310   4.923   0.507  2.4030 -0.1894 -0.6779
19843TIP3    H280945   3.407   4.817   0.458  0.4561 -1.9757 -0.8109
19844TIP3   OH280946   2.313   0.442  11.088 -0.0021 -0.5158  0.0036
19844TIP3    H180947   2.250   0.479  11.150  0.6285  0.0362  0.3223
19844TIP3    H280948   2.259   0.397  11.023 -0.9142  2.2379 -1.2946
19845TIP3   OH280949   2.877   0.405   4.428 -0.1465  0.2466 -0.1214
19845TIP3    H180950   2.948   0.388   4.490  0.0180  0.0895 -0.3505
19845TIP3    H280951   2.810   0.341   4.452  0.6057 -0.9984 -1.1911
19846TIP3   OH280952   4.709   0.109   4.586  0.3862  0.0159  0.1391
19846TIP3    H180953   4.646   0.092   4.656  0.7056  0.0692  0.4483
19846TIP3    H280954   4.725   0.024   4.546  0.2299 -0.0211  0.1558
19847TIP3   OH280955   5.204   0.368   2.346  0.6286  0.3797 -0.0387
19847TIP3    H180956   5.277   0.308   2.335 -0.0647 -0.4477 -0.2480
19847TIP3    H280957   5.126   0.313   2.335 -0.1540  0.3863  4.0950
19848TIP3   OH280958   1.356   2.966   1.352 -0.3496  0.4240 -0.2607
19848TIP3    H180959   1.324   3.005   1.271  0.7387  1.5653 -0.1836
19848TIP3    H280960   1.367   2.873   1.332 -0.1528  0.6834 -1.4108
19849TIP3   OH280961   1.438   5.399   2.149  0.2163 -0.5069 -0.2483
19849TIP3    H180962   1.409   5.445   2.228  0.2033 -0.7997 -0.0807
19849TIP3    H280963   1.392   5.315   2.152 -1.2673  0.1818 -1.5199
19850TIP3   OH280964   3.793   6.815  11.207  0.2312 -0.0899  0.2023
19850TIP3    H180965   3.776   6.883  11.271  1.0334 -0.5448  0.9233
19850TIP3    H280966   3.850   6.752  11.253 -0.5327 -1.2703 -0.4133
19851TIP3   OH280967   0.485   2.281  15.933 -0.0191  0.4184  1.0835
19851TIP3    H180968   0.564   2.328  15.958  0.3947 -0.0965  0.7491
19851TIP3    H280969   0.509   2.188  15.938 -0.1480  0.2772 -0.4478
19852TIP3   OH280970   4.380   1.451  16.781  0.1638  0.2044 -0.1483
19852TIP3    H180971   4.385   1.521  16.846 -2.2203 -0.9414  1.3902
19852TIP3    H280972   4.410   1.491  16.700  1.7304  2.1270  1.2885
19853TIP3   OH280973   6.026   3.836   2.309 -0.2904 -0.6522  0.4071
19853TIP3    H180974   5.993   3.790   2.231  0.6039  0.8864 -0.9224
19853TIP3    H280975   5.953   3.830   2.371 -1.0293 -1.9357 -0.5074
19854TIP3   OH280976   1.077   1.501  11.396 -0.5556 -0.4403  0.0486
19854TIP3    H180977   1.001   1.497  11.338  0.8759  0.3074 -1.9897
19854TIP3    H280978   1.123   1.419  11.381  0.0190 -0.0847 -0.1770
19855TIP3   OH280979   4.753   1.550  12.486 -0.2596  0.4807  0.2874
19855TIP3    H180980   4.824   1.551  12.422  0.0139  1.6629  0.5817
19855TIP3    H280981   4.716   1.639  12.483 -4.1297 -0.9569 -2.4225
19856TIP3   OH280982   1.249   6.775   1.266  0.6275  0.6365 -0.3078
19856TIP3    H180983   1.298   6.747   1.343 -0.3345  0.7189  0.3587
19856TIP3    H280984   1.234   6.869   1.281 -0.0705  0.5256 -0.3086
19857TIP3   OH280985   4.250   5.565   4.909  0.2928  0.7290  0.3991
19857TIP3    H180986   4.165   5.544   4.871  0.3748  0.8594  0.1406
19857TIP3    H280987   4.235   5.565   5.004  0.3804 -0.8291  0.4264
19858TIP3   OH280988   3.989   1.203  12.425 -0.5901  0.1993 -0.4609
19858TIP3    H180989   4.006   1.133  12.489 -1.6115  0.2018 -0.1564
19858TIP3    H280990   4.063   1.263  12.434 -1.5778  1.1822  2.1009
19859TIP3   OH280991   4.407   3.502   4.486  0.3647 -0.2090 -0.1561
19859TIP3    H180992   4.351   3.496   4.564 -0.1280  0.3303 -0.4587
19859TIP3    H280993   4.481   3.444   4.505  1.2841  1.4214  1.5588
19860TIP3   OH280994   0.525   1.206   6.043 -0.6229 -0.1201 -0.1404
19860TIP3    H180995   0.531   1.214   5.948  0.3077  0.3063 -0.0541
19860TIP3    H280996   0.615   1.208   6.073 -0.8647 -0.9829  0.7035
19861TIP3   OH280997   5.991   6.248   1.702  0.1375  0.1457  0.6717
19861TIP3    H180998   6.033   6.267   1.618  1.5518 -0.6249  1.1937
19861TIP3    H280999   5.898   6.236   1.680  0.1418  1.8943 -0.4902
19862TIP3   OH281000   3.790   5.594  12.881 -0.0227  0.1932 -0.2301
19862TIP3    H181001   3.720   5.530  12.888  0.0256  0.0050 -1.3292
19862TIP3    H281002   3.806   5.622  12.971 -0.7835 -0.5329  0.1415
19863TIP3   OH281003   6.285   0.342   5.230 -0.3114  0.0209 -0.0735
19863TIP3    H181004   6.339   0.264   5.214  0.6548  0.7112 -0.2945
19863TIP3    H281005   6.297   0.361   5.323 -0.1272  0.1989 -0.1320
19864TIP3   OH281006   4.638   0.228  15.975  0.0039 -0.4922  0.1606
19864TIP3    H181007   4.557   0.277  15.989 -1.3864 -2.0547 -1.8409
19864TIP3    H281008   4.690   0.244  16.054 -2.5228  0.0196  1.8363
19865TIP3   OH281009   6.115   3.872  16.405  0.3260 -0.3672 -0.0751
19865TIP3    H181010   6.140   3.799  16.460  1.7137  0.7962  0.9242
19865TIP3    H281011   6.096   3.943  16.466  1.8235  0.9385 -1.0355
19866TIP3   OH281012   1.081   6.029  14.260  0.2513  0.1143  0.2234
19866TIP3    H181013   1.035   6.026  14.344  0.1153  1.1652  0.1992
19866TIP3    H281014   1.084   6.122  14.238 -0.5725 -0.2026 -1.4004
19867TIP3   OH281015   3.693   0.259   0.198  0.3129 -0.0069  0.9375
19867TIP3    H181016   3.655   0.313   0.267 -0.7174 -0.1639  0.5180
19867TIP3    H281017   3.630   0.264   0.126  1.7741  0.8354 -0.3305
19868TIP3   OH281018   0.707   5.439   0.717 -0.6117  0.1245 -0.6932
19868TIP3    H181019   0.758   5.482   0.786 -1.6314  0.9100 -0.3970
19868TIP3    H281020   0.772   5.414   0.651  0.2458  0.3621  0.0421
19869TIP3   OH281021   4.961   5.548   1.182  0.1757 -0.3011  0.5689
19869TIP3    H181022   4.929   5.458   1.191 -1.3683  0.1150 -0.3222
19869TIP3    H281023   5.024   5.544   1.110 -1.8890 -0.2530 -1.3284
19870TIP3   OH281024   4.522   0.848  10.911  0.0744  0.1069  0.2609
19870TIP3    H181025   4.431   0.873  10.893 -0.0340  1.1614  1.9901
19870TIP3    H281026   4.570   0.874  10.833 -0.9604  0.5226 -0.2575
19871TIP3   OH281027   6.058   1.258  17.000  0.3668 -0.3956  0.5566
19871TIP3    H181028   6.123   1.327  16.986  0.1713 -0.4346 -0.6678
19871TIP3    H281029   6.109   1.177  16.993  0.5608 -0.4069  1.8002
19872TIP3   OH281030   4.301   3.155  13.157 -1.0437 -0.2746  0.1020
19872TIP3    H181031   4.257   3.097  13.219 -1.3052  0.0433  0.2186
19872TIP3    H281032   4.383   3.110  13.136 -1.1024 -0.5399  0.4254
19873TIP3   OH281033   3.397   2.714  13.845  0.6751  0.4045  0.1575
19873TIP3    H181034   3.444   2.740  13.924  0.4164 -2.0383  1.2061
19873TIP3    H281035   3.461   2.667  13.793  0.7234  1.6233 -0.9274
19874TIP3   OH281036   3.364   0.308   4.400 -0.2986  0.1859  0.6261
19874TIP3    H181037   3.337   0.291   4.309 -1.9441 -0.4312  1.1897
19874TIP3    H281038   3.413   0.390   4.396 -0.0275 -0.0191 -0.8635
19875TIP3   OH281039   1.495   4.204  16.272 -0.3577  0.3801  0.4974
19875TIP3    H181040   1.454   4.247  16.347  1.0340  1.3942  0.6988
19875TIP3    H281041   1.587   4.231  16.275  0.0604 -0.7876 -0.6965
19876TIP3   OH281042   0.820   5.621   5.689  0.0804 -0.0986 -0.0527
19876TIP3    H181043   0.846   5.700   5.641 -1.2714  0.3478 -0.1005
19876TIP3    H281044   0.807   5.652   5.779 -1.9384  0.1064 -0.3700
19877TIP3   OH281045   1.123   3.270   4.188  0.0179  0.4815  0.3928
19877TIP3    H181046   1.172   3.248   4.109 -1.0458  0.6467 -0.3275
19877TIP3    H281047   1.102   3.362   4.179 -0.0167  0.5313  0.9349
19878TIP3   OH281048   3.313   5.569  13.769  0.4677  0.1988  0.2081
19878TIP3    H181049   3.255   5.579  13.844 -1.0591 -0.1324 -0.8653
19878TIP3    H281050   3.344   5.479  13.775  0.9016  0.3867  0.8121
19879TIP3   OH281051   6.696   4.247  14.106 -0.3974 -0.5193  0.3142
19879TIP3    H181052   6.691   4.239  14.011  1.1994 -2.5618  0.3113
19879TIP3    H281053   6.748   4.326  14.121 -1.6822  0.5035 -0.4372
19880TIP3   OH281054   4.028   0.739   3.157 -0.0411 -0.0351 -0.3442
19880TIP3    H181055   4.069   0.821   3.130 -2.2393  0.9772 -0.8648
19880TIP3    H281056   4.054   0.728   3.249  0.9154  0.8073 -0.4945
19881TIP3   OH281057   3.811   6.548  12.174  0.7290  0.2481  0.2668
19881TIP3    H181058   3.801   6.643  12.180 -1.5661  0.0978 -0.3858
19881TIP3    H281059   3.806   6.517  12.264 -1.7755  0.5473  0.3063
19882TIP3   OH281060   0.058   0.996   4.859  0.4804  0.2726 -0.1056
19882TIP3    H181061   0.084   1.009   4.950 -1.5691 -1.1957  0.7658
19882TIP3    H281062   0.082   0.905   4.840  2.8185  1.1473 -1.7913
19883TIP3   OH281063   3.545   6.800   5.480 -0.1719 -0.4775  0.1974
19883TIP3    H181064   3.604   6.833   5.548  0.6136  2.8373 -1.8569
19883TIP3    H281065   3.458   6.803   5.520  0.4330 -0.2970  1.5597
19884TIP3   OH281066   5.520   2.306  16.898  0.3449  0.3829 -0.2445
19884TIP3    H181067   5.563   2.277  16.818 -0.0137 -1.2627  0.1209
19884TIP3    H281068   5.569   2.262  16.968  0.9783  2.1860  0.5083
19885TIP3   OH281069   5.287   2.315  13.919  0.2927 -0.1014 -0.1811
19885TIP3    H181070   5.209   2.271  13.954  0.8594 -1.6927 -0.8178
19885TIP3    H281071   5.358   2.253  13.936  1.3153  1.0230 -0.2428
19886TIP3   OH281072   3.346   5.295  13.747 -0.0985  0.2979 -0.0013
19886TIP3    H181073   3.373   5.210  13.782  0.6236  0.4769 -0.1049
19886TIP3    H281074   3.326   5.277  13.655  0.3607  0.2952 -0.1040
19887TIP3   OH281075   2.312   6.430   1.628 -0.0255 -0.1333  0.2817
19887TIP3    H181076   2.390   6.479   1.603 -1.7952  1.9539 -1.5750
19887TIP3    H281077   2.303   6.361   1.562 -0.3048  0.2891 -0.1252
19888TIP3   OH281078   3.143   0.540  13.073  0.1572  0.1824  0.2574
19888TIP3    H181079   3.122   0.446  13.071  1.1466 -0.0415  0.2511
19888TIP3    H281080   3.110   0.569  13.159  0.6148 -0.3547  0.6205
19889TIP3   OH281081   2.000   4.990  13.220  0.4391 -0.1808 -0.0447
19889TIP3    H181082   2.074   5.050  13.226 -0.6570  1.0990  2.0019
19889TIP3    H281083   1.941   5.030  13.156 -1.5130  2.5759  3.1582
19890TIP3   OH281084   6.358   1.237   0.528  0.0827  0.0311  0.1631
19890TIP3    H181085   6.389   1.230   0.437  0.0913 -0.8011  0.2258
19890TIP3    H281086   6.346   1.331   0.541  0.6798  0.2136 -0.5018
19891TIP3   OH281087   1.339   5.012  15.074 -0.1612 -0.1947  0.0742
19891TIP3    H181088   1.411   4.971  15.025 -0.4411 -0.4468 -0.1348
19891TIP3    H281089   1.263   5.003  15.016 -0.9534 -2.2423  1.3200
19892TIP3   OH281090   3.104   4.967  16.877  0.1853  0.0517 -0.4117
19892TIP3    H181091   3.088   5.011  16.960 -2.6213  0.6425 -1.1574
19892TIP3    H281092   3.184   4.916  16.892  0.2425  0.7756  2.3470
19893TIP3   OH281093   1.222   3.876  12.793 -0.0447 -0.3891  0.1433
19893TIP3    H181094   1.212   3.786  12.823 -0.0217 -0.2799  0.4763
19893TIP3    H281095   1.207   3.871  12.698 -2.0900 -0.4153  0.4389
19894TIP3   OH281096   5.874   6.779  13.655 -0.8217  0.3662  0.2576
19894TIP3    H181097   5.903   6.758  13.566 -0.9730 -0.6666  0.4334
19894TIP3    H281098   5.845   6.870  13.651 -0.8960  0.3049 -0.7645
19895TIP3   OH281099   2.070   1.176  13.958 -0.5360 -0.3578 -0.5187
19895TIP3    H181100   2.104   1.121  13.888 -1.3300 -0.4998 -0.8064
19895TIP3    H281101   2.006   1.233  13.915  0.1093  0.6512 -0.1928
19896TIP3   OH281102   3.623   1.647   0.282 -0.4629 -0.4903  0.0804
19896TIP3    H181103   3.647   1.739   0.271 -1.2320  0.0167  2.1184
19896TIP3    H281104   3.652   1.625   0.371 -1.3732 -1.8662  0.0751
19897TIP3   OH281105   3.914   5.332  13.856 -0.2426  0.3415 -0.3863
19897TIP3    H181106   3.885   5.407  13.909  0.6874 -0.0899  0.7911
19897TIP3    H281107   3.833   5.287  13.832 -0.7945  1.6099 -0.9383
19898TIP3   OH281108   5.742   4.149  14.415 -0.1999  0.0252 -0.0632
19898TIP3    H181109   5.818   4.095  14.394 -0.0369  0.2765 -0.1204
19898TIP3    H281110   5.773   4.210  14.482 -1.2651 -2.2031  2.6476
19899TIP3   OH281111   4.928   2.457  10.975  0.4257  0.1662 -0.4598
19899TIP3    H181112   5.002   2.424  11.025  0.8546  0.1111 -1.1221
19899TIP3    H281113   4.923   2.550  10.999  1.9143  0.6453 -1.8239
19900TIP3   OH281114   5.341   5.616  11.299 -0.0956 -0.0155  0.0574
19900TIP3    H181115   5.347   5.707  11.326  0.4082 -0.0331  0.0065
19900TIP3    H281116   5.299   5.572  11.373  1.9971 -0.2106  1.2002
19901TIP3   OH281117   6.120   0.648  16.660 -0.5650 -0.4090 -0.2281
19901TIP3    H181118   6.196   0.631  16.716 -1.4549  0.3246  1.2564
19901TIP3    H281119   6.045   0.619  16.711 -1.5610  1.8034 -0.2913
19902TIP3   OH281120   5.764   1.822   1.405 -0.2968  0.0733  0.7819
19902TIP3    H181121   5.806   1.739   1.384 -0.6640  0.3826 -1.3601
19902TIP3    H281122   5.810   1.853   1.483  3.3748  0.2851 -1.2543
19903TIP3   OH281123   0.014   1.496   0.254  0.6294 -0.0313 -0.4106
19903TIP3    H181124   0.031   1.410   0.293 -0.8307 -0.3808 -0.5010
19903TIP3    H281125   0.000   1.554   0.329  0.7989 -0.0481 -0.3658
19904TIP3   OH281126   6.343   1.059  16.803  0.1328 -0.0997  0.2869
19904TIP3    H181127   6.287   1.127  16.841  1.8485  1.2390  0.5595
19904TIP3    H281128   6.431   1.097  16.805  0.7775 -1.2755 -2.0455
19905TIP3   OH281129   4.949   5.081   1.596 -0.6001  0.2149  0.2375
19905TIP3    H181130   4.962   4.986   1.599 -0.1934  0.2159 -1.1786
19905TIP3    H281131   5.037   5.118   1.606 -0.5680  0.4094 -0.7477
19906TIP3   OH281132   4.099   3.615  11.128 -0.4251  0.4423  0.1957
19906TIP3    H181133   4.038   3.685  11.152  0.3920  1.2115  0.0682
19906TIP3    H281134   4.136   3.643  11.044  1.0841  0.6478  0.9058
19907TIP3   OH281135   4.905   6.590   4.252 -0.5728  0.0912  0.2622
19907TIP3    H181136   4.816   6.624   4.246 -0.4440  1.0462  2.6236
19907TIP3    H281137   4.960   6.657   4.212 -0.8125 -0.0577 -0.3274
19908TIP3   OH281138   5.154   3.220  11.943 -0.2098 -0.1687 -0.3207
19908TIP3    H181139   5.071   3.184  11.975  0.7356 -0.3561  2.1462
19908TIP3    H281140   5.158   3.308  11.979  0.5449 -0.0715 -0.6156
19909TIP3   OH281141   1.469   4.495  16.726  0.0994  0.2973  0.2880
19909TIP3    H181142   1.385   4.511  16.684  0.1552 -1.0041 -0.3988
19909TIP3    H281143   1.487   4.573  16.778 -0.9130  1.1223 -0.5834
19910TIP3   OH281144   4.157   5.367  11.011  0.0693  0.1926  0.3560
19910TIP3    H181145   4.105   5.295  10.974  0.1304 -0.1692  0.9670
19910TIP3    H281146   4.115   5.446  10.978 -1.3008 -0.0683  1.3757
19911TIP3   OH281147   1.252   5.706  16.214  1.2681 -0.2166 -0.0845
19911TIP3    H181148   1.194   5.680  16.142  0.4583  1.5925 -0.1530
19911TIP3    H281149   1.204   5.680  16.293  1.8499 -1.5940 -0.1618
19912TIP3   OH281150   5.764   3.635  14.313 -0.0809 -0.2871 -0.0086
19912TIP3    H181151   5.829   3.624  14.381 -0.7770 -1.3540  0.5309
19912TIP3    H281152   5.718   3.716  14.335  0.8153  0.2774 -0.1948
19913TIP3   OH281153   2.665   3.367   4.816 -0.1106  0.3950 -0.6080
19913TIP3    H181154   2.685   3.460   4.800  2.1805  0.1219  0.3016
19913TIP3    H281155   2.672   3.358   4.911  1.0558 -0.9839 -0.8054
19914TIP3   OH281156   5.304   0.832   4.332  0.0045 -0.8265 -0.6530
19914TIP3    H181157   5.388   0.876   4.344 -0.2350 -0.8625  1.5349
19914TIP3    H281158   5.327   0.746   4.296  1.0613 -1.2527  0.9003
19915TIP3   OH281159   0.381   0.920  15.718  0.6606 -0.3900  0.2925
19915TIP3    H181160   0.308   0.933  15.777  0.5798 -0.7255  0.2656
19915TIP3    H281161   0.427   0.843  15.751  0.8869 -0.3004  0.1958
19916TIP3   OH281162   5.706   6.324   0.885 -0.1894 -0.3382 -0.0529
19916TIP3    H181163   5.795   6.300   0.909  0.0122 -0.4973 -0.9276
19916TIP3    H281164   5.673   6.375   0.959  0.5738 -0.4074  0.3343
19917TIP3   OH281165   6.615   5.246   5.111 -0.3518 -0.2758  0.1512
19917TIP3    H181166   6.584   5.250   5.202  1.9228 -0.1918  0.9817
19917TIP3    H281167   6.621   5.153   5.092 -1.0696 -0.2949 -0.0303
19918TIP3   OH281168   2.177   4.615   3.575 -0.2737  0.5181  0.1858
19918TIP3    H181169   2.159   4.543   3.636 -0.5781 -0.0869 -0.5975
19918TIP3    H281170   2.160   4.694   3.626  0.6220  0.0624  1.2335
19919TIP3   OH281171   4.598   1.080   2.247 -0.0087  0.2496 -0.5704
19919TIP3    H181172   4.604   0.985   2.261  1.3572  0.1717 -1.5186
19919TIP3    H281173   4.537   1.110   2.314  0.4728 -1.1377  0.5436
19920TIP3   OH281174   4.420   6.777  13.901  0.2698 -0.0481 -0.1196
19920TIP3    H181175   4.331   6.802  13.875  1.3379  0.3318 -4.1233
19920TIP3    H281176   4.409   6.716  13.974 -3.2555 -0.1509 -0.6039
19921TIP3   OH281177   3.225   5.453   4.362 -0.5214 -0.7324  0.1249
19921TIP3    H181178   3.285   5.386   4.329 -1.2765 -0.5761 -1.6822
19921TIP3    H281179   3.195   5.499   4.283 -0.7972  1.0858  1.2348
19922TIP3   OH281180   0.288   6.222  13.040 -0.4055 -0.1246 -0.3251
19922TIP3    H181181   0.214   6.165  13.019 -0.8132 -1.3253  3.5754
19922TIP3    H281182   0.265   6.307  13.000 -1.6810 -1.5474 -2.9034
19923TIP3   OH281183   3.242   2.173   0.833  0.3585  0.4425  0.0733
19923TIP3    H181184   3.212   2.148   0.746 -0.5966  0.7038  0.3162
19923TIP3    H281185   3.162   2.197   0.880  0.8111 -0.1354  1.1645
19924TIP3   OH281186   5.040   0.687  12.764 -0.0332  1.0024 -0.3790
19924TIP3    H181187   5.082   0.608  12.730  2.0198  1.6751  0.4441
19924TIP3    H281188   5.068   0.691  12.856 -1.8763  1.5576  0.1959
19925TIP3   OH281189   1.551   2.998  12.212 -0.8583  0.2669  0.7264
19925TIP3    H181190   1.522   2.908  12.201  0.9304 -0.2137 -0.4548
19925TIP3    H281191   1.624   2.992  12.274  0.7834  0.5469 -1.1108
19926TIP3   OH281192   6.652   6.691   5.458  0.1972 -0.0022 -0.2654
19926TIP3    H181193   6.654   6.713   5.365  1.1032 -0.6824 -0.4179
19926TIP3    H281194   6.582   6.746   5.494  0.6066  1.1129 -1.1172
19927TIP3   OH281195   6.354   1.885   1.490 -0.6718 -0.0492  0.0426
19927TIP3    H181196   6.364   1.803   1.442 -0.2905  1.1450 -2.0482
19927TIP3    H281197   6.444   1.915   1.504 -0.7595  1.7921 -2.5961
19928TIP3   OH281198   3.284   3.248  15.581  0.2223  0.1107  0.1925
19928TIP3    H181199   3.232   3.321  15.615  0.7591  1.6020 -2.0170
19928TIP3    H281200   3.244   3.226  15.497 -1.5776 -4.0236  1.8230
19929TIP3   OH281201   4.127   4.235   6.109  0.2434  0.7266 -0.5377
19929TIP3    H181202   4.124   4.142   6.129  1.2294  0.2520 -2.4108
19929TIP3    H281203   4.110   4.278   6.193 -1.7414 -1.1117  0.1029
19930TIP3   OH281204   6.414   1.148  12.595  0.5898 -0.2220 -0.2581
19930TIP3    H181205   6.508   1.144  12.612  0.6912 -2.5275 -1.1035
19930TIP3    H281206   6.375   1.108  12.673  0.4275 -0.8123 -0.6371
19931TIP3   OH281207   2.195   0.550   6.143 -0.4001  0.2005 -0.5774
19931TIP3    H181208   2.285   0.534   6.169 -0.5806 -0.7335 -0.4762
19931TIP3    H281209   2.199   0.626   6.085  0.3388  0.6716  0.0699
19932TIP3   OH281210   6.184   4.497   3.437 -0.2404 -0.8828  0.4896
19932TIP3    H181211   6.262   4.474   3.386 -0.4713 -0.9503  0.1545
19932TIP3    H281212   6.185   4.436   3.511 -1.6044 -3.0731 -1.1356
19933TIP3   OH281213   6.741   5.952  15.917 -0.5734  0.3935 -0.4802
19933TIP3    H181214   6.695   5.948  16.001 -2.3024  0.8595 -1.3459
19933TIP3    H281215   6.791   6.033  15.920  1.5100 -0.8685  1.0802
19934TIP3   OH281216   6.644   2.300   0.624  0.2655 -0.0242  0.0145
19934TIP3    H181217   6.695   2.370   0.582  0.8863 -0.8352 -0.6234
19934TIP3    H281218   6.709   2.239   0.657 -0.2804 -0.8354 -0.3747
19935TIP3   OH281219   4.076   3.935  13.835 -0.4303  0.0744  0.4089
19935TIP3    H181220   4.113   3.851  13.809 -1.1513  0.0274 -0.5042
19935TIP3    H281221   4.041   3.919  13.922  1.0767 -0.0535  1.0274
19936TIP3   OH281222   0.560   5.195  14.082  0.1006 -0.4289  0.1670
19936TIP3    H181223   0.565   5.268  14.144  0.5835 -1.1401  0.9998
19936TIP3    H281224   0.495   5.136  14.120 -1.5626  0.3099 -1.3603
19937TIP3   OH281225   6.598   4.131  15.101 -0.6405  0.2054  0.1979
19937TIP3    H181226   6.548   4.070  15.155 -0.3250  0.3298  0.6350
19937TIP3    H281227   6.596   4.213  15.150  1.2582 -0.1661  0.9889
19938TIP3   OH281228   2.386   0.086  13.616  0.4294 -0.0361  0.0367
19938TIP3    H181229   2.352  -0.002  13.596  1.5865 -0.3422 -0.6923
19938TIP3    H281230   2.338   0.113  13.694  1.5025 -2.1837  1.5416
19939TIP3   OH281231   5.970   2.066   3.428  0.5070 -0.4111  0.2326
19939TIP3    H181232   5.991   2.119   3.352  1.0475 -0.4616  0.3415
19939TIP3    H281233   5.907   2.001   3.396  0.0976  0.0844  0.0250
19940TIP3   OH281234   1.973   0.207   1.478 -0.2892 -0.2552 -0.3863
19940TIP3    H181235   2.046   0.154   1.511 -1.1615 -0.1314  1.9389
19940TIP3    H281236   1.895   0.167   1.516 -0.9506  3.0019  2.2165
19941TIP3   OH281237   1.801   5.442  15.030 -0.0169  0.3499 -0.4210
19941TIP3    H181238   1.738   5.464  14.961 -0.8554 -0.6521  0.0033
19941TIP3    H281239   1.812   5.348  15.024 -0.3074  0.2000  0.9698
19942TIP3   OH281240   0.581   1.073  13.853  0.0599 -0.0425 -0.1315
19942TIP3    H181241   0.528   1.003  13.889 -1.3287 -0.3309 -2.5110
19942TIP3    H281242   0.527   1.151  13.861 -0.4979 -0.1989 -1.8806
19943TIP3   OH281243   0.849   6.009  11.138 -0.2297  0.9933  0.5996
19943TIP3    H181244   0.849   5.921  11.175  0.8601  0.7004 -0.0593
19943TIP3    H281245   0.925   6.052  11.177 -0.2735  1.3637  0.2822
19944TIP3   OH281246   4.225   3.375  15.174 -0.0510 -0.1914  0.4898
19944TIP3    H181247   4.315   3.387  15.206  0.2485 -0.4391 -0.2397
19944TIP3    H281248   4.172   3.367  15.254  0.6942 -0.9059  0.9383
19945TIP3   OH281249   5.234   0.973  15.977  0.6404  0.2183 -0.8673
19945TIP3    H181250   5.172   0.933  15.917  2.5022 -1.6811 -1.6497
19945TIP3    H281251   5.315   0.983  15.926  1.6192  0.6467  0.6738
19946TIP3   OH281252   2.202   6.489  12.948 -0.5328 -0.5147  0.6037
19946TIP3    H181253   2.178   6.508  13.039 -0.8376 -2.3415  0.9291
19946TIP3    H281254   2.119   6.465  12.907 -0.1163 -1.5624  0.3487
19947TIP3   OH281255   5.670   5.523  16.894 -0.4962 -0.1867  0.0317
19947TIP3    H181256   5.630   5.609  16.882 -0.0691  0.0867  0.5308
19947TIP3    H281257   5.634   5.490  16.977  0.4739  0.1670  0.6126
19948TIP3   OH281258   6.082   2.586  14.054 -0.2510 -0.3929 -1.0406
19948TIP3    H181259   6.117   2.506  14.015 -0.3898 -0.2399 -1.4837
19948TIP3    H281260   6.155   2.622  14.104 -0.9125 -2.2239  1.5027
19949TIP3   OH281261   4.823   1.737   6.757  0.2497 -0.7425 -0.3389
19949TIP3    H181262   4.853   1.828   6.759 -0.7207 -0.3463 -1.9164
19949TIP3    H281263   4.901   1.687   6.733  0.3336 -0.0412 -1.6526
19950TIP3   OH281264   3.002   6.163   1.680 -0.6078  0.4807 -0.3476
19950TIP3    H181265   2.924   6.162   1.736  0.4617  2.1590  1.2849
19950TIP3    H281266   3.071   6.199   1.736  1.5052 -1.4343 -1.5507
19951TIP3   OH281267   5.124   2.485  16.287  0.1482  0.2338  0.6533
19951TIP3    H181268   5.057   2.418  16.305 -0.2453  0.6038  0.5879
19951TIP3    H281269   5.204   2.435  16.272 -0.3660 -0.2908 -0.4614
19952TIP3   OH281270   0.836   0.806  16.890  0.3645 -0.0377  0.7632
19952TIP3    H181271   0.761   0.752  16.866 -1.1216  1.9355  0.6888
19952TIP3    H281272   0.906   0.779  16.831 -1.2561  0.2249 -1.3908
19953TIP3   OH281273   1.244   3.631   5.150 -0.6478  0.2004 -0.2970
19953TIP3    H181274   1.185   3.692   5.105 -0.3184 -0.1874 -1.2604
19953TIP3    H281275   1.276   3.681   5.226 -1.0063  0.9491 -0.6276
19954TIP3   OH281276   6.126   2.041   0.319 -0.3895 -0.4101 -0.5188
19954TIP3    H181277   6.197   1.977   0.314  1.2964  0.6624  4.2608
19954TIP3    H281278   6.147   2.105   0.251  1.9274 -1.3274 -0.7754
19955TIP3   OH281279   5.840   3.321  15.469 -0.3608 -0.3515 -0.2921
19955TIP3    H181280   5.861   3.228  15.482 -0.7132 -0.3469  0.3448
19955TIP3    H281281   5.865   3.363  15.551  0.5179  0.2541 -0.8586
19956TIP3   OH281282   1.890   3.250  14.379 -0.2732  0.2497  0.2569
19956TIP3    H181283   1.865   3.253  14.287  0.7681 -3.2517 -0.2948
19956TIP3    H281284   1.807   3.242  14.426 -0.7719  1.3922 -0.3860
19957TIP3   OH281285   6.187   2.686  15.587 -0.0208 -0.4287 -0.4487
19957TIP3    H181286   6.104   2.728  15.561 -0.5334 -0.3340  1.2403
19957TIP3    H281287   6.254   2.734  15.538 -0.8146  0.6831 -0.4974
19958TIP3   OH281288   6.403   3.545   1.622  0.2122 -0.6955  0.6577
19958TIP3    H181289   6.438   3.579   1.540  0.1416 -1.5100  0.2768
19958TIP3    H281290   6.469   3.483   1.652  1.0321  0.7976  2.0916
19959TIP3   OH281291   3.613   2.543  15.155  0.4093  0.4299 -0.0379
19959TIP3    H181292   3.544   2.586  15.104  1.4837  0.6033 -1.4154
19959TIP3    H281293   3.574   2.527  15.240 -1.2857  0.6517 -0.7371
19960TIP3   OH281294   1.604   2.264  17.052  0.2865 -0.1148 -0.3828
19960TIP3    H181295   1.535   2.319  17.016 -0.5344 -0.8809 -0.0147
19960TIP3    H281296   1.572   2.240  17.139  1.2279 -0.1167 -0.0201
19961TIP3   OH281297   5.320   6.491   3.582  0.7699  0.1744  0.6595
19961TIP3    H181298   5.278   6.505   3.497  0.2739  2.4931  1.2362
19961TIP3    H281299   5.283   6.408   3.613  2.4138 -1.7985 -2.1681
19962TIP3   OH281300   0.021   3.556  11.560 -0.0983 -0.1525  0.2450
19962TIP3    H181301   0.023   3.607  11.479  0.4696 -0.4256  0.0827
19962TIP3    H281302  -0.002   3.620  11.628  3.3058  0.9851  0.5018
19963TIP3   OH281303   6.215   6.769  13.356 -0.0490  0.1726 -0.6272
19963TIP3    H181304   6.292   6.713  13.348  0.1373  0.0510  1.3225
19963TIP3    H281305   6.223   6.806  13.444 -2.0169  0.4752 -0.5393
19964TIP3   OH281306   2.172   2.026  13.415  0.1522 -0.3245 -0.1714
19964TIP3    H181307   2.079   2.030  13.392  0.6133  1.7102 -2.0104
19964TIP3    H281308   2.183   1.940  13.457 -2.3403 -1.0249 -0.7943
19965TIP3   OH281309   6.667   5.424  12.553 -0.0204 -0.3932 -0.7410
19965TIP3    H181310   6.598   5.481  12.519  0.8075  0.4912 -0.9684
19965TIP3    H281311   6.651   5.340  12.511 -1.8077 -0.6359  0.2948
19966TIP3   OH281312   3.723   4.892   1.913  0.2613  0.2558  0.7198
19966TIP3    H181313   3.713   4.975   1.865  0.4057 -0.5454 -0.7510
19966TIP3    H281314   3.816   4.887   1.932  0.8805 -1.0639 -2.1231
19967TIP3   OH281315   6.122   1.376   5.192 -0.5464 -0.2226 -0.3925
19967TIP3    H181316   6.136   1.297   5.245  0.0181  0.8140  1.0946
19967TIP3    H281317   6.040   1.360   5.146 -1.1774 -1.1070  0.9731
19968TIP3   OH281318   4.336   2.478  14.226  0.3345  0.2692 -0.6409
19968TIP3    H181319   4.411   2.468  14.167  1.7884 -2.1464  1.4354
19968TIP3    H281320   4.372   2.522  14.303 -0.0429 -1.9359  0.8631
19969TIP3   OH281321   6.397   4.212   2.008 -0.1507 -0.1662 -0.4444
19969TIP3    H181322   6.481   4.188   2.047  0.5328  0.3469 -1.5135
19969TIP3    H281323   6.331   4.175   2.066  0.8189 -2.0471 -0.4682
19970TIP3   OH281324   0.670   2.044  14.146 -0.1869  0.1720 -0.3231
19970TIP3    H181325   0.651   1.982  14.217  0.2231 -2.2036 -2.1550
19970TIP3    H281326   0.588   2.091  14.133 -0.3447  0.4992  1.5176
19971TIP3   OH281327   6.245   2.035   4.969  0.1017  0.7110 -0.6435
19971TIP3    H181328   6.155   2.003   4.977  0.3724 -0.0109 -0.4590
19971TIP3    H281329   6.267   2.068   5.056  0.9606 -1.6498  0.0979
19972TIP3   OH281330   5.618   1.038   2.686  0.0175 -0.0245  0.0084
19972TIP3    H181331   5.581   1.003   2.605  0.2895  2.1159 -1.1095
19972TIP3    H281332   5.624   1.132   2.671  5.4200 -0.0155  0.2094
19973TIP3   OH281333   1.016   4.443  12.736 -0.2971 -0.5668 -0.2725
19973TIP3    H181334   0.948   4.475  12.795  0.7909 -0.3369  0.9122
19973TIP3    H281335   1.085   4.410  12.795  0.2851 -1.4951 -1.4305
19974TIP3   OH281336   0.294   2.341  16.163  0.4529 -0.3734 -0.1728
19974TIP3    H181337   0.344   2.303  16.090 -1.2547 -2.6783 -0.2368
19974TIP3    H281338   0.361   2.372  16.224  1.9833 -2.2751 -0.7854
19975TIP3   OH281339   3.634   0.598   5.618  0.0535  0.2368  0.0923
19975TIP3    H181340   3.594   0.579   5.703  0.1749  0.2141  0.1459
19975TIP3    H281341   3.653   0.692   5.621  0.1822  0.2096  0.1452
19976TIP3   OH281342   6.621   1.956  11.866 -0.4477  0.1369 -0.3550
19976TIP3    H181343   6.689   1.930  11.804  1.5173 -0.5866  1.9141
19976TIP3    H281344   6.626   1.889  11.935 -2.0751  1.2215  0.8835
19977TIP3   OH281345   6.440   1.806   3.621  0.8362 -0.5698  0.3544
19977TIP3    H181346   6.389   1.885   3.606  0.2419 -1.0900 -0.3913
19977TIP3    H281347   6.409   1.772   3.705 -1.2100 -1.7239 -0.7810
19978TIP3   OH281348   4.735   6.109   4.591  0.1898 -0.0633 -0.3079
19978TIP3    H181349   4.741   6.175   4.522  1.3493 -1.0452 -1.1989
19978TIP3    H281350   4.742   6.158   4.673  1.2337  0.9077 -0.9527
19979TIP3   OH281351   0.597   3.647   4.790  0.3841 -0.0586 -0.6177
19979TIP3    H181352   0.636   3.579   4.736 -1.2280 -2.8149  1.4300
19979TIP3    H281353   0.540   3.695   4.730 -0.2931 -2.1072 -1.7075
19980TIP3   OH281354   4.606   4.186  12.215 -0.3586 -0.5001  0.0809
19980TIP3    H181355   4.545   4.228  12.275 -0.0459 -0.0469  0.0844
19980TIP3    H281356   4.689   4.184  12.263  0.3130  1.3612 -0.9369
19981TIP3   OH281357   2.624   4.474  15.477 -0.4992 -0.3029 -0.1456
19981TIP3    H181358   2.675   4.549  15.447 -1.2436  0.4792  0.4834
19981TIP3    H281359   2.650   4.402  15.420  1.2753  0.0742  0.1207
19982TIP3   OH281360   2.899   1.392  15.510 -0.4363  0.2691  0.0451
19982TIP3    H181361   2.866   1.471  15.468  1.3553  0.2773 -1.4639
19982TIP3    H281362   2.850   1.321  15.468 -0.2314  0.4275 -0.4680
19983TIP3   OH281363   5.219   3.521  12.096 -0.8439 -0.1655  0.4676
19983TIP3    H181364   5.308   3.519  12.062 -0.5044  0.9244  1.2275
19983TIP3    H281365   5.187   3.609  12.075 -1.4276 -0.2478  0.9622
19984TIP3   OH281366   2.901   2.533   4.492  0.3549 -0.5838 -0.2357
19984TIP3    H181367   2.817   2.567   4.462  0.3959 -1.6012 -1.6283
19984TIP3    H281368   2.899   2.543   4.587 -1.0837 -0.0241 -0.3060
19985TIP3   OH281369   1.343   3.867  11.462 -0.5781 -0.2263  0.1084
19985TIP3    H181370   1.289   3.867  11.383 -0.1430  1.1911 -0.2219
19985TIP3    H281371   1.287   3.903  11.530 -0.7374 -0.8232  0.3013
19986TIP3   OH281372   0.397   2.484  12.236 -0.0121 -0.1429 -0.0710
19986TIP3    H181373   0.428   2.394  12.226 -0.1853 -0.5003  2.1287
19986TIP3    H281374   0.445   2.533  12.169  0.5499 -1.7476 -0.8984
19987TIP3   OH281375   2.648   0.170  13.954 -0.2132 -0.7653 -0.5250
19987TIP3    H181376   2.645   0.140  13.863 -0.6993 -1.4009 -0.3117
19987TIP3    H281377   2.563   0.213  13.967 -0.1383 -0.6627 -0.3745
19988TIP3   OH281378   2.722   6.588   3.829  0.0596  0.1298 -0.0114
19988TIP3    H181379   2.765   6.511   3.792 -1.6042 -0.4172 -0.8815
19988TIP3    H281380   2.720   6.572   3.923  1.1381 -0.1289 -0.0169
19989LIG      O81381   3.417   2.823   9.730 -0.2641 -0.0277 -0.0693
19989LIG     C181382   3.476   2.793   9.601  0.4529 -0.3053  0.6426
19989LIG     C281383   3.433   2.643   9.583  0.0963 -0.0880  0.0212
19989LIG     C381384   3.418   2.889   9.495 -0.3353  0.5047  0.0840
19989LIG     H181385   3.586   2.806   9.608  0.6687 -1.4522 -0.2846
19989LIG     H281386   3.323   2.631   9.573  0.3416 -1.9887 -0.9168
19989LIG     H381387   3.465   2.582   9.671  0.9719  0.0494 -0.1992
19989LIG     H481388   3.468   2.610   9.483  0.8233  1.8671 -0.4053
19989LIG     H581389   3.453   2.857   9.394  2.5214 -0.8402  1.3620
19989LIG     H681390   3.452   2.992   9.520  2.9432 -0.4033 -0.1337
19989LIG     H781391   3.308   2.894   9.505 -0.4839 -2.6750  1.2218
19989LIG     H881392   3.453   2.904   9.769 -1.7696 -0.6431  2.8705
   6.82205   6.82205  17.08008
